;
;   File g6dpocore_petim_betagalactose.itp  was generated
;   By user: sairam (1000)
;   On host: sairam
;   At date: Tue. January  2 21:51:54 2025
;
;   This is a standalone topology file
;
;   Created by:
;   ParmEd:       amb2gro_top_gro.py, VERSION 3.4.1
;   Executable:   amb2gro_top_gro.py
;   Library dir:  /usr/local/gromacs/share/gromacs/top
;   Command line:
;     ./amb2gro_top_gro.py -p g6dpocore_petim_betagalactose.prmtop -c g6dpocore_petim_betagalactose.inpcrd -t g6dpocore_petim_betagalactose.itp -g g6dpocore_petim_betagalactose.gro -b g6dpocore_petim_betagalactose.pdb
;

;[ defaults ]
;; nbfunc        comb-rule       gen-pairs       fudgeLJ fudgeQQ
;1               2               yes             0.5          0.83333333  
;
;[ atomtypes ]
;; name    at.num    mass    charge ptype  sigma      epsilon
;os             8  16.000000  0.00000000  A     0.30000123        0.71128
;c3             6  12.010000  0.00000000  A     0.33996695      0.4577296
;h1             1   1.008000  0.00000000  A      0.2471353      0.0656888
;hc             1   1.008000  0.00000000  A     0.26495328      0.0656888
;hx             1   1.008000  0.00000000  A     0.19599772      0.0656888
;n4             7  14.010000  0.00000000  A     0.32499985        0.71128
;hn             1   1.008000  0.00000000  A     0.10690785      0.0656888
;h2             1   1.008000  0.00000000  A     0.22931733      0.0656888
;oh             8  16.000000  0.00000000  A     0.30664734      0.8803136
;ho             1   1.008000  0.00000000  A              0              0


[ moleculetype ]
; Name            nrexcl
g6dpocore_petim_betagalactose          3

[ atoms ]
;   nr       type  resnr residue  atom   cgnr    charge       mass  typeB    chargeB      massB
; residue    1 aaa rtp aaa q 2.0
    1         os      1    aaa     O1      1 -0.58111400  16.000000   ; qtot -0.581114
    2         c3      1    aaa     C1      2 0.17711200  12.010000   ; qtot -0.404002
    3         h1      1    aaa     H1      3 0.04565000   1.008000   ; qtot -0.358352
    4         h1      1    aaa     H2      4 0.04565000   1.008000   ; qtot -0.312702
    5         c3      1    aaa     C2      5 0.17711200  12.010000   ; qtot -0.135590
    6         h1      1    aaa     H3      6 0.04565000   1.008000   ; qtot -0.089940
    7         h1      1    aaa     H4      7 0.04565000   1.008000   ; qtot -0.044290
    8         c3      1    aaa     C3      8 0.15102100  12.010000   ; qtot 0.106731
    9         hc      1    aaa     H5      9 0.02538500   1.008000   ; qtot 0.132116
   10         hc      1    aaa     H6     10 0.02538500   1.008000   ; qtot 0.157501
   11         c3      1    aaa     C4     11 0.15102100  12.010000   ; qtot 0.308522
   12         hc      1    aaa     H7     12 0.02538500   1.008000   ; qtot 0.333907
   13         hc      1    aaa     H8     13 0.02538500   1.008000   ; qtot 0.359292
   14         c3      1    aaa     C5     14 -0.29474300  12.010000   ; qtot 0.064549
   15         hx      1    aaa     H9     15 0.12534200   1.008000   ; qtot 0.189891
   16         hx      1    aaa    H10     16 0.12534200   1.008000   ; qtot 0.315233
   17         c3      1    aaa     C6     17 -0.29474300  12.010000   ; qtot 0.020490
   18         hx      1    aaa    H11     18 0.12534200   1.008000   ; qtot 0.145832
   19         hx      1    aaa    H12     19 0.12534200   1.008000   ; qtot 0.271174
   20         n4      1    aaa     N1     20 -0.11447800  14.010000   ; qtot 0.156696
   21         n4      1    aaa     N2     21 -0.11447800  14.010000   ; qtot 0.042218
   22         c3      1    aaa     C7     22 -0.03432800  12.010000   ; qtot 0.007890
   23         hx      1    aaa    H13     23 0.10515400   1.008000   ; qtot 0.113044
   24         hx      1    aaa    H14     24 0.10515400   1.008000   ; qtot 0.218198
   25         c3      1    aaa     C8     25 -0.03432800  12.010000   ; qtot 0.183870
   26         hx      1    aaa    H15     26 0.10515400   1.008000   ; qtot 0.289024
   27         hx      1    aaa    H16     27 0.10515400   1.008000   ; qtot 0.394178
   28         c3      1    aaa     C9     28 -0.03432800  12.010000   ; qtot 0.359850
   29         hx      1    aaa    H17     29 0.10515400   1.008000   ; qtot 0.465004
   30         hx      1    aaa    H18     30 0.10515400   1.008000   ; qtot 0.570158
   31         c3      1    aaa    C10     31 -0.03432800  12.010000   ; qtot 0.535830
   32         hx      1    aaa    H19     32 0.10515400   1.008000   ; qtot 0.640984
   33         hx      1    aaa    H20     33 0.10515400   1.008000   ; qtot 0.746138
   34         c3      1    aaa    C11     34 -0.06183200  12.010000   ; qtot 0.684306
   35         hc      1    aaa    H21     35 0.08865200   1.008000   ; qtot 0.772958
   36         hc      1    aaa    H22     36 0.08865200   1.008000   ; qtot 0.861610
   37         c3      1    aaa    C12     37 -0.06183200  12.010000   ; qtot 0.799778
   38         hc      1    aaa    H23     38 0.08865200   1.008000   ; qtot 0.888430
   39         hc      1    aaa    H24     39 0.08865200   1.008000   ; qtot 0.977082
   40         c3      1    aaa    C13     40 -0.06183200  12.010000   ; qtot 0.915250
   41         hc      1    aaa    H25     41 0.08865200   1.008000   ; qtot 1.003902
   42         hc      1    aaa    H26     42 0.08865200   1.008000   ; qtot 1.092554
   43         c3      1    aaa    C14     43 -0.06183200  12.010000   ; qtot 1.030722
   44         hc      1    aaa    H27     44 0.08865200   1.008000   ; qtot 1.119374
   45         hc      1    aaa    H28     45 0.08865200   1.008000   ; qtot 1.208026
   46         c3      1    aaa    C15     46 -0.22217300  12.010000   ; qtot 0.985853
   47         hc      1    aaa    H29     47 0.16441900   1.008000   ; qtot 1.150272
   48         hc      1    aaa    H30     48 0.16441900   1.008000   ; qtot 1.314691
   49         c3      1    aaa    C16     49 -0.22217300  12.010000   ; qtot 1.092518
   50         hc      1    aaa    H31     50 0.16441900   1.008000   ; qtot 1.256937
   51         hc      1    aaa    H32     51 0.16441900   1.008000   ; qtot 1.421356
   52         c3      1    aaa    C17     52 -0.22217300  12.010000   ; qtot 1.199183
   53         hc      1    aaa    H33     53 0.16441900   1.008000   ; qtot 1.363602
   54         hc      1    aaa    H34     54 0.16441900   1.008000   ; qtot 1.528021
   55         c3      1    aaa    C18     55 -0.22217300  12.010000   ; qtot 1.305848
   56         hc      1    aaa    H35     56 0.16441900   1.008000   ; qtot 1.470267
   57         hc      1    aaa    H36     57 0.16441900   1.008000   ; qtot 1.634686
   58         hn      1    aaa    H38     58 0.18266300   1.008000   ; qtot 1.817349
   59         hn      1    aaa    H37     59 0.18266300   1.008000   ; qtot 2.000012
; residue    2 bbb rtp bbb q 1.0
   60         n4      2    bbb     N1     60 0.03726400  14.010000   ; qtot 2.037276
   61         c3      2    bbb     C1     61 -0.07020100  12.010000   ; qtot 1.967075
   62         hx      2    bbb     H1     62 0.12219000   1.008000   ; qtot 2.089265
   63         hx      2    bbb     H2     63 0.12219000   1.008000   ; qtot 2.211455
   64         c3      2    bbb     C2     64 -0.07020100  12.010000   ; qtot 2.141254
   65         hx      2    bbb     H3     65 0.12219000   1.008000   ; qtot 2.263444
   66         hx      2    bbb     H4     66 0.12219000   1.008000   ; qtot 2.385634
   67         c3      2    bbb     C3     67 -0.39007700  12.010000   ; qtot 1.995557
   68         hx      2    bbb     H5     68 0.14940300   1.008000   ; qtot 2.144960
   69         hx      2    bbb     H6     69 0.14940300   1.008000   ; qtot 2.294363
   70         c3      2    bbb     C4     70 0.18057300  12.010000   ; qtot 2.474936
   71         hc      2    bbb     H7     71 0.01788900   1.008000   ; qtot 2.492825
   72         hc      2    bbb     H8     72 0.01788900   1.008000   ; qtot 2.510714
   73         c3      2    bbb     C5     73 -0.11337700  12.010000   ; qtot 2.397337
   74         hc      2    bbb     H9     74 0.09515400   1.008000   ; qtot 2.492491
   75         hc      2    bbb    H10     75 0.09515400   1.008000   ; qtot 2.587645
   76         c3      2    bbb     C6     76 -0.11337700  12.010000   ; qtot 2.474268
   77         hc      2    bbb    H11     77 0.09515400   1.008000   ; qtot 2.569422
   78         hc      2    bbb    H12     78 0.09515400   1.008000   ; qtot 2.664576
   79         c3      2    bbb     C7     79 0.21842400  12.010000   ; qtot 2.883000
   80         h1      2    bbb    H13     80 0.04500300   1.008000   ; qtot 2.928003
   81         h1      2    bbb    H14     81 0.04500300   1.008000   ; qtot 2.973006
   82         c3      2    bbb     C8     82 -0.06455200  12.010000   ; qtot 2.908454
   83         h1      2    bbb    H15     83 0.13554100   1.008000   ; qtot 3.043995
   84         h1      2    bbb    H16     84 0.13554100   1.008000   ; qtot 3.179536
   85         c3      2    bbb     C9     85 -0.06455200  12.010000   ; qtot 3.114984
   86         h1      2    bbb    H17     86 0.13554100   1.008000   ; qtot 3.250525
   87         h1      2    bbb    H18     87 0.13554100   1.008000   ; qtot 3.386066
   88         os      2    bbb     O1     88 -0.62587700  16.000000   ; qtot 2.760189
   89         hn      2    bbb    H19     89 0.23982500   1.008000   ; qtot 3.000014
; residue    3 bbb rtp bbb q 1.0
   90         n4      3    bbb     N1     90 0.03726400  14.010000   ; qtot 3.037278
   91         c3      3    bbb     C1     91 -0.07020100  12.010000   ; qtot 2.967077
   92         hx      3    bbb     H1     92 0.12219000   1.008000   ; qtot 3.089267
   93         hx      3    bbb     H2     93 0.12219000   1.008000   ; qtot 3.211457
   94         c3      3    bbb     C2     94 -0.07020100  12.010000   ; qtot 3.141256
   95         hx      3    bbb     H3     95 0.12219000   1.008000   ; qtot 3.263446
   96         hx      3    bbb     H4     96 0.12219000   1.008000   ; qtot 3.385636
   97         c3      3    bbb     C3     97 -0.39007700  12.010000   ; qtot 2.995559
   98         hx      3    bbb     H5     98 0.14940300   1.008000   ; qtot 3.144962
   99         hx      3    bbb     H6     99 0.14940300   1.008000   ; qtot 3.294365
  100         c3      3    bbb     C4    100 0.18057300  12.010000   ; qtot 3.474938
  101         hc      3    bbb     H7    101 0.01788900   1.008000   ; qtot 3.492827
  102         hc      3    bbb     H8    102 0.01788900   1.008000   ; qtot 3.510716
  103         c3      3    bbb     C5    103 -0.11337700  12.010000   ; qtot 3.397339
  104         hc      3    bbb     H9    104 0.09515400   1.008000   ; qtot 3.492493
  105         hc      3    bbb    H10    105 0.09515400   1.008000   ; qtot 3.587647
  106         c3      3    bbb     C6    106 -0.11337700  12.010000   ; qtot 3.474270
  107         hc      3    bbb    H11    107 0.09515400   1.008000   ; qtot 3.569424
  108         hc      3    bbb    H12    108 0.09515400   1.008000   ; qtot 3.664578
  109         c3      3    bbb     C7    109 0.21842400  12.010000   ; qtot 3.883002
  110         h1      3    bbb    H13    110 0.04500300   1.008000   ; qtot 3.928005
  111         h1      3    bbb    H14    111 0.04500300   1.008000   ; qtot 3.973008
  112         c3      3    bbb     C8    112 -0.06455200  12.010000   ; qtot 3.908456
  113         h1      3    bbb    H15    113 0.13554100   1.008000   ; qtot 4.043997
  114         h1      3    bbb    H16    114 0.13554100   1.008000   ; qtot 4.179538
  115         c3      3    bbb     C9    115 -0.06455200  12.010000   ; qtot 4.114986
  116         h1      3    bbb    H17    116 0.13554100   1.008000   ; qtot 4.250527
  117         h1      3    bbb    H18    117 0.13554100   1.008000   ; qtot 4.386068
  118         os      3    bbb     O1    118 -0.62587700  16.000000   ; qtot 3.760191
  119         hn      3    bbb    H19    119 0.23982500   1.008000   ; qtot 4.000016
; residue    4 bbb rtp bbb q 1.0
  120         n4      4    bbb     N1    120 0.03726400  14.010000   ; qtot 4.037280
  121         c3      4    bbb     C1    121 -0.07020100  12.010000   ; qtot 3.967079
  122         hx      4    bbb     H1    122 0.12219000   1.008000   ; qtot 4.089269
  123         hx      4    bbb     H2    123 0.12219000   1.008000   ; qtot 4.211459
  124         c3      4    bbb     C2    124 -0.07020100  12.010000   ; qtot 4.141258
  125         hx      4    bbb     H3    125 0.12219000   1.008000   ; qtot 4.263448
  126         hx      4    bbb     H4    126 0.12219000   1.008000   ; qtot 4.385638
  127         c3      4    bbb     C3    127 -0.39007700  12.010000   ; qtot 3.995561
  128         hx      4    bbb     H5    128 0.14940300   1.008000   ; qtot 4.144964
  129         hx      4    bbb     H6    129 0.14940300   1.008000   ; qtot 4.294367
  130         c3      4    bbb     C4    130 0.18057300  12.010000   ; qtot 4.474940
  131         hc      4    bbb     H7    131 0.01788900   1.008000   ; qtot 4.492829
  132         hc      4    bbb     H8    132 0.01788900   1.008000   ; qtot 4.510718
  133         c3      4    bbb     C5    133 -0.11337700  12.010000   ; qtot 4.397341
  134         hc      4    bbb     H9    134 0.09515400   1.008000   ; qtot 4.492495
  135         hc      4    bbb    H10    135 0.09515400   1.008000   ; qtot 4.587649
  136         c3      4    bbb     C6    136 -0.11337700  12.010000   ; qtot 4.474272
  137         hc      4    bbb    H11    137 0.09515400   1.008000   ; qtot 4.569426
  138         hc      4    bbb    H12    138 0.09515400   1.008000   ; qtot 4.664580
  139         c3      4    bbb     C7    139 0.21842400  12.010000   ; qtot 4.883004
  140         h1      4    bbb    H13    140 0.04500300   1.008000   ; qtot 4.928007
  141         h1      4    bbb    H14    141 0.04500300   1.008000   ; qtot 4.973010
  142         c3      4    bbb     C8    142 -0.06455200  12.010000   ; qtot 4.908458
  143         h1      4    bbb    H15    143 0.13554100   1.008000   ; qtot 5.043999
  144         h1      4    bbb    H16    144 0.13554100   1.008000   ; qtot 5.179540
  145         c3      4    bbb     C9    145 -0.06455200  12.010000   ; qtot 5.114988
  146         h1      4    bbb    H17    146 0.13554100   1.008000   ; qtot 5.250529
  147         h1      4    bbb    H18    147 0.13554100   1.008000   ; qtot 5.386070
  148         os      4    bbb     O1    148 -0.62587700  16.000000   ; qtot 4.760193
  149         hn      4    bbb    H19    149 0.23982500   1.008000   ; qtot 5.000018
; residue    5 bbb rtp bbb q 1.0
  150         n4      5    bbb     N1    150 0.03726400  14.010000   ; qtot 5.037282
  151         c3      5    bbb     C1    151 -0.07020100  12.010000   ; qtot 4.967081
  152         hx      5    bbb     H1    152 0.12219000   1.008000   ; qtot 5.089271
  153         hx      5    bbb     H2    153 0.12219000   1.008000   ; qtot 5.211461
  154         c3      5    bbb     C2    154 -0.07020100  12.010000   ; qtot 5.141260
  155         hx      5    bbb     H3    155 0.12219000   1.008000   ; qtot 5.263450
  156         hx      5    bbb     H4    156 0.12219000   1.008000   ; qtot 5.385640
  157         c3      5    bbb     C3    157 -0.39007700  12.010000   ; qtot 4.995563
  158         hx      5    bbb     H5    158 0.14940300   1.008000   ; qtot 5.144966
  159         hx      5    bbb     H6    159 0.14940300   1.008000   ; qtot 5.294369
  160         c3      5    bbb     C4    160 0.18057300  12.010000   ; qtot 5.474942
  161         hc      5    bbb     H7    161 0.01788900   1.008000   ; qtot 5.492831
  162         hc      5    bbb     H8    162 0.01788900   1.008000   ; qtot 5.510720
  163         c3      5    bbb     C5    163 -0.11337700  12.010000   ; qtot 5.397343
  164         hc      5    bbb     H9    164 0.09515400   1.008000   ; qtot 5.492497
  165         hc      5    bbb    H10    165 0.09515400   1.008000   ; qtot 5.587651
  166         c3      5    bbb     C6    166 -0.11337700  12.010000   ; qtot 5.474274
  167         hc      5    bbb    H11    167 0.09515400   1.008000   ; qtot 5.569428
  168         hc      5    bbb    H12    168 0.09515400   1.008000   ; qtot 5.664582
  169         c3      5    bbb     C7    169 0.21842400  12.010000   ; qtot 5.883006
  170         h1      5    bbb    H13    170 0.04500300   1.008000   ; qtot 5.928009
  171         h1      5    bbb    H14    171 0.04500300   1.008000   ; qtot 5.973012
  172         c3      5    bbb     C8    172 -0.06455200  12.010000   ; qtot 5.908460
  173         h1      5    bbb    H15    173 0.13554100   1.008000   ; qtot 6.044001
  174         h1      5    bbb    H16    174 0.13554100   1.008000   ; qtot 6.179542
  175         c3      5    bbb     C9    175 -0.06455200  12.010000   ; qtot 6.114990
  176         h1      5    bbb    H17    176 0.13554100   1.008000   ; qtot 6.250531
  177         h1      5    bbb    H18    177 0.13554100   1.008000   ; qtot 6.386072
  178         os      5    bbb     O1    178 -0.62587700  16.000000   ; qtot 5.760195
  179         hn      5    bbb    H19    179 0.23982500   1.008000   ; qtot 6.000020
; residue    6 bbb rtp bbb q 1.0
  180         n4      6    bbb     N1    180 0.03726400  14.010000   ; qtot 6.037284
  181         c3      6    bbb     C1    181 -0.07020100  12.010000   ; qtot 5.967083
  182         hx      6    bbb     H1    182 0.12219000   1.008000   ; qtot 6.089273
  183         hx      6    bbb     H2    183 0.12219000   1.008000   ; qtot 6.211463
  184         c3      6    bbb     C2    184 -0.07020100  12.010000   ; qtot 6.141262
  185         hx      6    bbb     H3    185 0.12219000   1.008000   ; qtot 6.263452
  186         hx      6    bbb     H4    186 0.12219000   1.008000   ; qtot 6.385642
  187         c3      6    bbb     C3    187 -0.39007700  12.010000   ; qtot 5.995565
  188         hx      6    bbb     H5    188 0.14940300   1.008000   ; qtot 6.144968
  189         hx      6    bbb     H6    189 0.14940300   1.008000   ; qtot 6.294371
  190         c3      6    bbb     C4    190 0.18057300  12.010000   ; qtot 6.474944
  191         hc      6    bbb     H7    191 0.01788900   1.008000   ; qtot 6.492833
  192         hc      6    bbb     H8    192 0.01788900   1.008000   ; qtot 6.510722
  193         c3      6    bbb     C5    193 -0.11337700  12.010000   ; qtot 6.397345
  194         hc      6    bbb     H9    194 0.09515400   1.008000   ; qtot 6.492499
  195         hc      6    bbb    H10    195 0.09515400   1.008000   ; qtot 6.587653
  196         c3      6    bbb     C6    196 -0.11337700  12.010000   ; qtot 6.474276
  197         hc      6    bbb    H11    197 0.09515400   1.008000   ; qtot 6.569430
  198         hc      6    bbb    H12    198 0.09515400   1.008000   ; qtot 6.664584
  199         c3      6    bbb     C7    199 0.21842400  12.010000   ; qtot 6.883008
  200         h1      6    bbb    H13    200 0.04500300   1.008000   ; qtot 6.928011
  201         h1      6    bbb    H14    201 0.04500300   1.008000   ; qtot 6.973014
  202         c3      6    bbb     C8    202 -0.06455200  12.010000   ; qtot 6.908462
  203         h1      6    bbb    H15    203 0.13554100   1.008000   ; qtot 7.044003
  204         h1      6    bbb    H16    204 0.13554100   1.008000   ; qtot 7.179544
  205         c3      6    bbb     C9    205 -0.06455200  12.010000   ; qtot 7.114992
  206         h1      6    bbb    H17    206 0.13554100   1.008000   ; qtot 7.250533
  207         h1      6    bbb    H18    207 0.13554100   1.008000   ; qtot 7.386074
  208         os      6    bbb     O1    208 -0.62587700  16.000000   ; qtot 6.760197
  209         hn      6    bbb    H19    209 0.23982500   1.008000   ; qtot 7.000022
; residue    7 bbb rtp bbb q 1.0
  210         n4      7    bbb     N1    210 0.03726400  14.010000   ; qtot 7.037286
  211         c3      7    bbb     C1    211 -0.07020100  12.010000   ; qtot 6.967085
  212         hx      7    bbb     H1    212 0.12219000   1.008000   ; qtot 7.089275
  213         hx      7    bbb     H2    213 0.12219000   1.008000   ; qtot 7.211465
  214         c3      7    bbb     C2    214 -0.07020100  12.010000   ; qtot 7.141264
  215         hx      7    bbb     H3    215 0.12219000   1.008000   ; qtot 7.263454
  216         hx      7    bbb     H4    216 0.12219000   1.008000   ; qtot 7.385644
  217         c3      7    bbb     C3    217 -0.39007700  12.010000   ; qtot 6.995567
  218         hx      7    bbb     H5    218 0.14940300   1.008000   ; qtot 7.144970
  219         hx      7    bbb     H6    219 0.14940300   1.008000   ; qtot 7.294373
  220         c3      7    bbb     C4    220 0.18057300  12.010000   ; qtot 7.474946
  221         hc      7    bbb     H7    221 0.01788900   1.008000   ; qtot 7.492835
  222         hc      7    bbb     H8    222 0.01788900   1.008000   ; qtot 7.510724
  223         c3      7    bbb     C5    223 -0.11337700  12.010000   ; qtot 7.397347
  224         hc      7    bbb     H9    224 0.09515400   1.008000   ; qtot 7.492501
  225         hc      7    bbb    H10    225 0.09515400   1.008000   ; qtot 7.587655
  226         c3      7    bbb     C6    226 -0.11337700  12.010000   ; qtot 7.474278
  227         hc      7    bbb    H11    227 0.09515400   1.008000   ; qtot 7.569432
  228         hc      7    bbb    H12    228 0.09515400   1.008000   ; qtot 7.664586
  229         c3      7    bbb     C7    229 0.21842400  12.010000   ; qtot 7.883010
  230         h1      7    bbb    H13    230 0.04500300   1.008000   ; qtot 7.928013
  231         h1      7    bbb    H14    231 0.04500300   1.008000   ; qtot 7.973016
  232         c3      7    bbb     C8    232 -0.06455200  12.010000   ; qtot 7.908464
  233         h1      7    bbb    H15    233 0.13554100   1.008000   ; qtot 8.044005
  234         h1      7    bbb    H16    234 0.13554100   1.008000   ; qtot 8.179546
  235         c3      7    bbb     C9    235 -0.06455200  12.010000   ; qtot 8.114994
  236         h1      7    bbb    H17    236 0.13554100   1.008000   ; qtot 8.250535
  237         h1      7    bbb    H18    237 0.13554100   1.008000   ; qtot 8.386076
  238         os      7    bbb     O1    238 -0.62587700  16.000000   ; qtot 7.760199
  239         hn      7    bbb    H19    239 0.23982500   1.008000   ; qtot 8.000024
; residue    8 bbb rtp bbb q 1.0
  240         n4      8    bbb     N1    240 0.03726400  14.010000   ; qtot 8.037288
  241         c3      8    bbb     C1    241 -0.07020100  12.010000   ; qtot 7.967087
  242         hx      8    bbb     H1    242 0.12219000   1.008000   ; qtot 8.089277
  243         hx      8    bbb     H2    243 0.12219000   1.008000   ; qtot 8.211467
  244         c3      8    bbb     C2    244 -0.07020100  12.010000   ; qtot 8.141266
  245         hx      8    bbb     H3    245 0.12219000   1.008000   ; qtot 8.263456
  246         hx      8    bbb     H4    246 0.12219000   1.008000   ; qtot 8.385646
  247         c3      8    bbb     C3    247 -0.39007700  12.010000   ; qtot 7.995569
  248         hx      8    bbb     H5    248 0.14940300   1.008000   ; qtot 8.144972
  249         hx      8    bbb     H6    249 0.14940300   1.008000   ; qtot 8.294375
  250         c3      8    bbb     C4    250 0.18057300  12.010000   ; qtot 8.474948
  251         hc      8    bbb     H7    251 0.01788900   1.008000   ; qtot 8.492837
  252         hc      8    bbb     H8    252 0.01788900   1.008000   ; qtot 8.510726
  253         c3      8    bbb     C5    253 -0.11337700  12.010000   ; qtot 8.397349
  254         hc      8    bbb     H9    254 0.09515400   1.008000   ; qtot 8.492503
  255         hc      8    bbb    H10    255 0.09515400   1.008000   ; qtot 8.587657
  256         c3      8    bbb     C6    256 -0.11337700  12.010000   ; qtot 8.474280
  257         hc      8    bbb    H11    257 0.09515400   1.008000   ; qtot 8.569434
  258         hc      8    bbb    H12    258 0.09515400   1.008000   ; qtot 8.664588
  259         c3      8    bbb     C7    259 0.21842400  12.010000   ; qtot 8.883012
  260         h1      8    bbb    H13    260 0.04500300   1.008000   ; qtot 8.928015
  261         h1      8    bbb    H14    261 0.04500300   1.008000   ; qtot 8.973018
  262         c3      8    bbb     C8    262 -0.06455200  12.010000   ; qtot 8.908466
  263         h1      8    bbb    H15    263 0.13554100   1.008000   ; qtot 9.044007
  264         h1      8    bbb    H16    264 0.13554100   1.008000   ; qtot 9.179548
  265         c3      8    bbb     C9    265 -0.06455200  12.010000   ; qtot 9.114996
  266         h1      8    bbb    H17    266 0.13554100   1.008000   ; qtot 9.250537
  267         h1      8    bbb    H18    267 0.13554100   1.008000   ; qtot 9.386078
  268         os      8    bbb     O1    268 -0.62587700  16.000000   ; qtot 8.760201
  269         hn      8    bbb    H19    269 0.23982500   1.008000   ; qtot 9.000026
; residue    9 bbb rtp bbb q 1.0
  270         n4      9    bbb     N1    270 0.03726400  14.010000   ; qtot 9.037290
  271         c3      9    bbb     C1    271 -0.07020100  12.010000   ; qtot 8.967089
  272         hx      9    bbb     H1    272 0.12219000   1.008000   ; qtot 9.089279
  273         hx      9    bbb     H2    273 0.12219000   1.008000   ; qtot 9.211469
  274         c3      9    bbb     C2    274 -0.07020100  12.010000   ; qtot 9.141268
  275         hx      9    bbb     H3    275 0.12219000   1.008000   ; qtot 9.263458
  276         hx      9    bbb     H4    276 0.12219000   1.008000   ; qtot 9.385648
  277         c3      9    bbb     C3    277 -0.39007700  12.010000   ; qtot 8.995571
  278         hx      9    bbb     H5    278 0.14940300   1.008000   ; qtot 9.144974
  279         hx      9    bbb     H6    279 0.14940300   1.008000   ; qtot 9.294377
  280         c3      9    bbb     C4    280 0.18057300  12.010000   ; qtot 9.474950
  281         hc      9    bbb     H7    281 0.01788900   1.008000   ; qtot 9.492839
  282         hc      9    bbb     H8    282 0.01788900   1.008000   ; qtot 9.510728
  283         c3      9    bbb     C5    283 -0.11337700  12.010000   ; qtot 9.397351
  284         hc      9    bbb     H9    284 0.09515400   1.008000   ; qtot 9.492505
  285         hc      9    bbb    H10    285 0.09515400   1.008000   ; qtot 9.587659
  286         c3      9    bbb     C6    286 -0.11337700  12.010000   ; qtot 9.474282
  287         hc      9    bbb    H11    287 0.09515400   1.008000   ; qtot 9.569436
  288         hc      9    bbb    H12    288 0.09515400   1.008000   ; qtot 9.664590
  289         c3      9    bbb     C7    289 0.21842400  12.010000   ; qtot 9.883014
  290         h1      9    bbb    H13    290 0.04500300   1.008000   ; qtot 9.928017
  291         h1      9    bbb    H14    291 0.04500300   1.008000   ; qtot 9.973020
  292         c3      9    bbb     C8    292 -0.06455200  12.010000   ; qtot 9.908468
  293         h1      9    bbb    H15    293 0.13554100   1.008000   ; qtot 10.044009
  294         h1      9    bbb    H16    294 0.13554100   1.008000   ; qtot 10.179550
  295         c3      9    bbb     C9    295 -0.06455200  12.010000   ; qtot 10.114998
  296         h1      9    bbb    H17    296 0.13554100   1.008000   ; qtot 10.250539
  297         h1      9    bbb    H18    297 0.13554100   1.008000   ; qtot 10.386080
  298         os      9    bbb     O1    298 -0.62587700  16.000000   ; qtot 9.760203
  299         hn      9    bbb    H19    299 0.23982500   1.008000   ; qtot 10.000028
; residue   10 bbb rtp bbb q 1.0
  300         n4     10    bbb     N1    300 0.03726400  14.010000   ; qtot 10.037292
  301         c3     10    bbb     C1    301 -0.07020100  12.010000   ; qtot 9.967091
  302         hx     10    bbb     H1    302 0.12219000   1.008000   ; qtot 10.089281
  303         hx     10    bbb     H2    303 0.12219000   1.008000   ; qtot 10.211471
  304         c3     10    bbb     C2    304 -0.07020100  12.010000   ; qtot 10.141270
  305         hx     10    bbb     H3    305 0.12219000   1.008000   ; qtot 10.263460
  306         hx     10    bbb     H4    306 0.12219000   1.008000   ; qtot 10.385650
  307         c3     10    bbb     C3    307 -0.39007700  12.010000   ; qtot 9.995573
  308         hx     10    bbb     H5    308 0.14940300   1.008000   ; qtot 10.144976
  309         hx     10    bbb     H6    309 0.14940300   1.008000   ; qtot 10.294379
  310         c3     10    bbb     C4    310 0.18057300  12.010000   ; qtot 10.474952
  311         hc     10    bbb     H7    311 0.01788900   1.008000   ; qtot 10.492841
  312         hc     10    bbb     H8    312 0.01788900   1.008000   ; qtot 10.510730
  313         c3     10    bbb     C5    313 -0.11337700  12.010000   ; qtot 10.397353
  314         hc     10    bbb     H9    314 0.09515400   1.008000   ; qtot 10.492507
  315         hc     10    bbb    H10    315 0.09515400   1.008000   ; qtot 10.587661
  316         c3     10    bbb     C6    316 -0.11337700  12.010000   ; qtot 10.474284
  317         hc     10    bbb    H11    317 0.09515400   1.008000   ; qtot 10.569438
  318         hc     10    bbb    H12    318 0.09515400   1.008000   ; qtot 10.664592
  319         c3     10    bbb     C7    319 0.21842400  12.010000   ; qtot 10.883016
  320         h1     10    bbb    H13    320 0.04500300   1.008000   ; qtot 10.928019
  321         h1     10    bbb    H14    321 0.04500300   1.008000   ; qtot 10.973022
  322         c3     10    bbb     C8    322 -0.06455200  12.010000   ; qtot 10.908470
  323         h1     10    bbb    H15    323 0.13554100   1.008000   ; qtot 11.044011
  324         h1     10    bbb    H16    324 0.13554100   1.008000   ; qtot 11.179552
  325         c3     10    bbb     C9    325 -0.06455200  12.010000   ; qtot 11.115000
  326         h1     10    bbb    H17    326 0.13554100   1.008000   ; qtot 11.250541
  327         h1     10    bbb    H18    327 0.13554100   1.008000   ; qtot 11.386082
  328         os     10    bbb     O1    328 -0.62587700  16.000000   ; qtot 10.760205
  329         hn     10    bbb    H19    329 0.23982500   1.008000   ; qtot 11.000030
; residue   11 bbb rtp bbb q 1.0
  330         n4     11    bbb     N1    330 0.03726400  14.010000   ; qtot 11.037294
  331         c3     11    bbb     C1    331 -0.07020100  12.010000   ; qtot 10.967093
  332         hx     11    bbb     H1    332 0.12219000   1.008000   ; qtot 11.089283
  333         hx     11    bbb     H2    333 0.12219000   1.008000   ; qtot 11.211473
  334         c3     11    bbb     C2    334 -0.07020100  12.010000   ; qtot 11.141272
  335         hx     11    bbb     H3    335 0.12219000   1.008000   ; qtot 11.263462
  336         hx     11    bbb     H4    336 0.12219000   1.008000   ; qtot 11.385652
  337         c3     11    bbb     C3    337 -0.39007700  12.010000   ; qtot 10.995575
  338         hx     11    bbb     H5    338 0.14940300   1.008000   ; qtot 11.144978
  339         hx     11    bbb     H6    339 0.14940300   1.008000   ; qtot 11.294381
  340         c3     11    bbb     C4    340 0.18057300  12.010000   ; qtot 11.474954
  341         hc     11    bbb     H7    341 0.01788900   1.008000   ; qtot 11.492843
  342         hc     11    bbb     H8    342 0.01788900   1.008000   ; qtot 11.510732
  343         c3     11    bbb     C5    343 -0.11337700  12.010000   ; qtot 11.397355
  344         hc     11    bbb     H9    344 0.09515400   1.008000   ; qtot 11.492509
  345         hc     11    bbb    H10    345 0.09515400   1.008000   ; qtot 11.587663
  346         c3     11    bbb     C6    346 -0.11337700  12.010000   ; qtot 11.474286
  347         hc     11    bbb    H11    347 0.09515400   1.008000   ; qtot 11.569440
  348         hc     11    bbb    H12    348 0.09515400   1.008000   ; qtot 11.664594
  349         c3     11    bbb     C7    349 0.21842400  12.010000   ; qtot 11.883018
  350         h1     11    bbb    H13    350 0.04500300   1.008000   ; qtot 11.928021
  351         h1     11    bbb    H14    351 0.04500300   1.008000   ; qtot 11.973024
  352         c3     11    bbb     C8    352 -0.06455200  12.010000   ; qtot 11.908472
  353         h1     11    bbb    H15    353 0.13554100   1.008000   ; qtot 12.044013
  354         h1     11    bbb    H16    354 0.13554100   1.008000   ; qtot 12.179554
  355         c3     11    bbb     C9    355 -0.06455200  12.010000   ; qtot 12.115002
  356         h1     11    bbb    H17    356 0.13554100   1.008000   ; qtot 12.250543
  357         h1     11    bbb    H18    357 0.13554100   1.008000   ; qtot 12.386084
  358         os     11    bbb     O1    358 -0.62587700  16.000000   ; qtot 11.760207
  359         hn     11    bbb    H19    359 0.23982500   1.008000   ; qtot 12.000032
; residue   12 bbb rtp bbb q 1.0
  360         n4     12    bbb     N1    360 0.03726400  14.010000   ; qtot 12.037296
  361         c3     12    bbb     C1    361 -0.07020100  12.010000   ; qtot 11.967095
  362         hx     12    bbb     H1    362 0.12219000   1.008000   ; qtot 12.089285
  363         hx     12    bbb     H2    363 0.12219000   1.008000   ; qtot 12.211475
  364         c3     12    bbb     C2    364 -0.07020100  12.010000   ; qtot 12.141274
  365         hx     12    bbb     H3    365 0.12219000   1.008000   ; qtot 12.263464
  366         hx     12    bbb     H4    366 0.12219000   1.008000   ; qtot 12.385654
  367         c3     12    bbb     C3    367 -0.39007700  12.010000   ; qtot 11.995577
  368         hx     12    bbb     H5    368 0.14940300   1.008000   ; qtot 12.144980
  369         hx     12    bbb     H6    369 0.14940300   1.008000   ; qtot 12.294383
  370         c3     12    bbb     C4    370 0.18057300  12.010000   ; qtot 12.474956
  371         hc     12    bbb     H7    371 0.01788900   1.008000   ; qtot 12.492845
  372         hc     12    bbb     H8    372 0.01788900   1.008000   ; qtot 12.510734
  373         c3     12    bbb     C5    373 -0.11337700  12.010000   ; qtot 12.397357
  374         hc     12    bbb     H9    374 0.09515400   1.008000   ; qtot 12.492511
  375         hc     12    bbb    H10    375 0.09515400   1.008000   ; qtot 12.587665
  376         c3     12    bbb     C6    376 -0.11337700  12.010000   ; qtot 12.474288
  377         hc     12    bbb    H11    377 0.09515400   1.008000   ; qtot 12.569442
  378         hc     12    bbb    H12    378 0.09515400   1.008000   ; qtot 12.664596
  379         c3     12    bbb     C7    379 0.21842400  12.010000   ; qtot 12.883020
  380         h1     12    bbb    H13    380 0.04500300   1.008000   ; qtot 12.928023
  381         h1     12    bbb    H14    381 0.04500300   1.008000   ; qtot 12.973026
  382         c3     12    bbb     C8    382 -0.06455200  12.010000   ; qtot 12.908474
  383         h1     12    bbb    H15    383 0.13554100   1.008000   ; qtot 13.044015
  384         h1     12    bbb    H16    384 0.13554100   1.008000   ; qtot 13.179556
  385         c3     12    bbb     C9    385 -0.06455200  12.010000   ; qtot 13.115004
  386         h1     12    bbb    H17    386 0.13554100   1.008000   ; qtot 13.250545
  387         h1     12    bbb    H18    387 0.13554100   1.008000   ; qtot 13.386086
  388         os     12    bbb     O1    388 -0.62587700  16.000000   ; qtot 12.760209
  389         hn     12    bbb    H19    389 0.23982500   1.008000   ; qtot 13.000034
; residue   13 bbb rtp bbb q 1.0
  390         n4     13    bbb     N1    390 0.03726400  14.010000   ; qtot 13.037298
  391         c3     13    bbb     C1    391 -0.07020100  12.010000   ; qtot 12.967097
  392         hx     13    bbb     H1    392 0.12219000   1.008000   ; qtot 13.089287
  393         hx     13    bbb     H2    393 0.12219000   1.008000   ; qtot 13.211477
  394         c3     13    bbb     C2    394 -0.07020100  12.010000   ; qtot 13.141276
  395         hx     13    bbb     H3    395 0.12219000   1.008000   ; qtot 13.263466
  396         hx     13    bbb     H4    396 0.12219000   1.008000   ; qtot 13.385656
  397         c3     13    bbb     C3    397 -0.39007700  12.010000   ; qtot 12.995579
  398         hx     13    bbb     H5    398 0.14940300   1.008000   ; qtot 13.144982
  399         hx     13    bbb     H6    399 0.14940300   1.008000   ; qtot 13.294385
  400         c3     13    bbb     C4    400 0.18057300  12.010000   ; qtot 13.474958
  401         hc     13    bbb     H7    401 0.01788900   1.008000   ; qtot 13.492847
  402         hc     13    bbb     H8    402 0.01788900   1.008000   ; qtot 13.510736
  403         c3     13    bbb     C5    403 -0.11337700  12.010000   ; qtot 13.397359
  404         hc     13    bbb     H9    404 0.09515400   1.008000   ; qtot 13.492513
  405         hc     13    bbb    H10    405 0.09515400   1.008000   ; qtot 13.587667
  406         c3     13    bbb     C6    406 -0.11337700  12.010000   ; qtot 13.474290
  407         hc     13    bbb    H11    407 0.09515400   1.008000   ; qtot 13.569444
  408         hc     13    bbb    H12    408 0.09515400   1.008000   ; qtot 13.664598
  409         c3     13    bbb     C7    409 0.21842400  12.010000   ; qtot 13.883022
  410         h1     13    bbb    H13    410 0.04500300   1.008000   ; qtot 13.928025
  411         h1     13    bbb    H14    411 0.04500300   1.008000   ; qtot 13.973028
  412         c3     13    bbb     C8    412 -0.06455200  12.010000   ; qtot 13.908476
  413         h1     13    bbb    H15    413 0.13554100   1.008000   ; qtot 14.044017
  414         h1     13    bbb    H16    414 0.13554100   1.008000   ; qtot 14.179558
  415         c3     13    bbb     C9    415 -0.06455200  12.010000   ; qtot 14.115006
  416         h1     13    bbb    H17    416 0.13554100   1.008000   ; qtot 14.250547
  417         h1     13    bbb    H18    417 0.13554100   1.008000   ; qtot 14.386088
  418         os     13    bbb     O1    418 -0.62587700  16.000000   ; qtot 13.760211
  419         hn     13    bbb    H19    419 0.23982500   1.008000   ; qtot 14.000036
; residue   14 bbb rtp bbb q 1.0
  420         n4     14    bbb     N1    420 0.03726400  14.010000   ; qtot 14.037300
  421         c3     14    bbb     C1    421 -0.07020100  12.010000   ; qtot 13.967099
  422         hx     14    bbb     H1    422 0.12219000   1.008000   ; qtot 14.089289
  423         hx     14    bbb     H2    423 0.12219000   1.008000   ; qtot 14.211479
  424         c3     14    bbb     C2    424 -0.07020100  12.010000   ; qtot 14.141278
  425         hx     14    bbb     H3    425 0.12219000   1.008000   ; qtot 14.263468
  426         hx     14    bbb     H4    426 0.12219000   1.008000   ; qtot 14.385658
  427         c3     14    bbb     C3    427 -0.39007700  12.010000   ; qtot 13.995581
  428         hx     14    bbb     H5    428 0.14940300   1.008000   ; qtot 14.144984
  429         hx     14    bbb     H6    429 0.14940300   1.008000   ; qtot 14.294387
  430         c3     14    bbb     C4    430 0.18057300  12.010000   ; qtot 14.474960
  431         hc     14    bbb     H7    431 0.01788900   1.008000   ; qtot 14.492849
  432         hc     14    bbb     H8    432 0.01788900   1.008000   ; qtot 14.510738
  433         c3     14    bbb     C5    433 -0.11337700  12.010000   ; qtot 14.397361
  434         hc     14    bbb     H9    434 0.09515400   1.008000   ; qtot 14.492515
  435         hc     14    bbb    H10    435 0.09515400   1.008000   ; qtot 14.587669
  436         c3     14    bbb     C6    436 -0.11337700  12.010000   ; qtot 14.474292
  437         hc     14    bbb    H11    437 0.09515400   1.008000   ; qtot 14.569446
  438         hc     14    bbb    H12    438 0.09515400   1.008000   ; qtot 14.664600
  439         c3     14    bbb     C7    439 0.21842400  12.010000   ; qtot 14.883024
  440         h1     14    bbb    H13    440 0.04500300   1.008000   ; qtot 14.928027
  441         h1     14    bbb    H14    441 0.04500300   1.008000   ; qtot 14.973030
  442         c3     14    bbb     C8    442 -0.06455200  12.010000   ; qtot 14.908478
  443         h1     14    bbb    H15    443 0.13554100   1.008000   ; qtot 15.044019
  444         h1     14    bbb    H16    444 0.13554100   1.008000   ; qtot 15.179560
  445         c3     14    bbb     C9    445 -0.06455200  12.010000   ; qtot 15.115008
  446         h1     14    bbb    H17    446 0.13554100   1.008000   ; qtot 15.250549
  447         h1     14    bbb    H18    447 0.13554100   1.008000   ; qtot 15.386090
  448         os     14    bbb     O1    448 -0.62587700  16.000000   ; qtot 14.760213
  449         hn     14    bbb    H19    449 0.23982500   1.008000   ; qtot 15.000038
; residue   15 bbb rtp bbb q 1.0
  450         n4     15    bbb     N1    450 0.03726400  14.010000   ; qtot 15.037302
  451         c3     15    bbb     C1    451 -0.07020100  12.010000   ; qtot 14.967101
  452         hx     15    bbb     H1    452 0.12219000   1.008000   ; qtot 15.089291
  453         hx     15    bbb     H2    453 0.12219000   1.008000   ; qtot 15.211481
  454         c3     15    bbb     C2    454 -0.07020100  12.010000   ; qtot 15.141280
  455         hx     15    bbb     H3    455 0.12219000   1.008000   ; qtot 15.263470
  456         hx     15    bbb     H4    456 0.12219000   1.008000   ; qtot 15.385660
  457         c3     15    bbb     C3    457 -0.39007700  12.010000   ; qtot 14.995583
  458         hx     15    bbb     H5    458 0.14940300   1.008000   ; qtot 15.144986
  459         hx     15    bbb     H6    459 0.14940300   1.008000   ; qtot 15.294389
  460         c3     15    bbb     C4    460 0.18057300  12.010000   ; qtot 15.474962
  461         hc     15    bbb     H7    461 0.01788900   1.008000   ; qtot 15.492851
  462         hc     15    bbb     H8    462 0.01788900   1.008000   ; qtot 15.510740
  463         c3     15    bbb     C5    463 -0.11337700  12.010000   ; qtot 15.397363
  464         hc     15    bbb     H9    464 0.09515400   1.008000   ; qtot 15.492517
  465         hc     15    bbb    H10    465 0.09515400   1.008000   ; qtot 15.587671
  466         c3     15    bbb     C6    466 -0.11337700  12.010000   ; qtot 15.474294
  467         hc     15    bbb    H11    467 0.09515400   1.008000   ; qtot 15.569448
  468         hc     15    bbb    H12    468 0.09515400   1.008000   ; qtot 15.664602
  469         c3     15    bbb     C7    469 0.21842400  12.010000   ; qtot 15.883026
  470         h1     15    bbb    H13    470 0.04500300   1.008000   ; qtot 15.928029
  471         h1     15    bbb    H14    471 0.04500300   1.008000   ; qtot 15.973032
  472         c3     15    bbb     C8    472 -0.06455200  12.010000   ; qtot 15.908480
  473         h1     15    bbb    H15    473 0.13554100   1.008000   ; qtot 16.044021
  474         h1     15    bbb    H16    474 0.13554100   1.008000   ; qtot 16.179562
  475         c3     15    bbb     C9    475 -0.06455200  12.010000   ; qtot 16.115010
  476         h1     15    bbb    H17    476 0.13554100   1.008000   ; qtot 16.250551
  477         h1     15    bbb    H18    477 0.13554100   1.008000   ; qtot 16.386092
  478         os     15    bbb     O1    478 -0.62587700  16.000000   ; qtot 15.760215
  479         hn     15    bbb    H19    479 0.23982500   1.008000   ; qtot 16.000040
; residue   16 bbb rtp bbb q 1.0
  480         n4     16    bbb     N1    480 0.03726400  14.010000   ; qtot 16.037304
  481         c3     16    bbb     C1    481 -0.07020100  12.010000   ; qtot 15.967103
  482         hx     16    bbb     H1    482 0.12219000   1.008000   ; qtot 16.089293
  483         hx     16    bbb     H2    483 0.12219000   1.008000   ; qtot 16.211483
  484         c3     16    bbb     C2    484 -0.07020100  12.010000   ; qtot 16.141282
  485         hx     16    bbb     H3    485 0.12219000   1.008000   ; qtot 16.263472
  486         hx     16    bbb     H4    486 0.12219000   1.008000   ; qtot 16.385662
  487         c3     16    bbb     C3    487 -0.39007700  12.010000   ; qtot 15.995585
  488         hx     16    bbb     H5    488 0.14940300   1.008000   ; qtot 16.144988
  489         hx     16    bbb     H6    489 0.14940300   1.008000   ; qtot 16.294391
  490         c3     16    bbb     C4    490 0.18057300  12.010000   ; qtot 16.474964
  491         hc     16    bbb     H7    491 0.01788900   1.008000   ; qtot 16.492853
  492         hc     16    bbb     H8    492 0.01788900   1.008000   ; qtot 16.510742
  493         c3     16    bbb     C5    493 -0.11337700  12.010000   ; qtot 16.397365
  494         hc     16    bbb     H9    494 0.09515400   1.008000   ; qtot 16.492519
  495         hc     16    bbb    H10    495 0.09515400   1.008000   ; qtot 16.587673
  496         c3     16    bbb     C6    496 -0.11337700  12.010000   ; qtot 16.474296
  497         hc     16    bbb    H11    497 0.09515400   1.008000   ; qtot 16.569450
  498         hc     16    bbb    H12    498 0.09515400   1.008000   ; qtot 16.664604
  499         c3     16    bbb     C7    499 0.21842400  12.010000   ; qtot 16.883028
  500         h1     16    bbb    H13    500 0.04500300   1.008000   ; qtot 16.928031
  501         h1     16    bbb    H14    501 0.04500300   1.008000   ; qtot 16.973034
  502         c3     16    bbb     C8    502 -0.06455200  12.010000   ; qtot 16.908482
  503         h1     16    bbb    H15    503 0.13554100   1.008000   ; qtot 17.044023
  504         h1     16    bbb    H16    504 0.13554100   1.008000   ; qtot 17.179564
  505         c3     16    bbb     C9    505 -0.06455200  12.010000   ; qtot 17.115012
  506         h1     16    bbb    H17    506 0.13554100   1.008000   ; qtot 17.250553
  507         h1     16    bbb    H18    507 0.13554100   1.008000   ; qtot 17.386094
  508         os     16    bbb     O1    508 -0.62587700  16.000000   ; qtot 16.760217
  509         hn     16    bbb    H19    509 0.23982500   1.008000   ; qtot 17.000042
; residue   17 bbb rtp bbb q 1.0
  510         n4     17    bbb     N1    510 0.03726400  14.010000   ; qtot 17.037306
  511         c3     17    bbb     C1    511 -0.07020100  12.010000   ; qtot 16.967105
  512         hx     17    bbb     H1    512 0.12219000   1.008000   ; qtot 17.089295
  513         hx     17    bbb     H2    513 0.12219000   1.008000   ; qtot 17.211485
  514         c3     17    bbb     C2    514 -0.07020100  12.010000   ; qtot 17.141284
  515         hx     17    bbb     H3    515 0.12219000   1.008000   ; qtot 17.263474
  516         hx     17    bbb     H4    516 0.12219000   1.008000   ; qtot 17.385664
  517         c3     17    bbb     C3    517 -0.39007700  12.010000   ; qtot 16.995587
  518         hx     17    bbb     H5    518 0.14940300   1.008000   ; qtot 17.144990
  519         hx     17    bbb     H6    519 0.14940300   1.008000   ; qtot 17.294393
  520         c3     17    bbb     C4    520 0.18057300  12.010000   ; qtot 17.474966
  521         hc     17    bbb     H7    521 0.01788900   1.008000   ; qtot 17.492855
  522         hc     17    bbb     H8    522 0.01788900   1.008000   ; qtot 17.510744
  523         c3     17    bbb     C5    523 -0.11337700  12.010000   ; qtot 17.397367
  524         hc     17    bbb     H9    524 0.09515400   1.008000   ; qtot 17.492521
  525         hc     17    bbb    H10    525 0.09515400   1.008000   ; qtot 17.587675
  526         c3     17    bbb     C6    526 -0.11337700  12.010000   ; qtot 17.474298
  527         hc     17    bbb    H11    527 0.09515400   1.008000   ; qtot 17.569452
  528         hc     17    bbb    H12    528 0.09515400   1.008000   ; qtot 17.664606
  529         c3     17    bbb     C7    529 0.21842400  12.010000   ; qtot 17.883030
  530         h1     17    bbb    H13    530 0.04500300   1.008000   ; qtot 17.928033
  531         h1     17    bbb    H14    531 0.04500300   1.008000   ; qtot 17.973036
  532         c3     17    bbb     C8    532 -0.06455200  12.010000   ; qtot 17.908484
  533         h1     17    bbb    H15    533 0.13554100   1.008000   ; qtot 18.044025
  534         h1     17    bbb    H16    534 0.13554100   1.008000   ; qtot 18.179566
  535         c3     17    bbb     C9    535 -0.06455200  12.010000   ; qtot 18.115014
  536         h1     17    bbb    H17    536 0.13554100   1.008000   ; qtot 18.250555
  537         h1     17    bbb    H18    537 0.13554100   1.008000   ; qtot 18.386096
  538         os     17    bbb     O1    538 -0.62587700  16.000000   ; qtot 17.760219
  539         hn     17    bbb    H19    539 0.23982500   1.008000   ; qtot 18.000044
; residue   18 bbb rtp bbb q 1.0
  540         n4     18    bbb     N1    540 0.03726400  14.010000   ; qtot 18.037308
  541         c3     18    bbb     C1    541 -0.07020100  12.010000   ; qtot 17.967107
  542         hx     18    bbb     H1    542 0.12219000   1.008000   ; qtot 18.089297
  543         hx     18    bbb     H2    543 0.12219000   1.008000   ; qtot 18.211487
  544         c3     18    bbb     C2    544 -0.07020100  12.010000   ; qtot 18.141286
  545         hx     18    bbb     H3    545 0.12219000   1.008000   ; qtot 18.263476
  546         hx     18    bbb     H4    546 0.12219000   1.008000   ; qtot 18.385666
  547         c3     18    bbb     C3    547 -0.39007700  12.010000   ; qtot 17.995589
  548         hx     18    bbb     H5    548 0.14940300   1.008000   ; qtot 18.144992
  549         hx     18    bbb     H6    549 0.14940300   1.008000   ; qtot 18.294395
  550         c3     18    bbb     C4    550 0.18057300  12.010000   ; qtot 18.474968
  551         hc     18    bbb     H7    551 0.01788900   1.008000   ; qtot 18.492857
  552         hc     18    bbb     H8    552 0.01788900   1.008000   ; qtot 18.510746
  553         c3     18    bbb     C5    553 -0.11337700  12.010000   ; qtot 18.397369
  554         hc     18    bbb     H9    554 0.09515400   1.008000   ; qtot 18.492523
  555         hc     18    bbb    H10    555 0.09515400   1.008000   ; qtot 18.587677
  556         c3     18    bbb     C6    556 -0.11337700  12.010000   ; qtot 18.474300
  557         hc     18    bbb    H11    557 0.09515400   1.008000   ; qtot 18.569454
  558         hc     18    bbb    H12    558 0.09515400   1.008000   ; qtot 18.664608
  559         c3     18    bbb     C7    559 0.21842400  12.010000   ; qtot 18.883032
  560         h1     18    bbb    H13    560 0.04500300   1.008000   ; qtot 18.928035
  561         h1     18    bbb    H14    561 0.04500300   1.008000   ; qtot 18.973038
  562         c3     18    bbb     C8    562 -0.06455200  12.010000   ; qtot 18.908486
  563         h1     18    bbb    H15    563 0.13554100   1.008000   ; qtot 19.044027
  564         h1     18    bbb    H16    564 0.13554100   1.008000   ; qtot 19.179568
  565         c3     18    bbb     C9    565 -0.06455200  12.010000   ; qtot 19.115016
  566         h1     18    bbb    H17    566 0.13554100   1.008000   ; qtot 19.250557
  567         h1     18    bbb    H18    567 0.13554100   1.008000   ; qtot 19.386098
  568         os     18    bbb     O1    568 -0.62587700  16.000000   ; qtot 18.760221
  569         hn     18    bbb    H19    569 0.23982500   1.008000   ; qtot 19.000046
; residue   19 bbb rtp bbb q 1.0
  570         n4     19    bbb     N1    570 0.03726400  14.010000   ; qtot 19.037310
  571         c3     19    bbb     C1    571 -0.07020100  12.010000   ; qtot 18.967109
  572         hx     19    bbb     H1    572 0.12219000   1.008000   ; qtot 19.089299
  573         hx     19    bbb     H2    573 0.12219000   1.008000   ; qtot 19.211489
  574         c3     19    bbb     C2    574 -0.07020100  12.010000   ; qtot 19.141288
  575         hx     19    bbb     H3    575 0.12219000   1.008000   ; qtot 19.263478
  576         hx     19    bbb     H4    576 0.12219000   1.008000   ; qtot 19.385668
  577         c3     19    bbb     C3    577 -0.39007700  12.010000   ; qtot 18.995591
  578         hx     19    bbb     H5    578 0.14940300   1.008000   ; qtot 19.144994
  579         hx     19    bbb     H6    579 0.14940300   1.008000   ; qtot 19.294397
  580         c3     19    bbb     C4    580 0.18057300  12.010000   ; qtot 19.474970
  581         hc     19    bbb     H7    581 0.01788900   1.008000   ; qtot 19.492859
  582         hc     19    bbb     H8    582 0.01788900   1.008000   ; qtot 19.510748
  583         c3     19    bbb     C5    583 -0.11337700  12.010000   ; qtot 19.397371
  584         hc     19    bbb     H9    584 0.09515400   1.008000   ; qtot 19.492525
  585         hc     19    bbb    H10    585 0.09515400   1.008000   ; qtot 19.587679
  586         c3     19    bbb     C6    586 -0.11337700  12.010000   ; qtot 19.474302
  587         hc     19    bbb    H11    587 0.09515400   1.008000   ; qtot 19.569456
  588         hc     19    bbb    H12    588 0.09515400   1.008000   ; qtot 19.664610
  589         c3     19    bbb     C7    589 0.21842400  12.010000   ; qtot 19.883034
  590         h1     19    bbb    H13    590 0.04500300   1.008000   ; qtot 19.928037
  591         h1     19    bbb    H14    591 0.04500300   1.008000   ; qtot 19.973040
  592         c3     19    bbb     C8    592 -0.06455200  12.010000   ; qtot 19.908488
  593         h1     19    bbb    H15    593 0.13554100   1.008000   ; qtot 20.044029
  594         h1     19    bbb    H16    594 0.13554100   1.008000   ; qtot 20.179570
  595         c3     19    bbb     C9    595 -0.06455200  12.010000   ; qtot 20.115018
  596         h1     19    bbb    H17    596 0.13554100   1.008000   ; qtot 20.250559
  597         h1     19    bbb    H18    597 0.13554100   1.008000   ; qtot 20.386100
  598         os     19    bbb     O1    598 -0.62587700  16.000000   ; qtot 19.760223
  599         hn     19    bbb    H19    599 0.23982500   1.008000   ; qtot 20.000048
; residue   20 bbb rtp bbb q 1.0
  600         n4     20    bbb     N1    600 0.03726400  14.010000   ; qtot 20.037312
  601         c3     20    bbb     C1    601 -0.07020100  12.010000   ; qtot 19.967111
  602         hx     20    bbb     H1    602 0.12219000   1.008000   ; qtot 20.089301
  603         hx     20    bbb     H2    603 0.12219000   1.008000   ; qtot 20.211491
  604         c3     20    bbb     C2    604 -0.07020100  12.010000   ; qtot 20.141290
  605         hx     20    bbb     H3    605 0.12219000   1.008000   ; qtot 20.263480
  606         hx     20    bbb     H4    606 0.12219000   1.008000   ; qtot 20.385670
  607         c3     20    bbb     C3    607 -0.39007700  12.010000   ; qtot 19.995593
  608         hx     20    bbb     H5    608 0.14940300   1.008000   ; qtot 20.144996
  609         hx     20    bbb     H6    609 0.14940300   1.008000   ; qtot 20.294399
  610         c3     20    bbb     C4    610 0.18057300  12.010000   ; qtot 20.474972
  611         hc     20    bbb     H7    611 0.01788900   1.008000   ; qtot 20.492861
  612         hc     20    bbb     H8    612 0.01788900   1.008000   ; qtot 20.510750
  613         c3     20    bbb     C5    613 -0.11337700  12.010000   ; qtot 20.397373
  614         hc     20    bbb     H9    614 0.09515400   1.008000   ; qtot 20.492527
  615         hc     20    bbb    H10    615 0.09515400   1.008000   ; qtot 20.587681
  616         c3     20    bbb     C6    616 -0.11337700  12.010000   ; qtot 20.474304
  617         hc     20    bbb    H11    617 0.09515400   1.008000   ; qtot 20.569458
  618         hc     20    bbb    H12    618 0.09515400   1.008000   ; qtot 20.664612
  619         c3     20    bbb     C7    619 0.21842400  12.010000   ; qtot 20.883036
  620         h1     20    bbb    H13    620 0.04500300   1.008000   ; qtot 20.928039
  621         h1     20    bbb    H14    621 0.04500300   1.008000   ; qtot 20.973042
  622         c3     20    bbb     C8    622 -0.06455200  12.010000   ; qtot 20.908490
  623         h1     20    bbb    H15    623 0.13554100   1.008000   ; qtot 21.044031
  624         h1     20    bbb    H16    624 0.13554100   1.008000   ; qtot 21.179572
  625         c3     20    bbb     C9    625 -0.06455200  12.010000   ; qtot 21.115020
  626         h1     20    bbb    H17    626 0.13554100   1.008000   ; qtot 21.250561
  627         h1     20    bbb    H18    627 0.13554100   1.008000   ; qtot 21.386102
  628         os     20    bbb     O1    628 -0.62587700  16.000000   ; qtot 20.760225
  629         hn     20    bbb    H19    629 0.23982500   1.008000   ; qtot 21.000050
; residue   21 bbb rtp bbb q 1.0
  630         n4     21    bbb     N1    630 0.03726400  14.010000   ; qtot 21.037314
  631         c3     21    bbb     C1    631 -0.07020100  12.010000   ; qtot 20.967113
  632         hx     21    bbb     H1    632 0.12219000   1.008000   ; qtot 21.089303
  633         hx     21    bbb     H2    633 0.12219000   1.008000   ; qtot 21.211493
  634         c3     21    bbb     C2    634 -0.07020100  12.010000   ; qtot 21.141292
  635         hx     21    bbb     H3    635 0.12219000   1.008000   ; qtot 21.263482
  636         hx     21    bbb     H4    636 0.12219000   1.008000   ; qtot 21.385672
  637         c3     21    bbb     C3    637 -0.39007700  12.010000   ; qtot 20.995595
  638         hx     21    bbb     H5    638 0.14940300   1.008000   ; qtot 21.144998
  639         hx     21    bbb     H6    639 0.14940300   1.008000   ; qtot 21.294401
  640         c3     21    bbb     C4    640 0.18057300  12.010000   ; qtot 21.474974
  641         hc     21    bbb     H7    641 0.01788900   1.008000   ; qtot 21.492863
  642         hc     21    bbb     H8    642 0.01788900   1.008000   ; qtot 21.510752
  643         c3     21    bbb     C5    643 -0.11337700  12.010000   ; qtot 21.397375
  644         hc     21    bbb     H9    644 0.09515400   1.008000   ; qtot 21.492529
  645         hc     21    bbb    H10    645 0.09515400   1.008000   ; qtot 21.587683
  646         c3     21    bbb     C6    646 -0.11337700  12.010000   ; qtot 21.474306
  647         hc     21    bbb    H11    647 0.09515400   1.008000   ; qtot 21.569460
  648         hc     21    bbb    H12    648 0.09515400   1.008000   ; qtot 21.664614
  649         c3     21    bbb     C7    649 0.21842400  12.010000   ; qtot 21.883038
  650         h1     21    bbb    H13    650 0.04500300   1.008000   ; qtot 21.928041
  651         h1     21    bbb    H14    651 0.04500300   1.008000   ; qtot 21.973044
  652         c3     21    bbb     C8    652 -0.06455200  12.010000   ; qtot 21.908492
  653         h1     21    bbb    H15    653 0.13554100   1.008000   ; qtot 22.044033
  654         h1     21    bbb    H16    654 0.13554100   1.008000   ; qtot 22.179574
  655         c3     21    bbb     C9    655 -0.06455200  12.010000   ; qtot 22.115022
  656         h1     21    bbb    H17    656 0.13554100   1.008000   ; qtot 22.250563
  657         h1     21    bbb    H18    657 0.13554100   1.008000   ; qtot 22.386104
  658         os     21    bbb     O1    658 -0.62587700  16.000000   ; qtot 21.760227
  659         hn     21    bbb    H19    659 0.23982500   1.008000   ; qtot 22.000052
; residue   22 bbb rtp bbb q 1.0
  660         n4     22    bbb     N1    660 0.03726400  14.010000   ; qtot 22.037316
  661         c3     22    bbb     C1    661 -0.07020100  12.010000   ; qtot 21.967115
  662         hx     22    bbb     H1    662 0.12219000   1.008000   ; qtot 22.089305
  663         hx     22    bbb     H2    663 0.12219000   1.008000   ; qtot 22.211495
  664         c3     22    bbb     C2    664 -0.07020100  12.010000   ; qtot 22.141294
  665         hx     22    bbb     H3    665 0.12219000   1.008000   ; qtot 22.263484
  666         hx     22    bbb     H4    666 0.12219000   1.008000   ; qtot 22.385674
  667         c3     22    bbb     C3    667 -0.39007700  12.010000   ; qtot 21.995597
  668         hx     22    bbb     H5    668 0.14940300   1.008000   ; qtot 22.145000
  669         hx     22    bbb     H6    669 0.14940300   1.008000   ; qtot 22.294403
  670         c3     22    bbb     C4    670 0.18057300  12.010000   ; qtot 22.474976
  671         hc     22    bbb     H7    671 0.01788900   1.008000   ; qtot 22.492865
  672         hc     22    bbb     H8    672 0.01788900   1.008000   ; qtot 22.510754
  673         c3     22    bbb     C5    673 -0.11337700  12.010000   ; qtot 22.397377
  674         hc     22    bbb     H9    674 0.09515400   1.008000   ; qtot 22.492531
  675         hc     22    bbb    H10    675 0.09515400   1.008000   ; qtot 22.587685
  676         c3     22    bbb     C6    676 -0.11337700  12.010000   ; qtot 22.474308
  677         hc     22    bbb    H11    677 0.09515400   1.008000   ; qtot 22.569462
  678         hc     22    bbb    H12    678 0.09515400   1.008000   ; qtot 22.664616
  679         c3     22    bbb     C7    679 0.21842400  12.010000   ; qtot 22.883040
  680         h1     22    bbb    H13    680 0.04500300   1.008000   ; qtot 22.928043
  681         h1     22    bbb    H14    681 0.04500300   1.008000   ; qtot 22.973046
  682         c3     22    bbb     C8    682 -0.06455200  12.010000   ; qtot 22.908494
  683         h1     22    bbb    H15    683 0.13554100   1.008000   ; qtot 23.044035
  684         h1     22    bbb    H16    684 0.13554100   1.008000   ; qtot 23.179576
  685         c3     22    bbb     C9    685 -0.06455200  12.010000   ; qtot 23.115024
  686         h1     22    bbb    H17    686 0.13554100   1.008000   ; qtot 23.250565
  687         h1     22    bbb    H18    687 0.13554100   1.008000   ; qtot 23.386106
  688         os     22    bbb     O1    688 -0.62587700  16.000000   ; qtot 22.760229
  689         hn     22    bbb    H19    689 0.23982500   1.008000   ; qtot 23.000054
; residue   23 bbb rtp bbb q 1.0
  690         n4     23    bbb     N1    690 0.03726400  14.010000   ; qtot 23.037318
  691         c3     23    bbb     C1    691 -0.07020100  12.010000   ; qtot 22.967117
  692         hx     23    bbb     H1    692 0.12219000   1.008000   ; qtot 23.089307
  693         hx     23    bbb     H2    693 0.12219000   1.008000   ; qtot 23.211497
  694         c3     23    bbb     C2    694 -0.07020100  12.010000   ; qtot 23.141296
  695         hx     23    bbb     H3    695 0.12219000   1.008000   ; qtot 23.263486
  696         hx     23    bbb     H4    696 0.12219000   1.008000   ; qtot 23.385676
  697         c3     23    bbb     C3    697 -0.39007700  12.010000   ; qtot 22.995599
  698         hx     23    bbb     H5    698 0.14940300   1.008000   ; qtot 23.145002
  699         hx     23    bbb     H6    699 0.14940300   1.008000   ; qtot 23.294405
  700         c3     23    bbb     C4    700 0.18057300  12.010000   ; qtot 23.474978
  701         hc     23    bbb     H7    701 0.01788900   1.008000   ; qtot 23.492867
  702         hc     23    bbb     H8    702 0.01788900   1.008000   ; qtot 23.510756
  703         c3     23    bbb     C5    703 -0.11337700  12.010000   ; qtot 23.397379
  704         hc     23    bbb     H9    704 0.09515400   1.008000   ; qtot 23.492533
  705         hc     23    bbb    H10    705 0.09515400   1.008000   ; qtot 23.587687
  706         c3     23    bbb     C6    706 -0.11337700  12.010000   ; qtot 23.474310
  707         hc     23    bbb    H11    707 0.09515400   1.008000   ; qtot 23.569464
  708         hc     23    bbb    H12    708 0.09515400   1.008000   ; qtot 23.664618
  709         c3     23    bbb     C7    709 0.21842400  12.010000   ; qtot 23.883042
  710         h1     23    bbb    H13    710 0.04500300   1.008000   ; qtot 23.928045
  711         h1     23    bbb    H14    711 0.04500300   1.008000   ; qtot 23.973048
  712         c3     23    bbb     C8    712 -0.06455200  12.010000   ; qtot 23.908496
  713         h1     23    bbb    H15    713 0.13554100   1.008000   ; qtot 24.044037
  714         h1     23    bbb    H16    714 0.13554100   1.008000   ; qtot 24.179578
  715         c3     23    bbb     C9    715 -0.06455200  12.010000   ; qtot 24.115026
  716         h1     23    bbb    H17    716 0.13554100   1.008000   ; qtot 24.250567
  717         h1     23    bbb    H18    717 0.13554100   1.008000   ; qtot 24.386108
  718         os     23    bbb     O1    718 -0.62587700  16.000000   ; qtot 23.760231
  719         hn     23    bbb    H19    719 0.23982500   1.008000   ; qtot 24.000056
; residue   24 bbb rtp bbb q 1.0
  720         n4     24    bbb     N1    720 0.03726400  14.010000   ; qtot 24.037320
  721         c3     24    bbb     C1    721 -0.07020100  12.010000   ; qtot 23.967119
  722         hx     24    bbb     H1    722 0.12219000   1.008000   ; qtot 24.089309
  723         hx     24    bbb     H2    723 0.12219000   1.008000   ; qtot 24.211499
  724         c3     24    bbb     C2    724 -0.07020100  12.010000   ; qtot 24.141298
  725         hx     24    bbb     H3    725 0.12219000   1.008000   ; qtot 24.263488
  726         hx     24    bbb     H4    726 0.12219000   1.008000   ; qtot 24.385678
  727         c3     24    bbb     C3    727 -0.39007700  12.010000   ; qtot 23.995601
  728         hx     24    bbb     H5    728 0.14940300   1.008000   ; qtot 24.145004
  729         hx     24    bbb     H6    729 0.14940300   1.008000   ; qtot 24.294407
  730         c3     24    bbb     C4    730 0.18057300  12.010000   ; qtot 24.474980
  731         hc     24    bbb     H7    731 0.01788900   1.008000   ; qtot 24.492869
  732         hc     24    bbb     H8    732 0.01788900   1.008000   ; qtot 24.510758
  733         c3     24    bbb     C5    733 -0.11337700  12.010000   ; qtot 24.397381
  734         hc     24    bbb     H9    734 0.09515400   1.008000   ; qtot 24.492535
  735         hc     24    bbb    H10    735 0.09515400   1.008000   ; qtot 24.587689
  736         c3     24    bbb     C6    736 -0.11337700  12.010000   ; qtot 24.474312
  737         hc     24    bbb    H11    737 0.09515400   1.008000   ; qtot 24.569466
  738         hc     24    bbb    H12    738 0.09515400   1.008000   ; qtot 24.664620
  739         c3     24    bbb     C7    739 0.21842400  12.010000   ; qtot 24.883044
  740         h1     24    bbb    H13    740 0.04500300   1.008000   ; qtot 24.928047
  741         h1     24    bbb    H14    741 0.04500300   1.008000   ; qtot 24.973050
  742         c3     24    bbb     C8    742 -0.06455200  12.010000   ; qtot 24.908498
  743         h1     24    bbb    H15    743 0.13554100   1.008000   ; qtot 25.044039
  744         h1     24    bbb    H16    744 0.13554100   1.008000   ; qtot 25.179580
  745         c3     24    bbb     C9    745 -0.06455200  12.010000   ; qtot 25.115028
  746         h1     24    bbb    H17    746 0.13554100   1.008000   ; qtot 25.250569
  747         h1     24    bbb    H18    747 0.13554100   1.008000   ; qtot 25.386110
  748         os     24    bbb     O1    748 -0.62587700  16.000000   ; qtot 24.760233
  749         hn     24    bbb    H19    749 0.23982500   1.008000   ; qtot 25.000058
; residue   25 bbb rtp bbb q 1.0
  750         n4     25    bbb     N1    750 0.03726400  14.010000   ; qtot 25.037322
  751         c3     25    bbb     C1    751 -0.07020100  12.010000   ; qtot 24.967121
  752         hx     25    bbb     H1    752 0.12219000   1.008000   ; qtot 25.089311
  753         hx     25    bbb     H2    753 0.12219000   1.008000   ; qtot 25.211501
  754         c3     25    bbb     C2    754 -0.07020100  12.010000   ; qtot 25.141300
  755         hx     25    bbb     H3    755 0.12219000   1.008000   ; qtot 25.263490
  756         hx     25    bbb     H4    756 0.12219000   1.008000   ; qtot 25.385680
  757         c3     25    bbb     C3    757 -0.39007700  12.010000   ; qtot 24.995603
  758         hx     25    bbb     H5    758 0.14940300   1.008000   ; qtot 25.145006
  759         hx     25    bbb     H6    759 0.14940300   1.008000   ; qtot 25.294409
  760         c3     25    bbb     C4    760 0.18057300  12.010000   ; qtot 25.474982
  761         hc     25    bbb     H7    761 0.01788900   1.008000   ; qtot 25.492871
  762         hc     25    bbb     H8    762 0.01788900   1.008000   ; qtot 25.510760
  763         c3     25    bbb     C5    763 -0.11337700  12.010000   ; qtot 25.397383
  764         hc     25    bbb     H9    764 0.09515400   1.008000   ; qtot 25.492537
  765         hc     25    bbb    H10    765 0.09515400   1.008000   ; qtot 25.587691
  766         c3     25    bbb     C6    766 -0.11337700  12.010000   ; qtot 25.474314
  767         hc     25    bbb    H11    767 0.09515400   1.008000   ; qtot 25.569468
  768         hc     25    bbb    H12    768 0.09515400   1.008000   ; qtot 25.664622
  769         c3     25    bbb     C7    769 0.21842400  12.010000   ; qtot 25.883046
  770         h1     25    bbb    H13    770 0.04500300   1.008000   ; qtot 25.928049
  771         h1     25    bbb    H14    771 0.04500300   1.008000   ; qtot 25.973052
  772         c3     25    bbb     C8    772 -0.06455200  12.010000   ; qtot 25.908500
  773         h1     25    bbb    H15    773 0.13554100   1.008000   ; qtot 26.044041
  774         h1     25    bbb    H16    774 0.13554100   1.008000   ; qtot 26.179582
  775         c3     25    bbb     C9    775 -0.06455200  12.010000   ; qtot 26.115030
  776         h1     25    bbb    H17    776 0.13554100   1.008000   ; qtot 26.250571
  777         h1     25    bbb    H18    777 0.13554100   1.008000   ; qtot 26.386112
  778         os     25    bbb     O1    778 -0.62587700  16.000000   ; qtot 25.760235
  779         hn     25    bbb    H19    779 0.23982500   1.008000   ; qtot 26.000060
; residue   26 bbb rtp bbb q 1.0
  780         n4     26    bbb     N1    780 0.03726400  14.010000   ; qtot 26.037324
  781         c3     26    bbb     C1    781 -0.07020100  12.010000   ; qtot 25.967123
  782         hx     26    bbb     H1    782 0.12219000   1.008000   ; qtot 26.089313
  783         hx     26    bbb     H2    783 0.12219000   1.008000   ; qtot 26.211503
  784         c3     26    bbb     C2    784 -0.07020100  12.010000   ; qtot 26.141302
  785         hx     26    bbb     H3    785 0.12219000   1.008000   ; qtot 26.263492
  786         hx     26    bbb     H4    786 0.12219000   1.008000   ; qtot 26.385682
  787         c3     26    bbb     C3    787 -0.39007700  12.010000   ; qtot 25.995605
  788         hx     26    bbb     H5    788 0.14940300   1.008000   ; qtot 26.145008
  789         hx     26    bbb     H6    789 0.14940300   1.008000   ; qtot 26.294411
  790         c3     26    bbb     C4    790 0.18057300  12.010000   ; qtot 26.474984
  791         hc     26    bbb     H7    791 0.01788900   1.008000   ; qtot 26.492873
  792         hc     26    bbb     H8    792 0.01788900   1.008000   ; qtot 26.510762
  793         c3     26    bbb     C5    793 -0.11337700  12.010000   ; qtot 26.397385
  794         hc     26    bbb     H9    794 0.09515400   1.008000   ; qtot 26.492539
  795         hc     26    bbb    H10    795 0.09515400   1.008000   ; qtot 26.587693
  796         c3     26    bbb     C6    796 -0.11337700  12.010000   ; qtot 26.474316
  797         hc     26    bbb    H11    797 0.09515400   1.008000   ; qtot 26.569470
  798         hc     26    bbb    H12    798 0.09515400   1.008000   ; qtot 26.664624
  799         c3     26    bbb     C7    799 0.21842400  12.010000   ; qtot 26.883048
  800         h1     26    bbb    H13    800 0.04500300   1.008000   ; qtot 26.928051
  801         h1     26    bbb    H14    801 0.04500300   1.008000   ; qtot 26.973054
  802         c3     26    bbb     C8    802 -0.06455200  12.010000   ; qtot 26.908502
  803         h1     26    bbb    H15    803 0.13554100   1.008000   ; qtot 27.044043
  804         h1     26    bbb    H16    804 0.13554100   1.008000   ; qtot 27.179584
  805         c3     26    bbb     C9    805 -0.06455200  12.010000   ; qtot 27.115032
  806         h1     26    bbb    H17    806 0.13554100   1.008000   ; qtot 27.250573
  807         h1     26    bbb    H18    807 0.13554100   1.008000   ; qtot 27.386114
  808         os     26    bbb     O1    808 -0.62587700  16.000000   ; qtot 26.760237
  809         hn     26    bbb    H19    809 0.23982500   1.008000   ; qtot 27.000062
; residue   27 bbb rtp bbb q 1.0
  810         n4     27    bbb     N1    810 0.03726400  14.010000   ; qtot 27.037326
  811         c3     27    bbb     C1    811 -0.07020100  12.010000   ; qtot 26.967125
  812         hx     27    bbb     H1    812 0.12219000   1.008000   ; qtot 27.089315
  813         hx     27    bbb     H2    813 0.12219000   1.008000   ; qtot 27.211505
  814         c3     27    bbb     C2    814 -0.07020100  12.010000   ; qtot 27.141304
  815         hx     27    bbb     H3    815 0.12219000   1.008000   ; qtot 27.263494
  816         hx     27    bbb     H4    816 0.12219000   1.008000   ; qtot 27.385684
  817         c3     27    bbb     C3    817 -0.39007700  12.010000   ; qtot 26.995607
  818         hx     27    bbb     H5    818 0.14940300   1.008000   ; qtot 27.145010
  819         hx     27    bbb     H6    819 0.14940300   1.008000   ; qtot 27.294413
  820         c3     27    bbb     C4    820 0.18057300  12.010000   ; qtot 27.474986
  821         hc     27    bbb     H7    821 0.01788900   1.008000   ; qtot 27.492875
  822         hc     27    bbb     H8    822 0.01788900   1.008000   ; qtot 27.510764
  823         c3     27    bbb     C5    823 -0.11337700  12.010000   ; qtot 27.397387
  824         hc     27    bbb     H9    824 0.09515400   1.008000   ; qtot 27.492541
  825         hc     27    bbb    H10    825 0.09515400   1.008000   ; qtot 27.587695
  826         c3     27    bbb     C6    826 -0.11337700  12.010000   ; qtot 27.474318
  827         hc     27    bbb    H11    827 0.09515400   1.008000   ; qtot 27.569472
  828         hc     27    bbb    H12    828 0.09515400   1.008000   ; qtot 27.664626
  829         c3     27    bbb     C7    829 0.21842400  12.010000   ; qtot 27.883050
  830         h1     27    bbb    H13    830 0.04500300   1.008000   ; qtot 27.928053
  831         h1     27    bbb    H14    831 0.04500300   1.008000   ; qtot 27.973056
  832         c3     27    bbb     C8    832 -0.06455200  12.010000   ; qtot 27.908504
  833         h1     27    bbb    H15    833 0.13554100   1.008000   ; qtot 28.044045
  834         h1     27    bbb    H16    834 0.13554100   1.008000   ; qtot 28.179586
  835         c3     27    bbb     C9    835 -0.06455200  12.010000   ; qtot 28.115034
  836         h1     27    bbb    H17    836 0.13554100   1.008000   ; qtot 28.250575
  837         h1     27    bbb    H18    837 0.13554100   1.008000   ; qtot 28.386116
  838         os     27    bbb     O1    838 -0.62587700  16.000000   ; qtot 27.760239
  839         hn     27    bbb    H19    839 0.23982500   1.008000   ; qtot 28.000064
; residue   28 bbb rtp bbb q 1.0
  840         n4     28    bbb     N1    840 0.03726400  14.010000   ; qtot 28.037328
  841         c3     28    bbb     C1    841 -0.07020100  12.010000   ; qtot 27.967127
  842         hx     28    bbb     H1    842 0.12219000   1.008000   ; qtot 28.089317
  843         hx     28    bbb     H2    843 0.12219000   1.008000   ; qtot 28.211507
  844         c3     28    bbb     C2    844 -0.07020100  12.010000   ; qtot 28.141306
  845         hx     28    bbb     H3    845 0.12219000   1.008000   ; qtot 28.263496
  846         hx     28    bbb     H4    846 0.12219000   1.008000   ; qtot 28.385686
  847         c3     28    bbb     C3    847 -0.39007700  12.010000   ; qtot 27.995609
  848         hx     28    bbb     H5    848 0.14940300   1.008000   ; qtot 28.145012
  849         hx     28    bbb     H6    849 0.14940300   1.008000   ; qtot 28.294415
  850         c3     28    bbb     C4    850 0.18057300  12.010000   ; qtot 28.474988
  851         hc     28    bbb     H7    851 0.01788900   1.008000   ; qtot 28.492877
  852         hc     28    bbb     H8    852 0.01788900   1.008000   ; qtot 28.510766
  853         c3     28    bbb     C5    853 -0.11337700  12.010000   ; qtot 28.397389
  854         hc     28    bbb     H9    854 0.09515400   1.008000   ; qtot 28.492543
  855         hc     28    bbb    H10    855 0.09515400   1.008000   ; qtot 28.587697
  856         c3     28    bbb     C6    856 -0.11337700  12.010000   ; qtot 28.474320
  857         hc     28    bbb    H11    857 0.09515400   1.008000   ; qtot 28.569474
  858         hc     28    bbb    H12    858 0.09515400   1.008000   ; qtot 28.664628
  859         c3     28    bbb     C7    859 0.21842400  12.010000   ; qtot 28.883052
  860         h1     28    bbb    H13    860 0.04500300   1.008000   ; qtot 28.928055
  861         h1     28    bbb    H14    861 0.04500300   1.008000   ; qtot 28.973058
  862         c3     28    bbb     C8    862 -0.06455200  12.010000   ; qtot 28.908506
  863         h1     28    bbb    H15    863 0.13554100   1.008000   ; qtot 29.044047
  864         h1     28    bbb    H16    864 0.13554100   1.008000   ; qtot 29.179588
  865         c3     28    bbb     C9    865 -0.06455200  12.010000   ; qtot 29.115036
  866         h1     28    bbb    H17    866 0.13554100   1.008000   ; qtot 29.250577
  867         h1     28    bbb    H18    867 0.13554100   1.008000   ; qtot 29.386118
  868         os     28    bbb     O1    868 -0.62587700  16.000000   ; qtot 28.760241
  869         hn     28    bbb    H19    869 0.23982500   1.008000   ; qtot 29.000066
; residue   29 bbb rtp bbb q 1.0
  870         n4     29    bbb     N1    870 0.03726400  14.010000   ; qtot 29.037330
  871         c3     29    bbb     C1    871 -0.07020100  12.010000   ; qtot 28.967129
  872         hx     29    bbb     H1    872 0.12219000   1.008000   ; qtot 29.089319
  873         hx     29    bbb     H2    873 0.12219000   1.008000   ; qtot 29.211509
  874         c3     29    bbb     C2    874 -0.07020100  12.010000   ; qtot 29.141308
  875         hx     29    bbb     H3    875 0.12219000   1.008000   ; qtot 29.263498
  876         hx     29    bbb     H4    876 0.12219000   1.008000   ; qtot 29.385688
  877         c3     29    bbb     C3    877 -0.39007700  12.010000   ; qtot 28.995611
  878         hx     29    bbb     H5    878 0.14940300   1.008000   ; qtot 29.145014
  879         hx     29    bbb     H6    879 0.14940300   1.008000   ; qtot 29.294417
  880         c3     29    bbb     C4    880 0.18057300  12.010000   ; qtot 29.474990
  881         hc     29    bbb     H7    881 0.01788900   1.008000   ; qtot 29.492879
  882         hc     29    bbb     H8    882 0.01788900   1.008000   ; qtot 29.510768
  883         c3     29    bbb     C5    883 -0.11337700  12.010000   ; qtot 29.397391
  884         hc     29    bbb     H9    884 0.09515400   1.008000   ; qtot 29.492545
  885         hc     29    bbb    H10    885 0.09515400   1.008000   ; qtot 29.587699
  886         c3     29    bbb     C6    886 -0.11337700  12.010000   ; qtot 29.474322
  887         hc     29    bbb    H11    887 0.09515400   1.008000   ; qtot 29.569476
  888         hc     29    bbb    H12    888 0.09515400   1.008000   ; qtot 29.664630
  889         c3     29    bbb     C7    889 0.21842400  12.010000   ; qtot 29.883054
  890         h1     29    bbb    H13    890 0.04500300   1.008000   ; qtot 29.928057
  891         h1     29    bbb    H14    891 0.04500300   1.008000   ; qtot 29.973060
  892         c3     29    bbb     C8    892 -0.06455200  12.010000   ; qtot 29.908508
  893         h1     29    bbb    H15    893 0.13554100   1.008000   ; qtot 30.044049
  894         h1     29    bbb    H16    894 0.13554100   1.008000   ; qtot 30.179590
  895         c3     29    bbb     C9    895 -0.06455200  12.010000   ; qtot 30.115038
  896         h1     29    bbb    H17    896 0.13554100   1.008000   ; qtot 30.250579
  897         h1     29    bbb    H18    897 0.13554100   1.008000   ; qtot 30.386120
  898         os     29    bbb     O1    898 -0.62587700  16.000000   ; qtot 29.760243
  899         hn     29    bbb    H19    899 0.23982500   1.008000   ; qtot 30.000068
; residue   30 bbb rtp bbb q 1.0
  900         n4     30    bbb     N1    900 0.03726400  14.010000   ; qtot 30.037332
  901         c3     30    bbb     C1    901 -0.07020100  12.010000   ; qtot 29.967131
  902         hx     30    bbb     H1    902 0.12219000   1.008000   ; qtot 30.089321
  903         hx     30    bbb     H2    903 0.12219000   1.008000   ; qtot 30.211511
  904         c3     30    bbb     C2    904 -0.07020100  12.010000   ; qtot 30.141310
  905         hx     30    bbb     H3    905 0.12219000   1.008000   ; qtot 30.263500
  906         hx     30    bbb     H4    906 0.12219000   1.008000   ; qtot 30.385690
  907         c3     30    bbb     C3    907 -0.39007700  12.010000   ; qtot 29.995613
  908         hx     30    bbb     H5    908 0.14940300   1.008000   ; qtot 30.145016
  909         hx     30    bbb     H6    909 0.14940300   1.008000   ; qtot 30.294419
  910         c3     30    bbb     C4    910 0.18057300  12.010000   ; qtot 30.474992
  911         hc     30    bbb     H7    911 0.01788900   1.008000   ; qtot 30.492881
  912         hc     30    bbb     H8    912 0.01788900   1.008000   ; qtot 30.510770
  913         c3     30    bbb     C5    913 -0.11337700  12.010000   ; qtot 30.397393
  914         hc     30    bbb     H9    914 0.09515400   1.008000   ; qtot 30.492547
  915         hc     30    bbb    H10    915 0.09515400   1.008000   ; qtot 30.587701
  916         c3     30    bbb     C6    916 -0.11337700  12.010000   ; qtot 30.474324
  917         hc     30    bbb    H11    917 0.09515400   1.008000   ; qtot 30.569478
  918         hc     30    bbb    H12    918 0.09515400   1.008000   ; qtot 30.664632
  919         c3     30    bbb     C7    919 0.21842400  12.010000   ; qtot 30.883056
  920         h1     30    bbb    H13    920 0.04500300   1.008000   ; qtot 30.928059
  921         h1     30    bbb    H14    921 0.04500300   1.008000   ; qtot 30.973062
  922         c3     30    bbb     C8    922 -0.06455200  12.010000   ; qtot 30.908510
  923         h1     30    bbb    H15    923 0.13554100   1.008000   ; qtot 31.044051
  924         h1     30    bbb    H16    924 0.13554100   1.008000   ; qtot 31.179592
  925         c3     30    bbb     C9    925 -0.06455200  12.010000   ; qtot 31.115040
  926         h1     30    bbb    H17    926 0.13554100   1.008000   ; qtot 31.250581
  927         h1     30    bbb    H18    927 0.13554100   1.008000   ; qtot 31.386122
  928         os     30    bbb     O1    928 -0.62587700  16.000000   ; qtot 30.760245
  929         hn     30    bbb    H19    929 0.23982500   1.008000   ; qtot 31.000070
; residue   31 bbb rtp bbb q 1.0
  930         n4     31    bbb     N1    930 0.03726400  14.010000   ; qtot 31.037334
  931         c3     31    bbb     C1    931 -0.07020100  12.010000   ; qtot 30.967133
  932         hx     31    bbb     H1    932 0.12219000   1.008000   ; qtot 31.089323
  933         hx     31    bbb     H2    933 0.12219000   1.008000   ; qtot 31.211513
  934         c3     31    bbb     C2    934 -0.07020100  12.010000   ; qtot 31.141312
  935         hx     31    bbb     H3    935 0.12219000   1.008000   ; qtot 31.263502
  936         hx     31    bbb     H4    936 0.12219000   1.008000   ; qtot 31.385692
  937         c3     31    bbb     C3    937 -0.39007700  12.010000   ; qtot 30.995615
  938         hx     31    bbb     H5    938 0.14940300   1.008000   ; qtot 31.145018
  939         hx     31    bbb     H6    939 0.14940300   1.008000   ; qtot 31.294421
  940         c3     31    bbb     C4    940 0.18057300  12.010000   ; qtot 31.474994
  941         hc     31    bbb     H7    941 0.01788900   1.008000   ; qtot 31.492883
  942         hc     31    bbb     H8    942 0.01788900   1.008000   ; qtot 31.510772
  943         c3     31    bbb     C5    943 -0.11337700  12.010000   ; qtot 31.397395
  944         hc     31    bbb     H9    944 0.09515400   1.008000   ; qtot 31.492549
  945         hc     31    bbb    H10    945 0.09515400   1.008000   ; qtot 31.587703
  946         c3     31    bbb     C6    946 -0.11337700  12.010000   ; qtot 31.474326
  947         hc     31    bbb    H11    947 0.09515400   1.008000   ; qtot 31.569480
  948         hc     31    bbb    H12    948 0.09515400   1.008000   ; qtot 31.664634
  949         c3     31    bbb     C7    949 0.21842400  12.010000   ; qtot 31.883058
  950         h1     31    bbb    H13    950 0.04500300   1.008000   ; qtot 31.928061
  951         h1     31    bbb    H14    951 0.04500300   1.008000   ; qtot 31.973064
  952         c3     31    bbb     C8    952 -0.06455200  12.010000   ; qtot 31.908512
  953         h1     31    bbb    H15    953 0.13554100   1.008000   ; qtot 32.044053
  954         h1     31    bbb    H16    954 0.13554100   1.008000   ; qtot 32.179594
  955         c3     31    bbb     C9    955 -0.06455200  12.010000   ; qtot 32.115042
  956         h1     31    bbb    H17    956 0.13554100   1.008000   ; qtot 32.250583
  957         h1     31    bbb    H18    957 0.13554100   1.008000   ; qtot 32.386124
  958         os     31    bbb     O1    958 -0.62587700  16.000000   ; qtot 31.760247
  959         hn     31    bbb    H19    959 0.23982500   1.008000   ; qtot 32.000072
; residue   32 bbb rtp bbb q 1.0
  960         n4     32    bbb     N1    960 0.03726400  14.010000   ; qtot 32.037336
  961         c3     32    bbb     C1    961 -0.07020100  12.010000   ; qtot 31.967135
  962         hx     32    bbb     H1    962 0.12219000   1.008000   ; qtot 32.089325
  963         hx     32    bbb     H2    963 0.12219000   1.008000   ; qtot 32.211515
  964         c3     32    bbb     C2    964 -0.07020100  12.010000   ; qtot 32.141314
  965         hx     32    bbb     H3    965 0.12219000   1.008000   ; qtot 32.263504
  966         hx     32    bbb     H4    966 0.12219000   1.008000   ; qtot 32.385694
  967         c3     32    bbb     C3    967 -0.39007700  12.010000   ; qtot 31.995617
  968         hx     32    bbb     H5    968 0.14940300   1.008000   ; qtot 32.145020
  969         hx     32    bbb     H6    969 0.14940300   1.008000   ; qtot 32.294423
  970         c3     32    bbb     C4    970 0.18057300  12.010000   ; qtot 32.474996
  971         hc     32    bbb     H7    971 0.01788900   1.008000   ; qtot 32.492885
  972         hc     32    bbb     H8    972 0.01788900   1.008000   ; qtot 32.510774
  973         c3     32    bbb     C5    973 -0.11337700  12.010000   ; qtot 32.397397
  974         hc     32    bbb     H9    974 0.09515400   1.008000   ; qtot 32.492551
  975         hc     32    bbb    H10    975 0.09515400   1.008000   ; qtot 32.587705
  976         c3     32    bbb     C6    976 -0.11337700  12.010000   ; qtot 32.474328
  977         hc     32    bbb    H11    977 0.09515400   1.008000   ; qtot 32.569482
  978         hc     32    bbb    H12    978 0.09515400   1.008000   ; qtot 32.664636
  979         c3     32    bbb     C7    979 0.21842400  12.010000   ; qtot 32.883060
  980         h1     32    bbb    H13    980 0.04500300   1.008000   ; qtot 32.928063
  981         h1     32    bbb    H14    981 0.04500300   1.008000   ; qtot 32.973066
  982         c3     32    bbb     C8    982 -0.06455200  12.010000   ; qtot 32.908514
  983         h1     32    bbb    H15    983 0.13554100   1.008000   ; qtot 33.044055
  984         h1     32    bbb    H16    984 0.13554100   1.008000   ; qtot 33.179596
  985         c3     32    bbb     C9    985 -0.06455200  12.010000   ; qtot 33.115044
  986         h1     32    bbb    H17    986 0.13554100   1.008000   ; qtot 33.250585
  987         h1     32    bbb    H18    987 0.13554100   1.008000   ; qtot 33.386126
  988         os     32    bbb     O1    988 -0.62587700  16.000000   ; qtot 32.760249
  989         hn     32    bbb    H19    989 0.23982500   1.008000   ; qtot 33.000074
; residue   33 bbb rtp bbb q 1.0
  990         n4     33    bbb     N1    990 0.03726400  14.010000   ; qtot 33.037338
  991         c3     33    bbb     C1    991 -0.07020100  12.010000   ; qtot 32.967137
  992         hx     33    bbb     H1    992 0.12219000   1.008000   ; qtot 33.089327
  993         hx     33    bbb     H2    993 0.12219000   1.008000   ; qtot 33.211517
  994         c3     33    bbb     C2    994 -0.07020100  12.010000   ; qtot 33.141316
  995         hx     33    bbb     H3    995 0.12219000   1.008000   ; qtot 33.263506
  996         hx     33    bbb     H4    996 0.12219000   1.008000   ; qtot 33.385696
  997         c3     33    bbb     C3    997 -0.39007700  12.010000   ; qtot 32.995619
  998         hx     33    bbb     H5    998 0.14940300   1.008000   ; qtot 33.145022
  999         hx     33    bbb     H6    999 0.14940300   1.008000   ; qtot 33.294425
 1000         c3     33    bbb     C4   1000 0.18057300  12.010000   ; qtot 33.474998
 1001         hc     33    bbb     H7   1001 0.01788900   1.008000   ; qtot 33.492887
 1002         hc     33    bbb     H8   1002 0.01788900   1.008000   ; qtot 33.510776
 1003         c3     33    bbb     C5   1003 -0.11337700  12.010000   ; qtot 33.397399
 1004         hc     33    bbb     H9   1004 0.09515400   1.008000   ; qtot 33.492553
 1005         hc     33    bbb    H10   1005 0.09515400   1.008000   ; qtot 33.587707
 1006         c3     33    bbb     C6   1006 -0.11337700  12.010000   ; qtot 33.474330
 1007         hc     33    bbb    H11   1007 0.09515400   1.008000   ; qtot 33.569484
 1008         hc     33    bbb    H12   1008 0.09515400   1.008000   ; qtot 33.664638
 1009         c3     33    bbb     C7   1009 0.21842400  12.010000   ; qtot 33.883062
 1010         h1     33    bbb    H13   1010 0.04500300   1.008000   ; qtot 33.928065
 1011         h1     33    bbb    H14   1011 0.04500300   1.008000   ; qtot 33.973068
 1012         c3     33    bbb     C8   1012 -0.06455200  12.010000   ; qtot 33.908516
 1013         h1     33    bbb    H15   1013 0.13554100   1.008000   ; qtot 34.044057
 1014         h1     33    bbb    H16   1014 0.13554100   1.008000   ; qtot 34.179598
 1015         c3     33    bbb     C9   1015 -0.06455200  12.010000   ; qtot 34.115046
 1016         h1     33    bbb    H17   1016 0.13554100   1.008000   ; qtot 34.250587
 1017         h1     33    bbb    H18   1017 0.13554100   1.008000   ; qtot 34.386128
 1018         os     33    bbb     O1   1018 -0.62587700  16.000000   ; qtot 33.760251
 1019         hn     33    bbb    H19   1019 0.23982500   1.008000   ; qtot 34.000076
; residue   34 bbb rtp bbb q 1.0
 1020         n4     34    bbb     N1   1020 0.03726400  14.010000   ; qtot 34.037340
 1021         c3     34    bbb     C1   1021 -0.07020100  12.010000   ; qtot 33.967139
 1022         hx     34    bbb     H1   1022 0.12219000   1.008000   ; qtot 34.089329
 1023         hx     34    bbb     H2   1023 0.12219000   1.008000   ; qtot 34.211519
 1024         c3     34    bbb     C2   1024 -0.07020100  12.010000   ; qtot 34.141318
 1025         hx     34    bbb     H3   1025 0.12219000   1.008000   ; qtot 34.263508
 1026         hx     34    bbb     H4   1026 0.12219000   1.008000   ; qtot 34.385698
 1027         c3     34    bbb     C3   1027 -0.39007700  12.010000   ; qtot 33.995621
 1028         hx     34    bbb     H5   1028 0.14940300   1.008000   ; qtot 34.145024
 1029         hx     34    bbb     H6   1029 0.14940300   1.008000   ; qtot 34.294427
 1030         c3     34    bbb     C4   1030 0.18057300  12.010000   ; qtot 34.475000
 1031         hc     34    bbb     H7   1031 0.01788900   1.008000   ; qtot 34.492889
 1032         hc     34    bbb     H8   1032 0.01788900   1.008000   ; qtot 34.510778
 1033         c3     34    bbb     C5   1033 -0.11337700  12.010000   ; qtot 34.397401
 1034         hc     34    bbb     H9   1034 0.09515400   1.008000   ; qtot 34.492555
 1035         hc     34    bbb    H10   1035 0.09515400   1.008000   ; qtot 34.587709
 1036         c3     34    bbb     C6   1036 -0.11337700  12.010000   ; qtot 34.474332
 1037         hc     34    bbb    H11   1037 0.09515400   1.008000   ; qtot 34.569486
 1038         hc     34    bbb    H12   1038 0.09515400   1.008000   ; qtot 34.664640
 1039         c3     34    bbb     C7   1039 0.21842400  12.010000   ; qtot 34.883064
 1040         h1     34    bbb    H13   1040 0.04500300   1.008000   ; qtot 34.928067
 1041         h1     34    bbb    H14   1041 0.04500300   1.008000   ; qtot 34.973070
 1042         c3     34    bbb     C8   1042 -0.06455200  12.010000   ; qtot 34.908518
 1043         h1     34    bbb    H15   1043 0.13554100   1.008000   ; qtot 35.044059
 1044         h1     34    bbb    H16   1044 0.13554100   1.008000   ; qtot 35.179600
 1045         c3     34    bbb     C9   1045 -0.06455200  12.010000   ; qtot 35.115048
 1046         h1     34    bbb    H17   1046 0.13554100   1.008000   ; qtot 35.250589
 1047         h1     34    bbb    H18   1047 0.13554100   1.008000   ; qtot 35.386130
 1048         os     34    bbb     O1   1048 -0.62587700  16.000000   ; qtot 34.760253
 1049         hn     34    bbb    H19   1049 0.23982500   1.008000   ; qtot 35.000078
; residue   35 bbb rtp bbb q 1.0
 1050         n4     35    bbb     N1   1050 0.03726400  14.010000   ; qtot 35.037342
 1051         c3     35    bbb     C1   1051 -0.07020100  12.010000   ; qtot 34.967141
 1052         hx     35    bbb     H1   1052 0.12219000   1.008000   ; qtot 35.089331
 1053         hx     35    bbb     H2   1053 0.12219000   1.008000   ; qtot 35.211521
 1054         c3     35    bbb     C2   1054 -0.07020100  12.010000   ; qtot 35.141320
 1055         hx     35    bbb     H3   1055 0.12219000   1.008000   ; qtot 35.263510
 1056         hx     35    bbb     H4   1056 0.12219000   1.008000   ; qtot 35.385700
 1057         c3     35    bbb     C3   1057 -0.39007700  12.010000   ; qtot 34.995623
 1058         hx     35    bbb     H5   1058 0.14940300   1.008000   ; qtot 35.145026
 1059         hx     35    bbb     H6   1059 0.14940300   1.008000   ; qtot 35.294429
 1060         c3     35    bbb     C4   1060 0.18057300  12.010000   ; qtot 35.475002
 1061         hc     35    bbb     H7   1061 0.01788900   1.008000   ; qtot 35.492891
 1062         hc     35    bbb     H8   1062 0.01788900   1.008000   ; qtot 35.510780
 1063         c3     35    bbb     C5   1063 -0.11337700  12.010000   ; qtot 35.397403
 1064         hc     35    bbb     H9   1064 0.09515400   1.008000   ; qtot 35.492557
 1065         hc     35    bbb    H10   1065 0.09515400   1.008000   ; qtot 35.587711
 1066         c3     35    bbb     C6   1066 -0.11337700  12.010000   ; qtot 35.474334
 1067         hc     35    bbb    H11   1067 0.09515400   1.008000   ; qtot 35.569488
 1068         hc     35    bbb    H12   1068 0.09515400   1.008000   ; qtot 35.664642
 1069         c3     35    bbb     C7   1069 0.21842400  12.010000   ; qtot 35.883066
 1070         h1     35    bbb    H13   1070 0.04500300   1.008000   ; qtot 35.928069
 1071         h1     35    bbb    H14   1071 0.04500300   1.008000   ; qtot 35.973072
 1072         c3     35    bbb     C8   1072 -0.06455200  12.010000   ; qtot 35.908520
 1073         h1     35    bbb    H15   1073 0.13554100   1.008000   ; qtot 36.044061
 1074         h1     35    bbb    H16   1074 0.13554100   1.008000   ; qtot 36.179602
 1075         c3     35    bbb     C9   1075 -0.06455200  12.010000   ; qtot 36.115050
 1076         h1     35    bbb    H17   1076 0.13554100   1.008000   ; qtot 36.250591
 1077         h1     35    bbb    H18   1077 0.13554100   1.008000   ; qtot 36.386132
 1078         os     35    bbb     O1   1078 -0.62587700  16.000000   ; qtot 35.760255
 1079         hn     35    bbb    H19   1079 0.23982500   1.008000   ; qtot 36.000080
; residue   36 bbb rtp bbb q 1.0
 1080         n4     36    bbb     N1   1080 0.03726400  14.010000   ; qtot 36.037344
 1081         c3     36    bbb     C1   1081 -0.07020100  12.010000   ; qtot 35.967143
 1082         hx     36    bbb     H1   1082 0.12219000   1.008000   ; qtot 36.089333
 1083         hx     36    bbb     H2   1083 0.12219000   1.008000   ; qtot 36.211523
 1084         c3     36    bbb     C2   1084 -0.07020100  12.010000   ; qtot 36.141322
 1085         hx     36    bbb     H3   1085 0.12219000   1.008000   ; qtot 36.263512
 1086         hx     36    bbb     H4   1086 0.12219000   1.008000   ; qtot 36.385702
 1087         c3     36    bbb     C3   1087 -0.39007700  12.010000   ; qtot 35.995625
 1088         hx     36    bbb     H5   1088 0.14940300   1.008000   ; qtot 36.145028
 1089         hx     36    bbb     H6   1089 0.14940300   1.008000   ; qtot 36.294431
 1090         c3     36    bbb     C4   1090 0.18057300  12.010000   ; qtot 36.475004
 1091         hc     36    bbb     H7   1091 0.01788900   1.008000   ; qtot 36.492893
 1092         hc     36    bbb     H8   1092 0.01788900   1.008000   ; qtot 36.510782
 1093         c3     36    bbb     C5   1093 -0.11337700  12.010000   ; qtot 36.397405
 1094         hc     36    bbb     H9   1094 0.09515400   1.008000   ; qtot 36.492559
 1095         hc     36    bbb    H10   1095 0.09515400   1.008000   ; qtot 36.587713
 1096         c3     36    bbb     C6   1096 -0.11337700  12.010000   ; qtot 36.474336
 1097         hc     36    bbb    H11   1097 0.09515400   1.008000   ; qtot 36.569490
 1098         hc     36    bbb    H12   1098 0.09515400   1.008000   ; qtot 36.664644
 1099         c3     36    bbb     C7   1099 0.21842400  12.010000   ; qtot 36.883068
 1100         h1     36    bbb    H13   1100 0.04500300   1.008000   ; qtot 36.928071
 1101         h1     36    bbb    H14   1101 0.04500300   1.008000   ; qtot 36.973074
 1102         c3     36    bbb     C8   1102 -0.06455200  12.010000   ; qtot 36.908522
 1103         h1     36    bbb    H15   1103 0.13554100   1.008000   ; qtot 37.044063
 1104         h1     36    bbb    H16   1104 0.13554100   1.008000   ; qtot 37.179604
 1105         c3     36    bbb     C9   1105 -0.06455200  12.010000   ; qtot 37.115052
 1106         h1     36    bbb    H17   1106 0.13554100   1.008000   ; qtot 37.250593
 1107         h1     36    bbb    H18   1107 0.13554100   1.008000   ; qtot 37.386134
 1108         os     36    bbb     O1   1108 -0.62587700  16.000000   ; qtot 36.760257
 1109         hn     36    bbb    H19   1109 0.23982500   1.008000   ; qtot 37.000082
; residue   37 bbb rtp bbb q 1.0
 1110         n4     37    bbb     N1   1110 0.03726400  14.010000   ; qtot 37.037346
 1111         c3     37    bbb     C1   1111 -0.07020100  12.010000   ; qtot 36.967145
 1112         hx     37    bbb     H1   1112 0.12219000   1.008000   ; qtot 37.089335
 1113         hx     37    bbb     H2   1113 0.12219000   1.008000   ; qtot 37.211525
 1114         c3     37    bbb     C2   1114 -0.07020100  12.010000   ; qtot 37.141324
 1115         hx     37    bbb     H3   1115 0.12219000   1.008000   ; qtot 37.263514
 1116         hx     37    bbb     H4   1116 0.12219000   1.008000   ; qtot 37.385704
 1117         c3     37    bbb     C3   1117 -0.39007700  12.010000   ; qtot 36.995627
 1118         hx     37    bbb     H5   1118 0.14940300   1.008000   ; qtot 37.145030
 1119         hx     37    bbb     H6   1119 0.14940300   1.008000   ; qtot 37.294433
 1120         c3     37    bbb     C4   1120 0.18057300  12.010000   ; qtot 37.475006
 1121         hc     37    bbb     H7   1121 0.01788900   1.008000   ; qtot 37.492895
 1122         hc     37    bbb     H8   1122 0.01788900   1.008000   ; qtot 37.510784
 1123         c3     37    bbb     C5   1123 -0.11337700  12.010000   ; qtot 37.397407
 1124         hc     37    bbb     H9   1124 0.09515400   1.008000   ; qtot 37.492561
 1125         hc     37    bbb    H10   1125 0.09515400   1.008000   ; qtot 37.587715
 1126         c3     37    bbb     C6   1126 -0.11337700  12.010000   ; qtot 37.474338
 1127         hc     37    bbb    H11   1127 0.09515400   1.008000   ; qtot 37.569492
 1128         hc     37    bbb    H12   1128 0.09515400   1.008000   ; qtot 37.664646
 1129         c3     37    bbb     C7   1129 0.21842400  12.010000   ; qtot 37.883070
 1130         h1     37    bbb    H13   1130 0.04500300   1.008000   ; qtot 37.928073
 1131         h1     37    bbb    H14   1131 0.04500300   1.008000   ; qtot 37.973076
 1132         c3     37    bbb     C8   1132 -0.06455200  12.010000   ; qtot 37.908524
 1133         h1     37    bbb    H15   1133 0.13554100   1.008000   ; qtot 38.044065
 1134         h1     37    bbb    H16   1134 0.13554100   1.008000   ; qtot 38.179606
 1135         c3     37    bbb     C9   1135 -0.06455200  12.010000   ; qtot 38.115054
 1136         h1     37    bbb    H17   1136 0.13554100   1.008000   ; qtot 38.250595
 1137         h1     37    bbb    H18   1137 0.13554100   1.008000   ; qtot 38.386136
 1138         os     37    bbb     O1   1138 -0.62587700  16.000000   ; qtot 37.760259
 1139         hn     37    bbb    H19   1139 0.23982500   1.008000   ; qtot 38.000084
; residue   38 bbb rtp bbb q 1.0
 1140         n4     38    bbb     N1   1140 0.03726400  14.010000   ; qtot 38.037348
 1141         c3     38    bbb     C1   1141 -0.07020100  12.010000   ; qtot 37.967147
 1142         hx     38    bbb     H1   1142 0.12219000   1.008000   ; qtot 38.089337
 1143         hx     38    bbb     H2   1143 0.12219000   1.008000   ; qtot 38.211527
 1144         c3     38    bbb     C2   1144 -0.07020100  12.010000   ; qtot 38.141326
 1145         hx     38    bbb     H3   1145 0.12219000   1.008000   ; qtot 38.263516
 1146         hx     38    bbb     H4   1146 0.12219000   1.008000   ; qtot 38.385706
 1147         c3     38    bbb     C3   1147 -0.39007700  12.010000   ; qtot 37.995629
 1148         hx     38    bbb     H5   1148 0.14940300   1.008000   ; qtot 38.145032
 1149         hx     38    bbb     H6   1149 0.14940300   1.008000   ; qtot 38.294435
 1150         c3     38    bbb     C4   1150 0.18057300  12.010000   ; qtot 38.475008
 1151         hc     38    bbb     H7   1151 0.01788900   1.008000   ; qtot 38.492897
 1152         hc     38    bbb     H8   1152 0.01788900   1.008000   ; qtot 38.510786
 1153         c3     38    bbb     C5   1153 -0.11337700  12.010000   ; qtot 38.397409
 1154         hc     38    bbb     H9   1154 0.09515400   1.008000   ; qtot 38.492563
 1155         hc     38    bbb    H10   1155 0.09515400   1.008000   ; qtot 38.587717
 1156         c3     38    bbb     C6   1156 -0.11337700  12.010000   ; qtot 38.474340
 1157         hc     38    bbb    H11   1157 0.09515400   1.008000   ; qtot 38.569494
 1158         hc     38    bbb    H12   1158 0.09515400   1.008000   ; qtot 38.664648
 1159         c3     38    bbb     C7   1159 0.21842400  12.010000   ; qtot 38.883072
 1160         h1     38    bbb    H13   1160 0.04500300   1.008000   ; qtot 38.928075
 1161         h1     38    bbb    H14   1161 0.04500300   1.008000   ; qtot 38.973078
 1162         c3     38    bbb     C8   1162 -0.06455200  12.010000   ; qtot 38.908526
 1163         h1     38    bbb    H15   1163 0.13554100   1.008000   ; qtot 39.044067
 1164         h1     38    bbb    H16   1164 0.13554100   1.008000   ; qtot 39.179608
 1165         c3     38    bbb     C9   1165 -0.06455200  12.010000   ; qtot 39.115056
 1166         h1     38    bbb    H17   1166 0.13554100   1.008000   ; qtot 39.250597
 1167         h1     38    bbb    H18   1167 0.13554100   1.008000   ; qtot 39.386138
 1168         os     38    bbb     O1   1168 -0.62587700  16.000000   ; qtot 38.760261
 1169         hn     38    bbb    H19   1169 0.23982500   1.008000   ; qtot 39.000086
; residue   39 bbb rtp bbb q 1.0
 1170         n4     39    bbb     N1   1170 0.03726400  14.010000   ; qtot 39.037350
 1171         c3     39    bbb     C1   1171 -0.07020100  12.010000   ; qtot 38.967149
 1172         hx     39    bbb     H1   1172 0.12219000   1.008000   ; qtot 39.089339
 1173         hx     39    bbb     H2   1173 0.12219000   1.008000   ; qtot 39.211529
 1174         c3     39    bbb     C2   1174 -0.07020100  12.010000   ; qtot 39.141328
 1175         hx     39    bbb     H3   1175 0.12219000   1.008000   ; qtot 39.263518
 1176         hx     39    bbb     H4   1176 0.12219000   1.008000   ; qtot 39.385708
 1177         c3     39    bbb     C3   1177 -0.39007700  12.010000   ; qtot 38.995631
 1178         hx     39    bbb     H5   1178 0.14940300   1.008000   ; qtot 39.145034
 1179         hx     39    bbb     H6   1179 0.14940300   1.008000   ; qtot 39.294437
 1180         c3     39    bbb     C4   1180 0.18057300  12.010000   ; qtot 39.475010
 1181         hc     39    bbb     H7   1181 0.01788900   1.008000   ; qtot 39.492899
 1182         hc     39    bbb     H8   1182 0.01788900   1.008000   ; qtot 39.510788
 1183         c3     39    bbb     C5   1183 -0.11337700  12.010000   ; qtot 39.397411
 1184         hc     39    bbb     H9   1184 0.09515400   1.008000   ; qtot 39.492565
 1185         hc     39    bbb    H10   1185 0.09515400   1.008000   ; qtot 39.587719
 1186         c3     39    bbb     C6   1186 -0.11337700  12.010000   ; qtot 39.474342
 1187         hc     39    bbb    H11   1187 0.09515400   1.008000   ; qtot 39.569496
 1188         hc     39    bbb    H12   1188 0.09515400   1.008000   ; qtot 39.664650
 1189         c3     39    bbb     C7   1189 0.21842400  12.010000   ; qtot 39.883074
 1190         h1     39    bbb    H13   1190 0.04500300   1.008000   ; qtot 39.928077
 1191         h1     39    bbb    H14   1191 0.04500300   1.008000   ; qtot 39.973080
 1192         c3     39    bbb     C8   1192 -0.06455200  12.010000   ; qtot 39.908528
 1193         h1     39    bbb    H15   1193 0.13554100   1.008000   ; qtot 40.044069
 1194         h1     39    bbb    H16   1194 0.13554100   1.008000   ; qtot 40.179610
 1195         c3     39    bbb     C9   1195 -0.06455200  12.010000   ; qtot 40.115058
 1196         h1     39    bbb    H17   1196 0.13554100   1.008000   ; qtot 40.250599
 1197         h1     39    bbb    H18   1197 0.13554100   1.008000   ; qtot 40.386140
 1198         os     39    bbb     O1   1198 -0.62587700  16.000000   ; qtot 39.760263
 1199         hn     39    bbb    H19   1199 0.23982500   1.008000   ; qtot 40.000088
; residue   40 bbb rtp bbb q 1.0
 1200         n4     40    bbb     N1   1200 0.03726400  14.010000   ; qtot 40.037352
 1201         c3     40    bbb     C1   1201 -0.07020100  12.010000   ; qtot 39.967151
 1202         hx     40    bbb     H1   1202 0.12219000   1.008000   ; qtot 40.089341
 1203         hx     40    bbb     H2   1203 0.12219000   1.008000   ; qtot 40.211531
 1204         c3     40    bbb     C2   1204 -0.07020100  12.010000   ; qtot 40.141330
 1205         hx     40    bbb     H3   1205 0.12219000   1.008000   ; qtot 40.263520
 1206         hx     40    bbb     H4   1206 0.12219000   1.008000   ; qtot 40.385710
 1207         c3     40    bbb     C3   1207 -0.39007700  12.010000   ; qtot 39.995633
 1208         hx     40    bbb     H5   1208 0.14940300   1.008000   ; qtot 40.145036
 1209         hx     40    bbb     H6   1209 0.14940300   1.008000   ; qtot 40.294439
 1210         c3     40    bbb     C4   1210 0.18057300  12.010000   ; qtot 40.475012
 1211         hc     40    bbb     H7   1211 0.01788900   1.008000   ; qtot 40.492901
 1212         hc     40    bbb     H8   1212 0.01788900   1.008000   ; qtot 40.510790
 1213         c3     40    bbb     C5   1213 -0.11337700  12.010000   ; qtot 40.397413
 1214         hc     40    bbb     H9   1214 0.09515400   1.008000   ; qtot 40.492567
 1215         hc     40    bbb    H10   1215 0.09515400   1.008000   ; qtot 40.587721
 1216         c3     40    bbb     C6   1216 -0.11337700  12.010000   ; qtot 40.474344
 1217         hc     40    bbb    H11   1217 0.09515400   1.008000   ; qtot 40.569498
 1218         hc     40    bbb    H12   1218 0.09515400   1.008000   ; qtot 40.664652
 1219         c3     40    bbb     C7   1219 0.21842400  12.010000   ; qtot 40.883076
 1220         h1     40    bbb    H13   1220 0.04500300   1.008000   ; qtot 40.928079
 1221         h1     40    bbb    H14   1221 0.04500300   1.008000   ; qtot 40.973082
 1222         c3     40    bbb     C8   1222 -0.06455200  12.010000   ; qtot 40.908530
 1223         h1     40    bbb    H15   1223 0.13554100   1.008000   ; qtot 41.044071
 1224         h1     40    bbb    H16   1224 0.13554100   1.008000   ; qtot 41.179612
 1225         c3     40    bbb     C9   1225 -0.06455200  12.010000   ; qtot 41.115060
 1226         h1     40    bbb    H17   1226 0.13554100   1.008000   ; qtot 41.250601
 1227         h1     40    bbb    H18   1227 0.13554100   1.008000   ; qtot 41.386142
 1228         os     40    bbb     O1   1228 -0.62587700  16.000000   ; qtot 40.760265
 1229         hn     40    bbb    H19   1229 0.23982500   1.008000   ; qtot 41.000090
; residue   41 bbb rtp bbb q 1.0
 1230         n4     41    bbb     N1   1230 0.03726400  14.010000   ; qtot 41.037354
 1231         c3     41    bbb     C1   1231 -0.07020100  12.010000   ; qtot 40.967153
 1232         hx     41    bbb     H1   1232 0.12219000   1.008000   ; qtot 41.089343
 1233         hx     41    bbb     H2   1233 0.12219000   1.008000   ; qtot 41.211533
 1234         c3     41    bbb     C2   1234 -0.07020100  12.010000   ; qtot 41.141332
 1235         hx     41    bbb     H3   1235 0.12219000   1.008000   ; qtot 41.263522
 1236         hx     41    bbb     H4   1236 0.12219000   1.008000   ; qtot 41.385712
 1237         c3     41    bbb     C3   1237 -0.39007700  12.010000   ; qtot 40.995635
 1238         hx     41    bbb     H5   1238 0.14940300   1.008000   ; qtot 41.145038
 1239         hx     41    bbb     H6   1239 0.14940300   1.008000   ; qtot 41.294441
 1240         c3     41    bbb     C4   1240 0.18057300  12.010000   ; qtot 41.475014
 1241         hc     41    bbb     H7   1241 0.01788900   1.008000   ; qtot 41.492903
 1242         hc     41    bbb     H8   1242 0.01788900   1.008000   ; qtot 41.510792
 1243         c3     41    bbb     C5   1243 -0.11337700  12.010000   ; qtot 41.397415
 1244         hc     41    bbb     H9   1244 0.09515400   1.008000   ; qtot 41.492569
 1245         hc     41    bbb    H10   1245 0.09515400   1.008000   ; qtot 41.587723
 1246         c3     41    bbb     C6   1246 -0.11337700  12.010000   ; qtot 41.474346
 1247         hc     41    bbb    H11   1247 0.09515400   1.008000   ; qtot 41.569500
 1248         hc     41    bbb    H12   1248 0.09515400   1.008000   ; qtot 41.664654
 1249         c3     41    bbb     C7   1249 0.21842400  12.010000   ; qtot 41.883078
 1250         h1     41    bbb    H13   1250 0.04500300   1.008000   ; qtot 41.928081
 1251         h1     41    bbb    H14   1251 0.04500300   1.008000   ; qtot 41.973084
 1252         c3     41    bbb     C8   1252 -0.06455200  12.010000   ; qtot 41.908532
 1253         h1     41    bbb    H15   1253 0.13554100   1.008000   ; qtot 42.044073
 1254         h1     41    bbb    H16   1254 0.13554100   1.008000   ; qtot 42.179614
 1255         c3     41    bbb     C9   1255 -0.06455200  12.010000   ; qtot 42.115062
 1256         h1     41    bbb    H17   1256 0.13554100   1.008000   ; qtot 42.250603
 1257         h1     41    bbb    H18   1257 0.13554100   1.008000   ; qtot 42.386144
 1258         os     41    bbb     O1   1258 -0.62587700  16.000000   ; qtot 41.760267
 1259         hn     41    bbb    H19   1259 0.23982500   1.008000   ; qtot 42.000092
; residue   42 bbb rtp bbb q 1.0
 1260         n4     42    bbb     N1   1260 0.03726400  14.010000   ; qtot 42.037356
 1261         c3     42    bbb     C1   1261 -0.07020100  12.010000   ; qtot 41.967155
 1262         hx     42    bbb     H1   1262 0.12219000   1.008000   ; qtot 42.089345
 1263         hx     42    bbb     H2   1263 0.12219000   1.008000   ; qtot 42.211535
 1264         c3     42    bbb     C2   1264 -0.07020100  12.010000   ; qtot 42.141334
 1265         hx     42    bbb     H3   1265 0.12219000   1.008000   ; qtot 42.263524
 1266         hx     42    bbb     H4   1266 0.12219000   1.008000   ; qtot 42.385714
 1267         c3     42    bbb     C3   1267 -0.39007700  12.010000   ; qtot 41.995637
 1268         hx     42    bbb     H5   1268 0.14940300   1.008000   ; qtot 42.145040
 1269         hx     42    bbb     H6   1269 0.14940300   1.008000   ; qtot 42.294443
 1270         c3     42    bbb     C4   1270 0.18057300  12.010000   ; qtot 42.475016
 1271         hc     42    bbb     H7   1271 0.01788900   1.008000   ; qtot 42.492905
 1272         hc     42    bbb     H8   1272 0.01788900   1.008000   ; qtot 42.510794
 1273         c3     42    bbb     C5   1273 -0.11337700  12.010000   ; qtot 42.397417
 1274         hc     42    bbb     H9   1274 0.09515400   1.008000   ; qtot 42.492571
 1275         hc     42    bbb    H10   1275 0.09515400   1.008000   ; qtot 42.587725
 1276         c3     42    bbb     C6   1276 -0.11337700  12.010000   ; qtot 42.474348
 1277         hc     42    bbb    H11   1277 0.09515400   1.008000   ; qtot 42.569502
 1278         hc     42    bbb    H12   1278 0.09515400   1.008000   ; qtot 42.664656
 1279         c3     42    bbb     C7   1279 0.21842400  12.010000   ; qtot 42.883080
 1280         h1     42    bbb    H13   1280 0.04500300   1.008000   ; qtot 42.928083
 1281         h1     42    bbb    H14   1281 0.04500300   1.008000   ; qtot 42.973086
 1282         c3     42    bbb     C8   1282 -0.06455200  12.010000   ; qtot 42.908534
 1283         h1     42    bbb    H15   1283 0.13554100   1.008000   ; qtot 43.044075
 1284         h1     42    bbb    H16   1284 0.13554100   1.008000   ; qtot 43.179616
 1285         c3     42    bbb     C9   1285 -0.06455200  12.010000   ; qtot 43.115064
 1286         h1     42    bbb    H17   1286 0.13554100   1.008000   ; qtot 43.250605
 1287         h1     42    bbb    H18   1287 0.13554100   1.008000   ; qtot 43.386146
 1288         os     42    bbb     O1   1288 -0.62587700  16.000000   ; qtot 42.760269
 1289         hn     42    bbb    H19   1289 0.23982500   1.008000   ; qtot 43.000094
; residue   43 bbb rtp bbb q 1.0
 1290         n4     43    bbb     N1   1290 0.03726400  14.010000   ; qtot 43.037358
 1291         c3     43    bbb     C1   1291 -0.07020100  12.010000   ; qtot 42.967157
 1292         hx     43    bbb     H1   1292 0.12219000   1.008000   ; qtot 43.089347
 1293         hx     43    bbb     H2   1293 0.12219000   1.008000   ; qtot 43.211537
 1294         c3     43    bbb     C2   1294 -0.07020100  12.010000   ; qtot 43.141336
 1295         hx     43    bbb     H3   1295 0.12219000   1.008000   ; qtot 43.263526
 1296         hx     43    bbb     H4   1296 0.12219000   1.008000   ; qtot 43.385716
 1297         c3     43    bbb     C3   1297 -0.39007700  12.010000   ; qtot 42.995639
 1298         hx     43    bbb     H5   1298 0.14940300   1.008000   ; qtot 43.145042
 1299         hx     43    bbb     H6   1299 0.14940300   1.008000   ; qtot 43.294445
 1300         c3     43    bbb     C4   1300 0.18057300  12.010000   ; qtot 43.475018
 1301         hc     43    bbb     H7   1301 0.01788900   1.008000   ; qtot 43.492907
 1302         hc     43    bbb     H8   1302 0.01788900   1.008000   ; qtot 43.510796
 1303         c3     43    bbb     C5   1303 -0.11337700  12.010000   ; qtot 43.397419
 1304         hc     43    bbb     H9   1304 0.09515400   1.008000   ; qtot 43.492573
 1305         hc     43    bbb    H10   1305 0.09515400   1.008000   ; qtot 43.587727
 1306         c3     43    bbb     C6   1306 -0.11337700  12.010000   ; qtot 43.474350
 1307         hc     43    bbb    H11   1307 0.09515400   1.008000   ; qtot 43.569504
 1308         hc     43    bbb    H12   1308 0.09515400   1.008000   ; qtot 43.664658
 1309         c3     43    bbb     C7   1309 0.21842400  12.010000   ; qtot 43.883082
 1310         h1     43    bbb    H13   1310 0.04500300   1.008000   ; qtot 43.928085
 1311         h1     43    bbb    H14   1311 0.04500300   1.008000   ; qtot 43.973088
 1312         c3     43    bbb     C8   1312 -0.06455200  12.010000   ; qtot 43.908536
 1313         h1     43    bbb    H15   1313 0.13554100   1.008000   ; qtot 44.044077
 1314         h1     43    bbb    H16   1314 0.13554100   1.008000   ; qtot 44.179618
 1315         c3     43    bbb     C9   1315 -0.06455200  12.010000   ; qtot 44.115066
 1316         h1     43    bbb    H17   1316 0.13554100   1.008000   ; qtot 44.250607
 1317         h1     43    bbb    H18   1317 0.13554100   1.008000   ; qtot 44.386148
 1318         os     43    bbb     O1   1318 -0.62587700  16.000000   ; qtot 43.760271
 1319         hn     43    bbb    H19   1319 0.23982500   1.008000   ; qtot 44.000096
; residue   44 bbb rtp bbb q 1.0
 1320         n4     44    bbb     N1   1320 0.03726400  14.010000   ; qtot 44.037360
 1321         c3     44    bbb     C1   1321 -0.07020100  12.010000   ; qtot 43.967159
 1322         hx     44    bbb     H1   1322 0.12219000   1.008000   ; qtot 44.089349
 1323         hx     44    bbb     H2   1323 0.12219000   1.008000   ; qtot 44.211539
 1324         c3     44    bbb     C2   1324 -0.07020100  12.010000   ; qtot 44.141338
 1325         hx     44    bbb     H3   1325 0.12219000   1.008000   ; qtot 44.263528
 1326         hx     44    bbb     H4   1326 0.12219000   1.008000   ; qtot 44.385718
 1327         c3     44    bbb     C3   1327 -0.39007700  12.010000   ; qtot 43.995641
 1328         hx     44    bbb     H5   1328 0.14940300   1.008000   ; qtot 44.145044
 1329         hx     44    bbb     H6   1329 0.14940300   1.008000   ; qtot 44.294447
 1330         c3     44    bbb     C4   1330 0.18057300  12.010000   ; qtot 44.475020
 1331         hc     44    bbb     H7   1331 0.01788900   1.008000   ; qtot 44.492909
 1332         hc     44    bbb     H8   1332 0.01788900   1.008000   ; qtot 44.510798
 1333         c3     44    bbb     C5   1333 -0.11337700  12.010000   ; qtot 44.397421
 1334         hc     44    bbb     H9   1334 0.09515400   1.008000   ; qtot 44.492575
 1335         hc     44    bbb    H10   1335 0.09515400   1.008000   ; qtot 44.587729
 1336         c3     44    bbb     C6   1336 -0.11337700  12.010000   ; qtot 44.474352
 1337         hc     44    bbb    H11   1337 0.09515400   1.008000   ; qtot 44.569506
 1338         hc     44    bbb    H12   1338 0.09515400   1.008000   ; qtot 44.664660
 1339         c3     44    bbb     C7   1339 0.21842400  12.010000   ; qtot 44.883084
 1340         h1     44    bbb    H13   1340 0.04500300   1.008000   ; qtot 44.928087
 1341         h1     44    bbb    H14   1341 0.04500300   1.008000   ; qtot 44.973090
 1342         c3     44    bbb     C8   1342 -0.06455200  12.010000   ; qtot 44.908538
 1343         h1     44    bbb    H15   1343 0.13554100   1.008000   ; qtot 45.044079
 1344         h1     44    bbb    H16   1344 0.13554100   1.008000   ; qtot 45.179620
 1345         c3     44    bbb     C9   1345 -0.06455200  12.010000   ; qtot 45.115068
 1346         h1     44    bbb    H17   1346 0.13554100   1.008000   ; qtot 45.250609
 1347         h1     44    bbb    H18   1347 0.13554100   1.008000   ; qtot 45.386150
 1348         os     44    bbb     O1   1348 -0.62587700  16.000000   ; qtot 44.760273
 1349         hn     44    bbb    H19   1349 0.23982500   1.008000   ; qtot 45.000098
; residue   45 bbb rtp bbb q 1.0
 1350         n4     45    bbb     N1   1350 0.03726400  14.010000   ; qtot 45.037362
 1351         c3     45    bbb     C1   1351 -0.07020100  12.010000   ; qtot 44.967161
 1352         hx     45    bbb     H1   1352 0.12219000   1.008000   ; qtot 45.089351
 1353         hx     45    bbb     H2   1353 0.12219000   1.008000   ; qtot 45.211541
 1354         c3     45    bbb     C2   1354 -0.07020100  12.010000   ; qtot 45.141340
 1355         hx     45    bbb     H3   1355 0.12219000   1.008000   ; qtot 45.263530
 1356         hx     45    bbb     H4   1356 0.12219000   1.008000   ; qtot 45.385720
 1357         c3     45    bbb     C3   1357 -0.39007700  12.010000   ; qtot 44.995643
 1358         hx     45    bbb     H5   1358 0.14940300   1.008000   ; qtot 45.145046
 1359         hx     45    bbb     H6   1359 0.14940300   1.008000   ; qtot 45.294449
 1360         c3     45    bbb     C4   1360 0.18057300  12.010000   ; qtot 45.475022
 1361         hc     45    bbb     H7   1361 0.01788900   1.008000   ; qtot 45.492911
 1362         hc     45    bbb     H8   1362 0.01788900   1.008000   ; qtot 45.510800
 1363         c3     45    bbb     C5   1363 -0.11337700  12.010000   ; qtot 45.397423
 1364         hc     45    bbb     H9   1364 0.09515400   1.008000   ; qtot 45.492577
 1365         hc     45    bbb    H10   1365 0.09515400   1.008000   ; qtot 45.587731
 1366         c3     45    bbb     C6   1366 -0.11337700  12.010000   ; qtot 45.474354
 1367         hc     45    bbb    H11   1367 0.09515400   1.008000   ; qtot 45.569508
 1368         hc     45    bbb    H12   1368 0.09515400   1.008000   ; qtot 45.664662
 1369         c3     45    bbb     C7   1369 0.21842400  12.010000   ; qtot 45.883086
 1370         h1     45    bbb    H13   1370 0.04500300   1.008000   ; qtot 45.928089
 1371         h1     45    bbb    H14   1371 0.04500300   1.008000   ; qtot 45.973092
 1372         c3     45    bbb     C8   1372 -0.06455200  12.010000   ; qtot 45.908540
 1373         h1     45    bbb    H15   1373 0.13554100   1.008000   ; qtot 46.044081
 1374         h1     45    bbb    H16   1374 0.13554100   1.008000   ; qtot 46.179622
 1375         c3     45    bbb     C9   1375 -0.06455200  12.010000   ; qtot 46.115070
 1376         h1     45    bbb    H17   1376 0.13554100   1.008000   ; qtot 46.250611
 1377         h1     45    bbb    H18   1377 0.13554100   1.008000   ; qtot 46.386152
 1378         os     45    bbb     O1   1378 -0.62587700  16.000000   ; qtot 45.760275
 1379         hn     45    bbb    H19   1379 0.23982500   1.008000   ; qtot 46.000100
; residue   46 bbb rtp bbb q 1.0
 1380         n4     46    bbb     N1   1380 0.03726400  14.010000   ; qtot 46.037364
 1381         c3     46    bbb     C1   1381 -0.07020100  12.010000   ; qtot 45.967163
 1382         hx     46    bbb     H1   1382 0.12219000   1.008000   ; qtot 46.089353
 1383         hx     46    bbb     H2   1383 0.12219000   1.008000   ; qtot 46.211543
 1384         c3     46    bbb     C2   1384 -0.07020100  12.010000   ; qtot 46.141342
 1385         hx     46    bbb     H3   1385 0.12219000   1.008000   ; qtot 46.263532
 1386         hx     46    bbb     H4   1386 0.12219000   1.008000   ; qtot 46.385722
 1387         c3     46    bbb     C3   1387 -0.39007700  12.010000   ; qtot 45.995645
 1388         hx     46    bbb     H5   1388 0.14940300   1.008000   ; qtot 46.145048
 1389         hx     46    bbb     H6   1389 0.14940300   1.008000   ; qtot 46.294451
 1390         c3     46    bbb     C4   1390 0.18057300  12.010000   ; qtot 46.475024
 1391         hc     46    bbb     H7   1391 0.01788900   1.008000   ; qtot 46.492913
 1392         hc     46    bbb     H8   1392 0.01788900   1.008000   ; qtot 46.510802
 1393         c3     46    bbb     C5   1393 -0.11337700  12.010000   ; qtot 46.397425
 1394         hc     46    bbb     H9   1394 0.09515400   1.008000   ; qtot 46.492579
 1395         hc     46    bbb    H10   1395 0.09515400   1.008000   ; qtot 46.587733
 1396         c3     46    bbb     C6   1396 -0.11337700  12.010000   ; qtot 46.474356
 1397         hc     46    bbb    H11   1397 0.09515400   1.008000   ; qtot 46.569510
 1398         hc     46    bbb    H12   1398 0.09515400   1.008000   ; qtot 46.664664
 1399         c3     46    bbb     C7   1399 0.21842400  12.010000   ; qtot 46.883088
 1400         h1     46    bbb    H13   1400 0.04500300   1.008000   ; qtot 46.928091
 1401         h1     46    bbb    H14   1401 0.04500300   1.008000   ; qtot 46.973094
 1402         c3     46    bbb     C8   1402 -0.06455200  12.010000   ; qtot 46.908542
 1403         h1     46    bbb    H15   1403 0.13554100   1.008000   ; qtot 47.044083
 1404         h1     46    bbb    H16   1404 0.13554100   1.008000   ; qtot 47.179624
 1405         c3     46    bbb     C9   1405 -0.06455200  12.010000   ; qtot 47.115072
 1406         h1     46    bbb    H17   1406 0.13554100   1.008000   ; qtot 47.250613
 1407         h1     46    bbb    H18   1407 0.13554100   1.008000   ; qtot 47.386154
 1408         os     46    bbb     O1   1408 -0.62587700  16.000000   ; qtot 46.760277
 1409         hn     46    bbb    H19   1409 0.23982500   1.008000   ; qtot 47.000102
; residue   47 bbb rtp bbb q 1.0
 1410         n4     47    bbb     N1   1410 0.03726400  14.010000   ; qtot 47.037366
 1411         c3     47    bbb     C1   1411 -0.07020100  12.010000   ; qtot 46.967165
 1412         hx     47    bbb     H1   1412 0.12219000   1.008000   ; qtot 47.089355
 1413         hx     47    bbb     H2   1413 0.12219000   1.008000   ; qtot 47.211545
 1414         c3     47    bbb     C2   1414 -0.07020100  12.010000   ; qtot 47.141344
 1415         hx     47    bbb     H3   1415 0.12219000   1.008000   ; qtot 47.263534
 1416         hx     47    bbb     H4   1416 0.12219000   1.008000   ; qtot 47.385724
 1417         c3     47    bbb     C3   1417 -0.39007700  12.010000   ; qtot 46.995647
 1418         hx     47    bbb     H5   1418 0.14940300   1.008000   ; qtot 47.145050
 1419         hx     47    bbb     H6   1419 0.14940300   1.008000   ; qtot 47.294453
 1420         c3     47    bbb     C4   1420 0.18057300  12.010000   ; qtot 47.475026
 1421         hc     47    bbb     H7   1421 0.01788900   1.008000   ; qtot 47.492915
 1422         hc     47    bbb     H8   1422 0.01788900   1.008000   ; qtot 47.510804
 1423         c3     47    bbb     C5   1423 -0.11337700  12.010000   ; qtot 47.397427
 1424         hc     47    bbb     H9   1424 0.09515400   1.008000   ; qtot 47.492581
 1425         hc     47    bbb    H10   1425 0.09515400   1.008000   ; qtot 47.587735
 1426         c3     47    bbb     C6   1426 -0.11337700  12.010000   ; qtot 47.474358
 1427         hc     47    bbb    H11   1427 0.09515400   1.008000   ; qtot 47.569512
 1428         hc     47    bbb    H12   1428 0.09515400   1.008000   ; qtot 47.664666
 1429         c3     47    bbb     C7   1429 0.21842400  12.010000   ; qtot 47.883090
 1430         h1     47    bbb    H13   1430 0.04500300   1.008000   ; qtot 47.928093
 1431         h1     47    bbb    H14   1431 0.04500300   1.008000   ; qtot 47.973096
 1432         c3     47    bbb     C8   1432 -0.06455200  12.010000   ; qtot 47.908544
 1433         h1     47    bbb    H15   1433 0.13554100   1.008000   ; qtot 48.044085
 1434         h1     47    bbb    H16   1434 0.13554100   1.008000   ; qtot 48.179626
 1435         c3     47    bbb     C9   1435 -0.06455200  12.010000   ; qtot 48.115074
 1436         h1     47    bbb    H17   1436 0.13554100   1.008000   ; qtot 48.250615
 1437         h1     47    bbb    H18   1437 0.13554100   1.008000   ; qtot 48.386156
 1438         os     47    bbb     O1   1438 -0.62587700  16.000000   ; qtot 47.760279
 1439         hn     47    bbb    H19   1439 0.23982500   1.008000   ; qtot 48.000104
; residue   48 bbb rtp bbb q 1.0
 1440         n4     48    bbb     N1   1440 0.03726400  14.010000   ; qtot 48.037368
 1441         c3     48    bbb     C1   1441 -0.07020100  12.010000   ; qtot 47.967167
 1442         hx     48    bbb     H1   1442 0.12219000   1.008000   ; qtot 48.089357
 1443         hx     48    bbb     H2   1443 0.12219000   1.008000   ; qtot 48.211547
 1444         c3     48    bbb     C2   1444 -0.07020100  12.010000   ; qtot 48.141346
 1445         hx     48    bbb     H3   1445 0.12219000   1.008000   ; qtot 48.263536
 1446         hx     48    bbb     H4   1446 0.12219000   1.008000   ; qtot 48.385726
 1447         c3     48    bbb     C3   1447 -0.39007700  12.010000   ; qtot 47.995649
 1448         hx     48    bbb     H5   1448 0.14940300   1.008000   ; qtot 48.145052
 1449         hx     48    bbb     H6   1449 0.14940300   1.008000   ; qtot 48.294455
 1450         c3     48    bbb     C4   1450 0.18057300  12.010000   ; qtot 48.475028
 1451         hc     48    bbb     H7   1451 0.01788900   1.008000   ; qtot 48.492917
 1452         hc     48    bbb     H8   1452 0.01788900   1.008000   ; qtot 48.510806
 1453         c3     48    bbb     C5   1453 -0.11337700  12.010000   ; qtot 48.397429
 1454         hc     48    bbb     H9   1454 0.09515400   1.008000   ; qtot 48.492583
 1455         hc     48    bbb    H10   1455 0.09515400   1.008000   ; qtot 48.587737
 1456         c3     48    bbb     C6   1456 -0.11337700  12.010000   ; qtot 48.474360
 1457         hc     48    bbb    H11   1457 0.09515400   1.008000   ; qtot 48.569514
 1458         hc     48    bbb    H12   1458 0.09515400   1.008000   ; qtot 48.664668
 1459         c3     48    bbb     C7   1459 0.21842400  12.010000   ; qtot 48.883092
 1460         h1     48    bbb    H13   1460 0.04500300   1.008000   ; qtot 48.928095
 1461         h1     48    bbb    H14   1461 0.04500300   1.008000   ; qtot 48.973098
 1462         c3     48    bbb     C8   1462 -0.06455200  12.010000   ; qtot 48.908546
 1463         h1     48    bbb    H15   1463 0.13554100   1.008000   ; qtot 49.044087
 1464         h1     48    bbb    H16   1464 0.13554100   1.008000   ; qtot 49.179628
 1465         c3     48    bbb     C9   1465 -0.06455200  12.010000   ; qtot 49.115076
 1466         h1     48    bbb    H17   1466 0.13554100   1.008000   ; qtot 49.250617
 1467         h1     48    bbb    H18   1467 0.13554100   1.008000   ; qtot 49.386158
 1468         os     48    bbb     O1   1468 -0.62587700  16.000000   ; qtot 48.760281
 1469         hn     48    bbb    H19   1469 0.23982500   1.008000   ; qtot 49.000106
; residue   49 bbb rtp bbb q 1.0
 1470         n4     49    bbb     N1   1470 0.03726400  14.010000   ; qtot 49.037370
 1471         c3     49    bbb     C1   1471 -0.07020100  12.010000   ; qtot 48.967169
 1472         hx     49    bbb     H1   1472 0.12219000   1.008000   ; qtot 49.089359
 1473         hx     49    bbb     H2   1473 0.12219000   1.008000   ; qtot 49.211549
 1474         c3     49    bbb     C2   1474 -0.07020100  12.010000   ; qtot 49.141348
 1475         hx     49    bbb     H3   1475 0.12219000   1.008000   ; qtot 49.263538
 1476         hx     49    bbb     H4   1476 0.12219000   1.008000   ; qtot 49.385728
 1477         c3     49    bbb     C3   1477 -0.39007700  12.010000   ; qtot 48.995651
 1478         hx     49    bbb     H5   1478 0.14940300   1.008000   ; qtot 49.145054
 1479         hx     49    bbb     H6   1479 0.14940300   1.008000   ; qtot 49.294457
 1480         c3     49    bbb     C4   1480 0.18057300  12.010000   ; qtot 49.475030
 1481         hc     49    bbb     H7   1481 0.01788900   1.008000   ; qtot 49.492919
 1482         hc     49    bbb     H8   1482 0.01788900   1.008000   ; qtot 49.510808
 1483         c3     49    bbb     C5   1483 -0.11337700  12.010000   ; qtot 49.397431
 1484         hc     49    bbb     H9   1484 0.09515400   1.008000   ; qtot 49.492585
 1485         hc     49    bbb    H10   1485 0.09515400   1.008000   ; qtot 49.587739
 1486         c3     49    bbb     C6   1486 -0.11337700  12.010000   ; qtot 49.474362
 1487         hc     49    bbb    H11   1487 0.09515400   1.008000   ; qtot 49.569516
 1488         hc     49    bbb    H12   1488 0.09515400   1.008000   ; qtot 49.664670
 1489         c3     49    bbb     C7   1489 0.21842400  12.010000   ; qtot 49.883094
 1490         h1     49    bbb    H13   1490 0.04500300   1.008000   ; qtot 49.928097
 1491         h1     49    bbb    H14   1491 0.04500300   1.008000   ; qtot 49.973100
 1492         c3     49    bbb     C8   1492 -0.06455200  12.010000   ; qtot 49.908548
 1493         h1     49    bbb    H15   1493 0.13554100   1.008000   ; qtot 50.044089
 1494         h1     49    bbb    H16   1494 0.13554100   1.008000   ; qtot 50.179630
 1495         c3     49    bbb     C9   1495 -0.06455200  12.010000   ; qtot 50.115078
 1496         h1     49    bbb    H17   1496 0.13554100   1.008000   ; qtot 50.250619
 1497         h1     49    bbb    H18   1497 0.13554100   1.008000   ; qtot 50.386160
 1498         os     49    bbb     O1   1498 -0.62587700  16.000000   ; qtot 49.760283
 1499         hn     49    bbb    H19   1499 0.23982500   1.008000   ; qtot 50.000108
; residue   50 bbb rtp bbb q 1.0
 1500         n4     50    bbb     N1   1500 0.03726400  14.010000   ; qtot 50.037372
 1501         c3     50    bbb     C1   1501 -0.07020100  12.010000   ; qtot 49.967171
 1502         hx     50    bbb     H1   1502 0.12219000   1.008000   ; qtot 50.089361
 1503         hx     50    bbb     H2   1503 0.12219000   1.008000   ; qtot 50.211551
 1504         c3     50    bbb     C2   1504 -0.07020100  12.010000   ; qtot 50.141350
 1505         hx     50    bbb     H3   1505 0.12219000   1.008000   ; qtot 50.263540
 1506         hx     50    bbb     H4   1506 0.12219000   1.008000   ; qtot 50.385730
 1507         c3     50    bbb     C3   1507 -0.39007700  12.010000   ; qtot 49.995653
 1508         hx     50    bbb     H5   1508 0.14940300   1.008000   ; qtot 50.145056
 1509         hx     50    bbb     H6   1509 0.14940300   1.008000   ; qtot 50.294459
 1510         c3     50    bbb     C4   1510 0.18057300  12.010000   ; qtot 50.475032
 1511         hc     50    bbb     H7   1511 0.01788900   1.008000   ; qtot 50.492921
 1512         hc     50    bbb     H8   1512 0.01788900   1.008000   ; qtot 50.510810
 1513         c3     50    bbb     C5   1513 -0.11337700  12.010000   ; qtot 50.397433
 1514         hc     50    bbb     H9   1514 0.09515400   1.008000   ; qtot 50.492587
 1515         hc     50    bbb    H10   1515 0.09515400   1.008000   ; qtot 50.587741
 1516         c3     50    bbb     C6   1516 -0.11337700  12.010000   ; qtot 50.474364
 1517         hc     50    bbb    H11   1517 0.09515400   1.008000   ; qtot 50.569518
 1518         hc     50    bbb    H12   1518 0.09515400   1.008000   ; qtot 50.664672
 1519         c3     50    bbb     C7   1519 0.21842400  12.010000   ; qtot 50.883096
 1520         h1     50    bbb    H13   1520 0.04500300   1.008000   ; qtot 50.928099
 1521         h1     50    bbb    H14   1521 0.04500300   1.008000   ; qtot 50.973102
 1522         c3     50    bbb     C8   1522 -0.06455200  12.010000   ; qtot 50.908550
 1523         h1     50    bbb    H15   1523 0.13554100   1.008000   ; qtot 51.044091
 1524         h1     50    bbb    H16   1524 0.13554100   1.008000   ; qtot 51.179632
 1525         c3     50    bbb     C9   1525 -0.06455200  12.010000   ; qtot 51.115080
 1526         h1     50    bbb    H17   1526 0.13554100   1.008000   ; qtot 51.250621
 1527         h1     50    bbb    H18   1527 0.13554100   1.008000   ; qtot 51.386162
 1528         os     50    bbb     O1   1528 -0.62587700  16.000000   ; qtot 50.760285
 1529         hn     50    bbb    H19   1529 0.23982500   1.008000   ; qtot 51.000110
; residue   51 bbb rtp bbb q 1.0
 1530         n4     51    bbb     N1   1530 0.03726400  14.010000   ; qtot 51.037374
 1531         c3     51    bbb     C1   1531 -0.07020100  12.010000   ; qtot 50.967173
 1532         hx     51    bbb     H1   1532 0.12219000   1.008000   ; qtot 51.089363
 1533         hx     51    bbb     H2   1533 0.12219000   1.008000   ; qtot 51.211553
 1534         c3     51    bbb     C2   1534 -0.07020100  12.010000   ; qtot 51.141352
 1535         hx     51    bbb     H3   1535 0.12219000   1.008000   ; qtot 51.263542
 1536         hx     51    bbb     H4   1536 0.12219000   1.008000   ; qtot 51.385732
 1537         c3     51    bbb     C3   1537 -0.39007700  12.010000   ; qtot 50.995655
 1538         hx     51    bbb     H5   1538 0.14940300   1.008000   ; qtot 51.145058
 1539         hx     51    bbb     H6   1539 0.14940300   1.008000   ; qtot 51.294461
 1540         c3     51    bbb     C4   1540 0.18057300  12.010000   ; qtot 51.475034
 1541         hc     51    bbb     H7   1541 0.01788900   1.008000   ; qtot 51.492923
 1542         hc     51    bbb     H8   1542 0.01788900   1.008000   ; qtot 51.510812
 1543         c3     51    bbb     C5   1543 -0.11337700  12.010000   ; qtot 51.397435
 1544         hc     51    bbb     H9   1544 0.09515400   1.008000   ; qtot 51.492589
 1545         hc     51    bbb    H10   1545 0.09515400   1.008000   ; qtot 51.587743
 1546         c3     51    bbb     C6   1546 -0.11337700  12.010000   ; qtot 51.474366
 1547         hc     51    bbb    H11   1547 0.09515400   1.008000   ; qtot 51.569520
 1548         hc     51    bbb    H12   1548 0.09515400   1.008000   ; qtot 51.664674
 1549         c3     51    bbb     C7   1549 0.21842400  12.010000   ; qtot 51.883098
 1550         h1     51    bbb    H13   1550 0.04500300   1.008000   ; qtot 51.928101
 1551         h1     51    bbb    H14   1551 0.04500300   1.008000   ; qtot 51.973104
 1552         c3     51    bbb     C8   1552 -0.06455200  12.010000   ; qtot 51.908552
 1553         h1     51    bbb    H15   1553 0.13554100   1.008000   ; qtot 52.044093
 1554         h1     51    bbb    H16   1554 0.13554100   1.008000   ; qtot 52.179634
 1555         c3     51    bbb     C9   1555 -0.06455200  12.010000   ; qtot 52.115082
 1556         h1     51    bbb    H17   1556 0.13554100   1.008000   ; qtot 52.250623
 1557         h1     51    bbb    H18   1557 0.13554100   1.008000   ; qtot 52.386164
 1558         os     51    bbb     O1   1558 -0.62587700  16.000000   ; qtot 51.760287
 1559         hn     51    bbb    H19   1559 0.23982500   1.008000   ; qtot 52.000112
; residue   52 bbb rtp bbb q 1.0
 1560         n4     52    bbb     N1   1560 0.03726400  14.010000   ; qtot 52.037376
 1561         c3     52    bbb     C1   1561 -0.07020100  12.010000   ; qtot 51.967175
 1562         hx     52    bbb     H1   1562 0.12219000   1.008000   ; qtot 52.089365
 1563         hx     52    bbb     H2   1563 0.12219000   1.008000   ; qtot 52.211555
 1564         c3     52    bbb     C2   1564 -0.07020100  12.010000   ; qtot 52.141354
 1565         hx     52    bbb     H3   1565 0.12219000   1.008000   ; qtot 52.263544
 1566         hx     52    bbb     H4   1566 0.12219000   1.008000   ; qtot 52.385734
 1567         c3     52    bbb     C3   1567 -0.39007700  12.010000   ; qtot 51.995657
 1568         hx     52    bbb     H5   1568 0.14940300   1.008000   ; qtot 52.145060
 1569         hx     52    bbb     H6   1569 0.14940300   1.008000   ; qtot 52.294463
 1570         c3     52    bbb     C4   1570 0.18057300  12.010000   ; qtot 52.475036
 1571         hc     52    bbb     H7   1571 0.01788900   1.008000   ; qtot 52.492925
 1572         hc     52    bbb     H8   1572 0.01788900   1.008000   ; qtot 52.510814
 1573         c3     52    bbb     C5   1573 -0.11337700  12.010000   ; qtot 52.397437
 1574         hc     52    bbb     H9   1574 0.09515400   1.008000   ; qtot 52.492591
 1575         hc     52    bbb    H10   1575 0.09515400   1.008000   ; qtot 52.587745
 1576         c3     52    bbb     C6   1576 -0.11337700  12.010000   ; qtot 52.474368
 1577         hc     52    bbb    H11   1577 0.09515400   1.008000   ; qtot 52.569522
 1578         hc     52    bbb    H12   1578 0.09515400   1.008000   ; qtot 52.664676
 1579         c3     52    bbb     C7   1579 0.21842400  12.010000   ; qtot 52.883100
 1580         h1     52    bbb    H13   1580 0.04500300   1.008000   ; qtot 52.928103
 1581         h1     52    bbb    H14   1581 0.04500300   1.008000   ; qtot 52.973106
 1582         c3     52    bbb     C8   1582 -0.06455200  12.010000   ; qtot 52.908554
 1583         h1     52    bbb    H15   1583 0.13554100   1.008000   ; qtot 53.044095
 1584         h1     52    bbb    H16   1584 0.13554100   1.008000   ; qtot 53.179636
 1585         c3     52    bbb     C9   1585 -0.06455200  12.010000   ; qtot 53.115084
 1586         h1     52    bbb    H17   1586 0.13554100   1.008000   ; qtot 53.250625
 1587         h1     52    bbb    H18   1587 0.13554100   1.008000   ; qtot 53.386166
 1588         os     52    bbb     O1   1588 -0.62587700  16.000000   ; qtot 52.760289
 1589         hn     52    bbb    H19   1589 0.23982500   1.008000   ; qtot 53.000114
; residue   53 bbb rtp bbb q 1.0
 1590         n4     53    bbb     N1   1590 0.03726400  14.010000   ; qtot 53.037378
 1591         c3     53    bbb     C1   1591 -0.07020100  12.010000   ; qtot 52.967177
 1592         hx     53    bbb     H1   1592 0.12219000   1.008000   ; qtot 53.089367
 1593         hx     53    bbb     H2   1593 0.12219000   1.008000   ; qtot 53.211557
 1594         c3     53    bbb     C2   1594 -0.07020100  12.010000   ; qtot 53.141356
 1595         hx     53    bbb     H3   1595 0.12219000   1.008000   ; qtot 53.263546
 1596         hx     53    bbb     H4   1596 0.12219000   1.008000   ; qtot 53.385736
 1597         c3     53    bbb     C3   1597 -0.39007700  12.010000   ; qtot 52.995659
 1598         hx     53    bbb     H5   1598 0.14940300   1.008000   ; qtot 53.145062
 1599         hx     53    bbb     H6   1599 0.14940300   1.008000   ; qtot 53.294465
 1600         c3     53    bbb     C4   1600 0.18057300  12.010000   ; qtot 53.475038
 1601         hc     53    bbb     H7   1601 0.01788900   1.008000   ; qtot 53.492927
 1602         hc     53    bbb     H8   1602 0.01788900   1.008000   ; qtot 53.510816
 1603         c3     53    bbb     C5   1603 -0.11337700  12.010000   ; qtot 53.397439
 1604         hc     53    bbb     H9   1604 0.09515400   1.008000   ; qtot 53.492593
 1605         hc     53    bbb    H10   1605 0.09515400   1.008000   ; qtot 53.587747
 1606         c3     53    bbb     C6   1606 -0.11337700  12.010000   ; qtot 53.474370
 1607         hc     53    bbb    H11   1607 0.09515400   1.008000   ; qtot 53.569524
 1608         hc     53    bbb    H12   1608 0.09515400   1.008000   ; qtot 53.664678
 1609         c3     53    bbb     C7   1609 0.21842400  12.010000   ; qtot 53.883102
 1610         h1     53    bbb    H13   1610 0.04500300   1.008000   ; qtot 53.928105
 1611         h1     53    bbb    H14   1611 0.04500300   1.008000   ; qtot 53.973108
 1612         c3     53    bbb     C8   1612 -0.06455200  12.010000   ; qtot 53.908556
 1613         h1     53    bbb    H15   1613 0.13554100   1.008000   ; qtot 54.044097
 1614         h1     53    bbb    H16   1614 0.13554100   1.008000   ; qtot 54.179638
 1615         c3     53    bbb     C9   1615 -0.06455200  12.010000   ; qtot 54.115086
 1616         h1     53    bbb    H17   1616 0.13554100   1.008000   ; qtot 54.250627
 1617         h1     53    bbb    H18   1617 0.13554100   1.008000   ; qtot 54.386168
 1618         os     53    bbb     O1   1618 -0.62587700  16.000000   ; qtot 53.760291
 1619         hn     53    bbb    H19   1619 0.23982500   1.008000   ; qtot 54.000116
; residue   54 bbb rtp bbb q 1.0
 1620         n4     54    bbb     N1   1620 0.03726400  14.010000   ; qtot 54.037380
 1621         c3     54    bbb     C1   1621 -0.07020100  12.010000   ; qtot 53.967179
 1622         hx     54    bbb     H1   1622 0.12219000   1.008000   ; qtot 54.089369
 1623         hx     54    bbb     H2   1623 0.12219000   1.008000   ; qtot 54.211559
 1624         c3     54    bbb     C2   1624 -0.07020100  12.010000   ; qtot 54.141358
 1625         hx     54    bbb     H3   1625 0.12219000   1.008000   ; qtot 54.263548
 1626         hx     54    bbb     H4   1626 0.12219000   1.008000   ; qtot 54.385738
 1627         c3     54    bbb     C3   1627 -0.39007700  12.010000   ; qtot 53.995661
 1628         hx     54    bbb     H5   1628 0.14940300   1.008000   ; qtot 54.145064
 1629         hx     54    bbb     H6   1629 0.14940300   1.008000   ; qtot 54.294467
 1630         c3     54    bbb     C4   1630 0.18057300  12.010000   ; qtot 54.475040
 1631         hc     54    bbb     H7   1631 0.01788900   1.008000   ; qtot 54.492929
 1632         hc     54    bbb     H8   1632 0.01788900   1.008000   ; qtot 54.510818
 1633         c3     54    bbb     C5   1633 -0.11337700  12.010000   ; qtot 54.397441
 1634         hc     54    bbb     H9   1634 0.09515400   1.008000   ; qtot 54.492595
 1635         hc     54    bbb    H10   1635 0.09515400   1.008000   ; qtot 54.587749
 1636         c3     54    bbb     C6   1636 -0.11337700  12.010000   ; qtot 54.474372
 1637         hc     54    bbb    H11   1637 0.09515400   1.008000   ; qtot 54.569526
 1638         hc     54    bbb    H12   1638 0.09515400   1.008000   ; qtot 54.664680
 1639         c3     54    bbb     C7   1639 0.21842400  12.010000   ; qtot 54.883104
 1640         h1     54    bbb    H13   1640 0.04500300   1.008000   ; qtot 54.928107
 1641         h1     54    bbb    H14   1641 0.04500300   1.008000   ; qtot 54.973110
 1642         c3     54    bbb     C8   1642 -0.06455200  12.010000   ; qtot 54.908558
 1643         h1     54    bbb    H15   1643 0.13554100   1.008000   ; qtot 55.044099
 1644         h1     54    bbb    H16   1644 0.13554100   1.008000   ; qtot 55.179640
 1645         c3     54    bbb     C9   1645 -0.06455200  12.010000   ; qtot 55.115088
 1646         h1     54    bbb    H17   1646 0.13554100   1.008000   ; qtot 55.250629
 1647         h1     54    bbb    H18   1647 0.13554100   1.008000   ; qtot 55.386170
 1648         os     54    bbb     O1   1648 -0.62587700  16.000000   ; qtot 54.760293
 1649         hn     54    bbb    H19   1649 0.23982500   1.008000   ; qtot 55.000118
; residue   55 bbb rtp bbb q 1.0
 1650         n4     55    bbb     N1   1650 0.03726400  14.010000   ; qtot 55.037382
 1651         c3     55    bbb     C1   1651 -0.07020100  12.010000   ; qtot 54.967181
 1652         hx     55    bbb     H1   1652 0.12219000   1.008000   ; qtot 55.089371
 1653         hx     55    bbb     H2   1653 0.12219000   1.008000   ; qtot 55.211561
 1654         c3     55    bbb     C2   1654 -0.07020100  12.010000   ; qtot 55.141360
 1655         hx     55    bbb     H3   1655 0.12219000   1.008000   ; qtot 55.263550
 1656         hx     55    bbb     H4   1656 0.12219000   1.008000   ; qtot 55.385740
 1657         c3     55    bbb     C3   1657 -0.39007700  12.010000   ; qtot 54.995663
 1658         hx     55    bbb     H5   1658 0.14940300   1.008000   ; qtot 55.145066
 1659         hx     55    bbb     H6   1659 0.14940300   1.008000   ; qtot 55.294469
 1660         c3     55    bbb     C4   1660 0.18057300  12.010000   ; qtot 55.475042
 1661         hc     55    bbb     H7   1661 0.01788900   1.008000   ; qtot 55.492931
 1662         hc     55    bbb     H8   1662 0.01788900   1.008000   ; qtot 55.510820
 1663         c3     55    bbb     C5   1663 -0.11337700  12.010000   ; qtot 55.397443
 1664         hc     55    bbb     H9   1664 0.09515400   1.008000   ; qtot 55.492597
 1665         hc     55    bbb    H10   1665 0.09515400   1.008000   ; qtot 55.587751
 1666         c3     55    bbb     C6   1666 -0.11337700  12.010000   ; qtot 55.474374
 1667         hc     55    bbb    H11   1667 0.09515400   1.008000   ; qtot 55.569528
 1668         hc     55    bbb    H12   1668 0.09515400   1.008000   ; qtot 55.664682
 1669         c3     55    bbb     C7   1669 0.21842400  12.010000   ; qtot 55.883106
 1670         h1     55    bbb    H13   1670 0.04500300   1.008000   ; qtot 55.928109
 1671         h1     55    bbb    H14   1671 0.04500300   1.008000   ; qtot 55.973112
 1672         c3     55    bbb     C8   1672 -0.06455200  12.010000   ; qtot 55.908560
 1673         h1     55    bbb    H15   1673 0.13554100   1.008000   ; qtot 56.044101
 1674         h1     55    bbb    H16   1674 0.13554100   1.008000   ; qtot 56.179642
 1675         c3     55    bbb     C9   1675 -0.06455200  12.010000   ; qtot 56.115090
 1676         h1     55    bbb    H17   1676 0.13554100   1.008000   ; qtot 56.250631
 1677         h1     55    bbb    H18   1677 0.13554100   1.008000   ; qtot 56.386172
 1678         os     55    bbb     O1   1678 -0.62587700  16.000000   ; qtot 55.760295
 1679         hn     55    bbb    H19   1679 0.23982500   1.008000   ; qtot 56.000120
; residue   56 bbb rtp bbb q 1.0
 1680         n4     56    bbb     N1   1680 0.03726400  14.010000   ; qtot 56.037384
 1681         c3     56    bbb     C1   1681 -0.07020100  12.010000   ; qtot 55.967183
 1682         hx     56    bbb     H1   1682 0.12219000   1.008000   ; qtot 56.089373
 1683         hx     56    bbb     H2   1683 0.12219000   1.008000   ; qtot 56.211563
 1684         c3     56    bbb     C2   1684 -0.07020100  12.010000   ; qtot 56.141362
 1685         hx     56    bbb     H3   1685 0.12219000   1.008000   ; qtot 56.263552
 1686         hx     56    bbb     H4   1686 0.12219000   1.008000   ; qtot 56.385742
 1687         c3     56    bbb     C3   1687 -0.39007700  12.010000   ; qtot 55.995665
 1688         hx     56    bbb     H5   1688 0.14940300   1.008000   ; qtot 56.145068
 1689         hx     56    bbb     H6   1689 0.14940300   1.008000   ; qtot 56.294471
 1690         c3     56    bbb     C4   1690 0.18057300  12.010000   ; qtot 56.475044
 1691         hc     56    bbb     H7   1691 0.01788900   1.008000   ; qtot 56.492933
 1692         hc     56    bbb     H8   1692 0.01788900   1.008000   ; qtot 56.510822
 1693         c3     56    bbb     C5   1693 -0.11337700  12.010000   ; qtot 56.397445
 1694         hc     56    bbb     H9   1694 0.09515400   1.008000   ; qtot 56.492599
 1695         hc     56    bbb    H10   1695 0.09515400   1.008000   ; qtot 56.587753
 1696         c3     56    bbb     C6   1696 -0.11337700  12.010000   ; qtot 56.474376
 1697         hc     56    bbb    H11   1697 0.09515400   1.008000   ; qtot 56.569530
 1698         hc     56    bbb    H12   1698 0.09515400   1.008000   ; qtot 56.664684
 1699         c3     56    bbb     C7   1699 0.21842400  12.010000   ; qtot 56.883108
 1700         h1     56    bbb    H13   1700 0.04500300   1.008000   ; qtot 56.928111
 1701         h1     56    bbb    H14   1701 0.04500300   1.008000   ; qtot 56.973114
 1702         c3     56    bbb     C8   1702 -0.06455200  12.010000   ; qtot 56.908562
 1703         h1     56    bbb    H15   1703 0.13554100   1.008000   ; qtot 57.044103
 1704         h1     56    bbb    H16   1704 0.13554100   1.008000   ; qtot 57.179644
 1705         c3     56    bbb     C9   1705 -0.06455200  12.010000   ; qtot 57.115092
 1706         h1     56    bbb    H17   1706 0.13554100   1.008000   ; qtot 57.250633
 1707         h1     56    bbb    H18   1707 0.13554100   1.008000   ; qtot 57.386174
 1708         os     56    bbb     O1   1708 -0.62587700  16.000000   ; qtot 56.760297
 1709         hn     56    bbb    H19   1709 0.23982500   1.008000   ; qtot 57.000122
; residue   57 bbb rtp bbb q 1.0
 1710         n4     57    bbb     N1   1710 0.03726400  14.010000   ; qtot 57.037386
 1711         c3     57    bbb     C1   1711 -0.07020100  12.010000   ; qtot 56.967185
 1712         hx     57    bbb     H1   1712 0.12219000   1.008000   ; qtot 57.089375
 1713         hx     57    bbb     H2   1713 0.12219000   1.008000   ; qtot 57.211565
 1714         c3     57    bbb     C2   1714 -0.07020100  12.010000   ; qtot 57.141364
 1715         hx     57    bbb     H3   1715 0.12219000   1.008000   ; qtot 57.263554
 1716         hx     57    bbb     H4   1716 0.12219000   1.008000   ; qtot 57.385744
 1717         c3     57    bbb     C3   1717 -0.39007700  12.010000   ; qtot 56.995667
 1718         hx     57    bbb     H5   1718 0.14940300   1.008000   ; qtot 57.145070
 1719         hx     57    bbb     H6   1719 0.14940300   1.008000   ; qtot 57.294473
 1720         c3     57    bbb     C4   1720 0.18057300  12.010000   ; qtot 57.475046
 1721         hc     57    bbb     H7   1721 0.01788900   1.008000   ; qtot 57.492935
 1722         hc     57    bbb     H8   1722 0.01788900   1.008000   ; qtot 57.510824
 1723         c3     57    bbb     C5   1723 -0.11337700  12.010000   ; qtot 57.397447
 1724         hc     57    bbb     H9   1724 0.09515400   1.008000   ; qtot 57.492601
 1725         hc     57    bbb    H10   1725 0.09515400   1.008000   ; qtot 57.587755
 1726         c3     57    bbb     C6   1726 -0.11337700  12.010000   ; qtot 57.474378
 1727         hc     57    bbb    H11   1727 0.09515400   1.008000   ; qtot 57.569532
 1728         hc     57    bbb    H12   1728 0.09515400   1.008000   ; qtot 57.664686
 1729         c3     57    bbb     C7   1729 0.21842400  12.010000   ; qtot 57.883110
 1730         h1     57    bbb    H13   1730 0.04500300   1.008000   ; qtot 57.928113
 1731         h1     57    bbb    H14   1731 0.04500300   1.008000   ; qtot 57.973116
 1732         c3     57    bbb     C8   1732 -0.06455200  12.010000   ; qtot 57.908564
 1733         h1     57    bbb    H15   1733 0.13554100   1.008000   ; qtot 58.044105
 1734         h1     57    bbb    H16   1734 0.13554100   1.008000   ; qtot 58.179646
 1735         c3     57    bbb     C9   1735 -0.06455200  12.010000   ; qtot 58.115094
 1736         h1     57    bbb    H17   1736 0.13554100   1.008000   ; qtot 58.250635
 1737         h1     57    bbb    H18   1737 0.13554100   1.008000   ; qtot 58.386176
 1738         os     57    bbb     O1   1738 -0.62587700  16.000000   ; qtot 57.760299
 1739         hn     57    bbb    H19   1739 0.23982500   1.008000   ; qtot 58.000124
; residue   58 bbb rtp bbb q 1.0
 1740         n4     58    bbb     N1   1740 0.03726400  14.010000   ; qtot 58.037388
 1741         c3     58    bbb     C1   1741 -0.07020100  12.010000   ; qtot 57.967187
 1742         hx     58    bbb     H1   1742 0.12219000   1.008000   ; qtot 58.089377
 1743         hx     58    bbb     H2   1743 0.12219000   1.008000   ; qtot 58.211567
 1744         c3     58    bbb     C2   1744 -0.07020100  12.010000   ; qtot 58.141366
 1745         hx     58    bbb     H3   1745 0.12219000   1.008000   ; qtot 58.263556
 1746         hx     58    bbb     H4   1746 0.12219000   1.008000   ; qtot 58.385746
 1747         c3     58    bbb     C3   1747 -0.39007700  12.010000   ; qtot 57.995669
 1748         hx     58    bbb     H5   1748 0.14940300   1.008000   ; qtot 58.145072
 1749         hx     58    bbb     H6   1749 0.14940300   1.008000   ; qtot 58.294475
 1750         c3     58    bbb     C4   1750 0.18057300  12.010000   ; qtot 58.475048
 1751         hc     58    bbb     H7   1751 0.01788900   1.008000   ; qtot 58.492937
 1752         hc     58    bbb     H8   1752 0.01788900   1.008000   ; qtot 58.510826
 1753         c3     58    bbb     C5   1753 -0.11337700  12.010000   ; qtot 58.397449
 1754         hc     58    bbb     H9   1754 0.09515400   1.008000   ; qtot 58.492603
 1755         hc     58    bbb    H10   1755 0.09515400   1.008000   ; qtot 58.587757
 1756         c3     58    bbb     C6   1756 -0.11337700  12.010000   ; qtot 58.474380
 1757         hc     58    bbb    H11   1757 0.09515400   1.008000   ; qtot 58.569534
 1758         hc     58    bbb    H12   1758 0.09515400   1.008000   ; qtot 58.664688
 1759         c3     58    bbb     C7   1759 0.21842400  12.010000   ; qtot 58.883112
 1760         h1     58    bbb    H13   1760 0.04500300   1.008000   ; qtot 58.928115
 1761         h1     58    bbb    H14   1761 0.04500300   1.008000   ; qtot 58.973118
 1762         c3     58    bbb     C8   1762 -0.06455200  12.010000   ; qtot 58.908566
 1763         h1     58    bbb    H15   1763 0.13554100   1.008000   ; qtot 59.044107
 1764         h1     58    bbb    H16   1764 0.13554100   1.008000   ; qtot 59.179648
 1765         c3     58    bbb     C9   1765 -0.06455200  12.010000   ; qtot 59.115096
 1766         h1     58    bbb    H17   1766 0.13554100   1.008000   ; qtot 59.250637
 1767         h1     58    bbb    H18   1767 0.13554100   1.008000   ; qtot 59.386178
 1768         os     58    bbb     O1   1768 -0.62587700  16.000000   ; qtot 58.760301
 1769         hn     58    bbb    H19   1769 0.23982500   1.008000   ; qtot 59.000126
; residue   59 bbb rtp bbb q 1.0
 1770         n4     59    bbb     N1   1770 0.03726400  14.010000   ; qtot 59.037390
 1771         c3     59    bbb     C1   1771 -0.07020100  12.010000   ; qtot 58.967189
 1772         hx     59    bbb     H1   1772 0.12219000   1.008000   ; qtot 59.089379
 1773         hx     59    bbb     H2   1773 0.12219000   1.008000   ; qtot 59.211569
 1774         c3     59    bbb     C2   1774 -0.07020100  12.010000   ; qtot 59.141368
 1775         hx     59    bbb     H3   1775 0.12219000   1.008000   ; qtot 59.263558
 1776         hx     59    bbb     H4   1776 0.12219000   1.008000   ; qtot 59.385748
 1777         c3     59    bbb     C3   1777 -0.39007700  12.010000   ; qtot 58.995671
 1778         hx     59    bbb     H5   1778 0.14940300   1.008000   ; qtot 59.145074
 1779         hx     59    bbb     H6   1779 0.14940300   1.008000   ; qtot 59.294477
 1780         c3     59    bbb     C4   1780 0.18057300  12.010000   ; qtot 59.475050
 1781         hc     59    bbb     H7   1781 0.01788900   1.008000   ; qtot 59.492939
 1782         hc     59    bbb     H8   1782 0.01788900   1.008000   ; qtot 59.510828
 1783         c3     59    bbb     C5   1783 -0.11337700  12.010000   ; qtot 59.397451
 1784         hc     59    bbb     H9   1784 0.09515400   1.008000   ; qtot 59.492605
 1785         hc     59    bbb    H10   1785 0.09515400   1.008000   ; qtot 59.587759
 1786         c3     59    bbb     C6   1786 -0.11337700  12.010000   ; qtot 59.474382
 1787         hc     59    bbb    H11   1787 0.09515400   1.008000   ; qtot 59.569536
 1788         hc     59    bbb    H12   1788 0.09515400   1.008000   ; qtot 59.664690
 1789         c3     59    bbb     C7   1789 0.21842400  12.010000   ; qtot 59.883114
 1790         h1     59    bbb    H13   1790 0.04500300   1.008000   ; qtot 59.928117
 1791         h1     59    bbb    H14   1791 0.04500300   1.008000   ; qtot 59.973120
 1792         c3     59    bbb     C8   1792 -0.06455200  12.010000   ; qtot 59.908568
 1793         h1     59    bbb    H15   1793 0.13554100   1.008000   ; qtot 60.044109
 1794         h1     59    bbb    H16   1794 0.13554100   1.008000   ; qtot 60.179650
 1795         c3     59    bbb     C9   1795 -0.06455200  12.010000   ; qtot 60.115098
 1796         h1     59    bbb    H17   1796 0.13554100   1.008000   ; qtot 60.250639
 1797         h1     59    bbb    H18   1797 0.13554100   1.008000   ; qtot 60.386180
 1798         os     59    bbb     O1   1798 -0.62587700  16.000000   ; qtot 59.760303
 1799         hn     59    bbb    H19   1799 0.23982500   1.008000   ; qtot 60.000128
; residue   60 bbb rtp bbb q 1.0
 1800         n4     60    bbb     N1   1800 0.03726400  14.010000   ; qtot 60.037392
 1801         c3     60    bbb     C1   1801 -0.07020100  12.010000   ; qtot 59.967191
 1802         hx     60    bbb     H1   1802 0.12219000   1.008000   ; qtot 60.089381
 1803         hx     60    bbb     H2   1803 0.12219000   1.008000   ; qtot 60.211571
 1804         c3     60    bbb     C2   1804 -0.07020100  12.010000   ; qtot 60.141370
 1805         hx     60    bbb     H3   1805 0.12219000   1.008000   ; qtot 60.263560
 1806         hx     60    bbb     H4   1806 0.12219000   1.008000   ; qtot 60.385750
 1807         c3     60    bbb     C3   1807 -0.39007700  12.010000   ; qtot 59.995673
 1808         hx     60    bbb     H5   1808 0.14940300   1.008000   ; qtot 60.145076
 1809         hx     60    bbb     H6   1809 0.14940300   1.008000   ; qtot 60.294479
 1810         c3     60    bbb     C4   1810 0.18057300  12.010000   ; qtot 60.475052
 1811         hc     60    bbb     H7   1811 0.01788900   1.008000   ; qtot 60.492941
 1812         hc     60    bbb     H8   1812 0.01788900   1.008000   ; qtot 60.510830
 1813         c3     60    bbb     C5   1813 -0.11337700  12.010000   ; qtot 60.397453
 1814         hc     60    bbb     H9   1814 0.09515400   1.008000   ; qtot 60.492607
 1815         hc     60    bbb    H10   1815 0.09515400   1.008000   ; qtot 60.587761
 1816         c3     60    bbb     C6   1816 -0.11337700  12.010000   ; qtot 60.474384
 1817         hc     60    bbb    H11   1817 0.09515400   1.008000   ; qtot 60.569538
 1818         hc     60    bbb    H12   1818 0.09515400   1.008000   ; qtot 60.664692
 1819         c3     60    bbb     C7   1819 0.21842400  12.010000   ; qtot 60.883116
 1820         h1     60    bbb    H13   1820 0.04500300   1.008000   ; qtot 60.928119
 1821         h1     60    bbb    H14   1821 0.04500300   1.008000   ; qtot 60.973122
 1822         c3     60    bbb     C8   1822 -0.06455200  12.010000   ; qtot 60.908570
 1823         h1     60    bbb    H15   1823 0.13554100   1.008000   ; qtot 61.044111
 1824         h1     60    bbb    H16   1824 0.13554100   1.008000   ; qtot 61.179652
 1825         c3     60    bbb     C9   1825 -0.06455200  12.010000   ; qtot 61.115100
 1826         h1     60    bbb    H17   1826 0.13554100   1.008000   ; qtot 61.250641
 1827         h1     60    bbb    H18   1827 0.13554100   1.008000   ; qtot 61.386182
 1828         os     60    bbb     O1   1828 -0.62587700  16.000000   ; qtot 60.760305
 1829         hn     60    bbb    H19   1829 0.23982500   1.008000   ; qtot 61.000130
; residue   61 bbb rtp bbb q 1.0
 1830         n4     61    bbb     N1   1830 0.03726400  14.010000   ; qtot 61.037394
 1831         c3     61    bbb     C1   1831 -0.07020100  12.010000   ; qtot 60.967193
 1832         hx     61    bbb     H1   1832 0.12219000   1.008000   ; qtot 61.089383
 1833         hx     61    bbb     H2   1833 0.12219000   1.008000   ; qtot 61.211573
 1834         c3     61    bbb     C2   1834 -0.07020100  12.010000   ; qtot 61.141372
 1835         hx     61    bbb     H3   1835 0.12219000   1.008000   ; qtot 61.263562
 1836         hx     61    bbb     H4   1836 0.12219000   1.008000   ; qtot 61.385752
 1837         c3     61    bbb     C3   1837 -0.39007700  12.010000   ; qtot 60.995675
 1838         hx     61    bbb     H5   1838 0.14940300   1.008000   ; qtot 61.145078
 1839         hx     61    bbb     H6   1839 0.14940300   1.008000   ; qtot 61.294481
 1840         c3     61    bbb     C4   1840 0.18057300  12.010000   ; qtot 61.475054
 1841         hc     61    bbb     H7   1841 0.01788900   1.008000   ; qtot 61.492943
 1842         hc     61    bbb     H8   1842 0.01788900   1.008000   ; qtot 61.510832
 1843         c3     61    bbb     C5   1843 -0.11337700  12.010000   ; qtot 61.397455
 1844         hc     61    bbb     H9   1844 0.09515400   1.008000   ; qtot 61.492609
 1845         hc     61    bbb    H10   1845 0.09515400   1.008000   ; qtot 61.587763
 1846         c3     61    bbb     C6   1846 -0.11337700  12.010000   ; qtot 61.474386
 1847         hc     61    bbb    H11   1847 0.09515400   1.008000   ; qtot 61.569540
 1848         hc     61    bbb    H12   1848 0.09515400   1.008000   ; qtot 61.664694
 1849         c3     61    bbb     C7   1849 0.21842400  12.010000   ; qtot 61.883118
 1850         h1     61    bbb    H13   1850 0.04500300   1.008000   ; qtot 61.928121
 1851         h1     61    bbb    H14   1851 0.04500300   1.008000   ; qtot 61.973124
 1852         c3     61    bbb     C8   1852 -0.06455200  12.010000   ; qtot 61.908572
 1853         h1     61    bbb    H15   1853 0.13554100   1.008000   ; qtot 62.044113
 1854         h1     61    bbb    H16   1854 0.13554100   1.008000   ; qtot 62.179654
 1855         c3     61    bbb     C9   1855 -0.06455200  12.010000   ; qtot 62.115102
 1856         h1     61    bbb    H17   1856 0.13554100   1.008000   ; qtot 62.250643
 1857         h1     61    bbb    H18   1857 0.13554100   1.008000   ; qtot 62.386184
 1858         os     61    bbb     O1   1858 -0.62587700  16.000000   ; qtot 61.760307
 1859         hn     61    bbb    H19   1859 0.23982500   1.008000   ; qtot 62.000132
; residue   62 bbb rtp bbb q 1.0
 1860         n4     62    bbb     N1   1860 0.03726400  14.010000   ; qtot 62.037396
 1861         c3     62    bbb     C1   1861 -0.07020100  12.010000   ; qtot 61.967195
 1862         hx     62    bbb     H1   1862 0.12219000   1.008000   ; qtot 62.089385
 1863         hx     62    bbb     H2   1863 0.12219000   1.008000   ; qtot 62.211575
 1864         c3     62    bbb     C2   1864 -0.07020100  12.010000   ; qtot 62.141374
 1865         hx     62    bbb     H3   1865 0.12219000   1.008000   ; qtot 62.263564
 1866         hx     62    bbb     H4   1866 0.12219000   1.008000   ; qtot 62.385754
 1867         c3     62    bbb     C3   1867 -0.39007700  12.010000   ; qtot 61.995677
 1868         hx     62    bbb     H5   1868 0.14940300   1.008000   ; qtot 62.145080
 1869         hx     62    bbb     H6   1869 0.14940300   1.008000   ; qtot 62.294483
 1870         c3     62    bbb     C4   1870 0.18057300  12.010000   ; qtot 62.475056
 1871         hc     62    bbb     H7   1871 0.01788900   1.008000   ; qtot 62.492945
 1872         hc     62    bbb     H8   1872 0.01788900   1.008000   ; qtot 62.510834
 1873         c3     62    bbb     C5   1873 -0.11337700  12.010000   ; qtot 62.397457
 1874         hc     62    bbb     H9   1874 0.09515400   1.008000   ; qtot 62.492611
 1875         hc     62    bbb    H10   1875 0.09515400   1.008000   ; qtot 62.587765
 1876         c3     62    bbb     C6   1876 -0.11337700  12.010000   ; qtot 62.474388
 1877         hc     62    bbb    H11   1877 0.09515400   1.008000   ; qtot 62.569542
 1878         hc     62    bbb    H12   1878 0.09515400   1.008000   ; qtot 62.664696
 1879         c3     62    bbb     C7   1879 0.21842400  12.010000   ; qtot 62.883120
 1880         h1     62    bbb    H13   1880 0.04500300   1.008000   ; qtot 62.928123
 1881         h1     62    bbb    H14   1881 0.04500300   1.008000   ; qtot 62.973126
 1882         c3     62    bbb     C8   1882 -0.06455200  12.010000   ; qtot 62.908574
 1883         h1     62    bbb    H15   1883 0.13554100   1.008000   ; qtot 63.044115
 1884         h1     62    bbb    H16   1884 0.13554100   1.008000   ; qtot 63.179656
 1885         c3     62    bbb     C9   1885 -0.06455200  12.010000   ; qtot 63.115104
 1886         h1     62    bbb    H17   1886 0.13554100   1.008000   ; qtot 63.250645
 1887         h1     62    bbb    H18   1887 0.13554100   1.008000   ; qtot 63.386186
 1888         os     62    bbb     O1   1888 -0.62587700  16.000000   ; qtot 62.760309
 1889         hn     62    bbb    H19   1889 0.23982500   1.008000   ; qtot 63.000134
; residue   63 bbb rtp bbb q 1.0
 1890         n4     63    bbb     N1   1890 0.03726400  14.010000   ; qtot 63.037398
 1891         c3     63    bbb     C1   1891 -0.07020100  12.010000   ; qtot 62.967197
 1892         hx     63    bbb     H1   1892 0.12219000   1.008000   ; qtot 63.089387
 1893         hx     63    bbb     H2   1893 0.12219000   1.008000   ; qtot 63.211577
 1894         c3     63    bbb     C2   1894 -0.07020100  12.010000   ; qtot 63.141376
 1895         hx     63    bbb     H3   1895 0.12219000   1.008000   ; qtot 63.263566
 1896         hx     63    bbb     H4   1896 0.12219000   1.008000   ; qtot 63.385756
 1897         c3     63    bbb     C3   1897 -0.39007700  12.010000   ; qtot 62.995679
 1898         hx     63    bbb     H5   1898 0.14940300   1.008000   ; qtot 63.145082
 1899         hx     63    bbb     H6   1899 0.14940300   1.008000   ; qtot 63.294485
 1900         c3     63    bbb     C4   1900 0.18057300  12.010000   ; qtot 63.475058
 1901         hc     63    bbb     H7   1901 0.01788900   1.008000   ; qtot 63.492947
 1902         hc     63    bbb     H8   1902 0.01788900   1.008000   ; qtot 63.510836
 1903         c3     63    bbb     C5   1903 -0.11337700  12.010000   ; qtot 63.397459
 1904         hc     63    bbb     H9   1904 0.09515400   1.008000   ; qtot 63.492613
 1905         hc     63    bbb    H10   1905 0.09515400   1.008000   ; qtot 63.587767
 1906         c3     63    bbb     C6   1906 -0.11337700  12.010000   ; qtot 63.474390
 1907         hc     63    bbb    H11   1907 0.09515400   1.008000   ; qtot 63.569544
 1908         hc     63    bbb    H12   1908 0.09515400   1.008000   ; qtot 63.664698
 1909         c3     63    bbb     C7   1909 0.21842400  12.010000   ; qtot 63.883122
 1910         h1     63    bbb    H13   1910 0.04500300   1.008000   ; qtot 63.928125
 1911         h1     63    bbb    H14   1911 0.04500300   1.008000   ; qtot 63.973128
 1912         c3     63    bbb     C8   1912 -0.06455200  12.010000   ; qtot 63.908576
 1913         h1     63    bbb    H15   1913 0.13554100   1.008000   ; qtot 64.044117
 1914         h1     63    bbb    H16   1914 0.13554100   1.008000   ; qtot 64.179658
 1915         c3     63    bbb     C9   1915 -0.06455200  12.010000   ; qtot 64.115106
 1916         h1     63    bbb    H17   1916 0.13554100   1.008000   ; qtot 64.250647
 1917         h1     63    bbb    H18   1917 0.13554100   1.008000   ; qtot 64.386188
 1918         os     63    bbb     O1   1918 -0.62587700  16.000000   ; qtot 63.760311
 1919         hn     63    bbb    H19   1919 0.23982500   1.008000   ; qtot 64.000136
; residue   64 bbb rtp bbb q 1.0
 1920         n4     64    bbb     N1   1920 0.03726400  14.010000   ; qtot 64.037400
 1921         c3     64    bbb     C1   1921 -0.07020100  12.010000   ; qtot 63.967199
 1922         hx     64    bbb     H1   1922 0.12219000   1.008000   ; qtot 64.089389
 1923         hx     64    bbb     H2   1923 0.12219000   1.008000   ; qtot 64.211579
 1924         c3     64    bbb     C2   1924 -0.07020100  12.010000   ; qtot 64.141378
 1925         hx     64    bbb     H3   1925 0.12219000   1.008000   ; qtot 64.263568
 1926         hx     64    bbb     H4   1926 0.12219000   1.008000   ; qtot 64.385758
 1927         c3     64    bbb     C3   1927 -0.39007700  12.010000   ; qtot 63.995681
 1928         hx     64    bbb     H5   1928 0.14940300   1.008000   ; qtot 64.145084
 1929         hx     64    bbb     H6   1929 0.14940300   1.008000   ; qtot 64.294487
 1930         c3     64    bbb     C4   1930 0.18057300  12.010000   ; qtot 64.475060
 1931         hc     64    bbb     H7   1931 0.01788900   1.008000   ; qtot 64.492949
 1932         hc     64    bbb     H8   1932 0.01788900   1.008000   ; qtot 64.510838
 1933         c3     64    bbb     C5   1933 -0.11337700  12.010000   ; qtot 64.397461
 1934         hc     64    bbb     H9   1934 0.09515400   1.008000   ; qtot 64.492615
 1935         hc     64    bbb    H10   1935 0.09515400   1.008000   ; qtot 64.587769
 1936         c3     64    bbb     C6   1936 -0.11337700  12.010000   ; qtot 64.474392
 1937         hc     64    bbb    H11   1937 0.09515400   1.008000   ; qtot 64.569546
 1938         hc     64    bbb    H12   1938 0.09515400   1.008000   ; qtot 64.664700
 1939         c3     64    bbb     C7   1939 0.21842400  12.010000   ; qtot 64.883124
 1940         h1     64    bbb    H13   1940 0.04500300   1.008000   ; qtot 64.928127
 1941         h1     64    bbb    H14   1941 0.04500300   1.008000   ; qtot 64.973130
 1942         c3     64    bbb     C8   1942 -0.06455200  12.010000   ; qtot 64.908578
 1943         h1     64    bbb    H15   1943 0.13554100   1.008000   ; qtot 65.044119
 1944         h1     64    bbb    H16   1944 0.13554100   1.008000   ; qtot 65.179660
 1945         c3     64    bbb     C9   1945 -0.06455200  12.010000   ; qtot 65.115108
 1946         h1     64    bbb    H17   1946 0.13554100   1.008000   ; qtot 65.250649
 1947         h1     64    bbb    H18   1947 0.13554100   1.008000   ; qtot 65.386190
 1948         os     64    bbb     O1   1948 -0.62587700  16.000000   ; qtot 64.760313
 1949         hn     64    bbb    H19   1949 0.23982500   1.008000   ; qtot 65.000138
; residue   65 bbb rtp bbb q 1.0
 1950         n4     65    bbb     N1   1950 0.03726400  14.010000   ; qtot 65.037402
 1951         c3     65    bbb     C1   1951 -0.07020100  12.010000   ; qtot 64.967201
 1952         hx     65    bbb     H1   1952 0.12219000   1.008000   ; qtot 65.089391
 1953         hx     65    bbb     H2   1953 0.12219000   1.008000   ; qtot 65.211581
 1954         c3     65    bbb     C2   1954 -0.07020100  12.010000   ; qtot 65.141380
 1955         hx     65    bbb     H3   1955 0.12219000   1.008000   ; qtot 65.263570
 1956         hx     65    bbb     H4   1956 0.12219000   1.008000   ; qtot 65.385760
 1957         c3     65    bbb     C3   1957 -0.39007700  12.010000   ; qtot 64.995683
 1958         hx     65    bbb     H5   1958 0.14940300   1.008000   ; qtot 65.145086
 1959         hx     65    bbb     H6   1959 0.14940300   1.008000   ; qtot 65.294489
 1960         c3     65    bbb     C4   1960 0.18057300  12.010000   ; qtot 65.475062
 1961         hc     65    bbb     H7   1961 0.01788900   1.008000   ; qtot 65.492951
 1962         hc     65    bbb     H8   1962 0.01788900   1.008000   ; qtot 65.510840
 1963         c3     65    bbb     C5   1963 -0.11337700  12.010000   ; qtot 65.397463
 1964         hc     65    bbb     H9   1964 0.09515400   1.008000   ; qtot 65.492617
 1965         hc     65    bbb    H10   1965 0.09515400   1.008000   ; qtot 65.587771
 1966         c3     65    bbb     C6   1966 -0.11337700  12.010000   ; qtot 65.474394
 1967         hc     65    bbb    H11   1967 0.09515400   1.008000   ; qtot 65.569548
 1968         hc     65    bbb    H12   1968 0.09515400   1.008000   ; qtot 65.664702
 1969         c3     65    bbb     C7   1969 0.21842400  12.010000   ; qtot 65.883126
 1970         h1     65    bbb    H13   1970 0.04500300   1.008000   ; qtot 65.928129
 1971         h1     65    bbb    H14   1971 0.04500300   1.008000   ; qtot 65.973132
 1972         c3     65    bbb     C8   1972 -0.06455200  12.010000   ; qtot 65.908580
 1973         h1     65    bbb    H15   1973 0.13554100   1.008000   ; qtot 66.044121
 1974         h1     65    bbb    H16   1974 0.13554100   1.008000   ; qtot 66.179662
 1975         c3     65    bbb     C9   1975 -0.06455200  12.010000   ; qtot 66.115110
 1976         h1     65    bbb    H17   1976 0.13554100   1.008000   ; qtot 66.250651
 1977         h1     65    bbb    H18   1977 0.13554100   1.008000   ; qtot 66.386192
 1978         os     65    bbb     O1   1978 -0.62587700  16.000000   ; qtot 65.760315
 1979         hn     65    bbb    H19   1979 0.23982500   1.008000   ; qtot 66.000140
; residue   66 bbb rtp bbb q 1.0
 1980         n4     66    bbb     N1   1980 0.03726400  14.010000   ; qtot 66.037404
 1981         c3     66    bbb     C1   1981 -0.07020100  12.010000   ; qtot 65.967203
 1982         hx     66    bbb     H1   1982 0.12219000   1.008000   ; qtot 66.089393
 1983         hx     66    bbb     H2   1983 0.12219000   1.008000   ; qtot 66.211583
 1984         c3     66    bbb     C2   1984 -0.07020100  12.010000   ; qtot 66.141382
 1985         hx     66    bbb     H3   1985 0.12219000   1.008000   ; qtot 66.263572
 1986         hx     66    bbb     H4   1986 0.12219000   1.008000   ; qtot 66.385762
 1987         c3     66    bbb     C3   1987 -0.39007700  12.010000   ; qtot 65.995685
 1988         hx     66    bbb     H5   1988 0.14940300   1.008000   ; qtot 66.145088
 1989         hx     66    bbb     H6   1989 0.14940300   1.008000   ; qtot 66.294491
 1990         c3     66    bbb     C4   1990 0.18057300  12.010000   ; qtot 66.475064
 1991         hc     66    bbb     H7   1991 0.01788900   1.008000   ; qtot 66.492953
 1992         hc     66    bbb     H8   1992 0.01788900   1.008000   ; qtot 66.510842
 1993         c3     66    bbb     C5   1993 -0.11337700  12.010000   ; qtot 66.397465
 1994         hc     66    bbb     H9   1994 0.09515400   1.008000   ; qtot 66.492619
 1995         hc     66    bbb    H10   1995 0.09515400   1.008000   ; qtot 66.587773
 1996         c3     66    bbb     C6   1996 -0.11337700  12.010000   ; qtot 66.474396
 1997         hc     66    bbb    H11   1997 0.09515400   1.008000   ; qtot 66.569550
 1998         hc     66    bbb    H12   1998 0.09515400   1.008000   ; qtot 66.664704
 1999         c3     66    bbb     C7   1999 0.21842400  12.010000   ; qtot 66.883128
 2000         h1     66    bbb    H13   2000 0.04500300   1.008000   ; qtot 66.928131
 2001         h1     66    bbb    H14   2001 0.04500300   1.008000   ; qtot 66.973134
 2002         c3     66    bbb     C8   2002 -0.06455200  12.010000   ; qtot 66.908582
 2003         h1     66    bbb    H15   2003 0.13554100   1.008000   ; qtot 67.044123
 2004         h1     66    bbb    H16   2004 0.13554100   1.008000   ; qtot 67.179664
 2005         c3     66    bbb     C9   2005 -0.06455200  12.010000   ; qtot 67.115112
 2006         h1     66    bbb    H17   2006 0.13554100   1.008000   ; qtot 67.250653
 2007         h1     66    bbb    H18   2007 0.13554100   1.008000   ; qtot 67.386194
 2008         os     66    bbb     O1   2008 -0.62587700  16.000000   ; qtot 66.760317
 2009         hn     66    bbb    H19   2009 0.23982500   1.008000   ; qtot 67.000142
; residue   67 bbb rtp bbb q 1.0
 2010         n4     67    bbb     N1   2010 0.03726400  14.010000   ; qtot 67.037406
 2011         c3     67    bbb     C1   2011 -0.07020100  12.010000   ; qtot 66.967205
 2012         hx     67    bbb     H1   2012 0.12219000   1.008000   ; qtot 67.089395
 2013         hx     67    bbb     H2   2013 0.12219000   1.008000   ; qtot 67.211585
 2014         c3     67    bbb     C2   2014 -0.07020100  12.010000   ; qtot 67.141384
 2015         hx     67    bbb     H3   2015 0.12219000   1.008000   ; qtot 67.263574
 2016         hx     67    bbb     H4   2016 0.12219000   1.008000   ; qtot 67.385764
 2017         c3     67    bbb     C3   2017 -0.39007700  12.010000   ; qtot 66.995687
 2018         hx     67    bbb     H5   2018 0.14940300   1.008000   ; qtot 67.145090
 2019         hx     67    bbb     H6   2019 0.14940300   1.008000   ; qtot 67.294493
 2020         c3     67    bbb     C4   2020 0.18057300  12.010000   ; qtot 67.475066
 2021         hc     67    bbb     H7   2021 0.01788900   1.008000   ; qtot 67.492955
 2022         hc     67    bbb     H8   2022 0.01788900   1.008000   ; qtot 67.510844
 2023         c3     67    bbb     C5   2023 -0.11337700  12.010000   ; qtot 67.397467
 2024         hc     67    bbb     H9   2024 0.09515400   1.008000   ; qtot 67.492621
 2025         hc     67    bbb    H10   2025 0.09515400   1.008000   ; qtot 67.587775
 2026         c3     67    bbb     C6   2026 -0.11337700  12.010000   ; qtot 67.474398
 2027         hc     67    bbb    H11   2027 0.09515400   1.008000   ; qtot 67.569552
 2028         hc     67    bbb    H12   2028 0.09515400   1.008000   ; qtot 67.664706
 2029         c3     67    bbb     C7   2029 0.21842400  12.010000   ; qtot 67.883130
 2030         h1     67    bbb    H13   2030 0.04500300   1.008000   ; qtot 67.928133
 2031         h1     67    bbb    H14   2031 0.04500300   1.008000   ; qtot 67.973136
 2032         c3     67    bbb     C8   2032 -0.06455200  12.010000   ; qtot 67.908584
 2033         h1     67    bbb    H15   2033 0.13554100   1.008000   ; qtot 68.044125
 2034         h1     67    bbb    H16   2034 0.13554100   1.008000   ; qtot 68.179666
 2035         c3     67    bbb     C9   2035 -0.06455200  12.010000   ; qtot 68.115114
 2036         h1     67    bbb    H17   2036 0.13554100   1.008000   ; qtot 68.250655
 2037         h1     67    bbb    H18   2037 0.13554100   1.008000   ; qtot 68.386196
 2038         os     67    bbb     O1   2038 -0.62587700  16.000000   ; qtot 67.760319
 2039         hn     67    bbb    H19   2039 0.23982500   1.008000   ; qtot 68.000144
; residue   68 bbb rtp bbb q 1.0
 2040         n4     68    bbb     N1   2040 0.03726400  14.010000   ; qtot 68.037408
 2041         c3     68    bbb     C1   2041 -0.07020100  12.010000   ; qtot 67.967207
 2042         hx     68    bbb     H1   2042 0.12219000   1.008000   ; qtot 68.089397
 2043         hx     68    bbb     H2   2043 0.12219000   1.008000   ; qtot 68.211587
 2044         c3     68    bbb     C2   2044 -0.07020100  12.010000   ; qtot 68.141386
 2045         hx     68    bbb     H3   2045 0.12219000   1.008000   ; qtot 68.263576
 2046         hx     68    bbb     H4   2046 0.12219000   1.008000   ; qtot 68.385766
 2047         c3     68    bbb     C3   2047 -0.39007700  12.010000   ; qtot 67.995689
 2048         hx     68    bbb     H5   2048 0.14940300   1.008000   ; qtot 68.145092
 2049         hx     68    bbb     H6   2049 0.14940300   1.008000   ; qtot 68.294495
 2050         c3     68    bbb     C4   2050 0.18057300  12.010000   ; qtot 68.475068
 2051         hc     68    bbb     H7   2051 0.01788900   1.008000   ; qtot 68.492957
 2052         hc     68    bbb     H8   2052 0.01788900   1.008000   ; qtot 68.510846
 2053         c3     68    bbb     C5   2053 -0.11337700  12.010000   ; qtot 68.397469
 2054         hc     68    bbb     H9   2054 0.09515400   1.008000   ; qtot 68.492623
 2055         hc     68    bbb    H10   2055 0.09515400   1.008000   ; qtot 68.587777
 2056         c3     68    bbb     C6   2056 -0.11337700  12.010000   ; qtot 68.474400
 2057         hc     68    bbb    H11   2057 0.09515400   1.008000   ; qtot 68.569554
 2058         hc     68    bbb    H12   2058 0.09515400   1.008000   ; qtot 68.664708
 2059         c3     68    bbb     C7   2059 0.21842400  12.010000   ; qtot 68.883132
 2060         h1     68    bbb    H13   2060 0.04500300   1.008000   ; qtot 68.928135
 2061         h1     68    bbb    H14   2061 0.04500300   1.008000   ; qtot 68.973138
 2062         c3     68    bbb     C8   2062 -0.06455200  12.010000   ; qtot 68.908586
 2063         h1     68    bbb    H15   2063 0.13554100   1.008000   ; qtot 69.044127
 2064         h1     68    bbb    H16   2064 0.13554100   1.008000   ; qtot 69.179668
 2065         c3     68    bbb     C9   2065 -0.06455200  12.010000   ; qtot 69.115116
 2066         h1     68    bbb    H17   2066 0.13554100   1.008000   ; qtot 69.250657
 2067         h1     68    bbb    H18   2067 0.13554100   1.008000   ; qtot 69.386198
 2068         os     68    bbb     O1   2068 -0.62587700  16.000000   ; qtot 68.760321
 2069         hn     68    bbb    H19   2069 0.23982500   1.008000   ; qtot 69.000146
; residue   69 bbb rtp bbb q 1.0
 2070         n4     69    bbb     N1   2070 0.03726400  14.010000   ; qtot 69.037410
 2071         c3     69    bbb     C1   2071 -0.07020100  12.010000   ; qtot 68.967209
 2072         hx     69    bbb     H1   2072 0.12219000   1.008000   ; qtot 69.089399
 2073         hx     69    bbb     H2   2073 0.12219000   1.008000   ; qtot 69.211589
 2074         c3     69    bbb     C2   2074 -0.07020100  12.010000   ; qtot 69.141388
 2075         hx     69    bbb     H3   2075 0.12219000   1.008000   ; qtot 69.263578
 2076         hx     69    bbb     H4   2076 0.12219000   1.008000   ; qtot 69.385768
 2077         c3     69    bbb     C3   2077 -0.39007700  12.010000   ; qtot 68.995691
 2078         hx     69    bbb     H5   2078 0.14940300   1.008000   ; qtot 69.145094
 2079         hx     69    bbb     H6   2079 0.14940300   1.008000   ; qtot 69.294497
 2080         c3     69    bbb     C4   2080 0.18057300  12.010000   ; qtot 69.475070
 2081         hc     69    bbb     H7   2081 0.01788900   1.008000   ; qtot 69.492959
 2082         hc     69    bbb     H8   2082 0.01788900   1.008000   ; qtot 69.510848
 2083         c3     69    bbb     C5   2083 -0.11337700  12.010000   ; qtot 69.397471
 2084         hc     69    bbb     H9   2084 0.09515400   1.008000   ; qtot 69.492625
 2085         hc     69    bbb    H10   2085 0.09515400   1.008000   ; qtot 69.587779
 2086         c3     69    bbb     C6   2086 -0.11337700  12.010000   ; qtot 69.474402
 2087         hc     69    bbb    H11   2087 0.09515400   1.008000   ; qtot 69.569556
 2088         hc     69    bbb    H12   2088 0.09515400   1.008000   ; qtot 69.664710
 2089         c3     69    bbb     C7   2089 0.21842400  12.010000   ; qtot 69.883134
 2090         h1     69    bbb    H13   2090 0.04500300   1.008000   ; qtot 69.928137
 2091         h1     69    bbb    H14   2091 0.04500300   1.008000   ; qtot 69.973140
 2092         c3     69    bbb     C8   2092 -0.06455200  12.010000   ; qtot 69.908588
 2093         h1     69    bbb    H15   2093 0.13554100   1.008000   ; qtot 70.044129
 2094         h1     69    bbb    H16   2094 0.13554100   1.008000   ; qtot 70.179670
 2095         c3     69    bbb     C9   2095 -0.06455200  12.010000   ; qtot 70.115118
 2096         h1     69    bbb    H17   2096 0.13554100   1.008000   ; qtot 70.250659
 2097         h1     69    bbb    H18   2097 0.13554100   1.008000   ; qtot 70.386200
 2098         os     69    bbb     O1   2098 -0.62587700  16.000000   ; qtot 69.760323
 2099         hn     69    bbb    H19   2099 0.23982500   1.008000   ; qtot 70.000148
; residue   70 bbb rtp bbb q 1.0
 2100         n4     70    bbb     N1   2100 0.03726400  14.010000   ; qtot 70.037412
 2101         c3     70    bbb     C1   2101 -0.07020100  12.010000   ; qtot 69.967211
 2102         hx     70    bbb     H1   2102 0.12219000   1.008000   ; qtot 70.089401
 2103         hx     70    bbb     H2   2103 0.12219000   1.008000   ; qtot 70.211591
 2104         c3     70    bbb     C2   2104 -0.07020100  12.010000   ; qtot 70.141390
 2105         hx     70    bbb     H3   2105 0.12219000   1.008000   ; qtot 70.263580
 2106         hx     70    bbb     H4   2106 0.12219000   1.008000   ; qtot 70.385770
 2107         c3     70    bbb     C3   2107 -0.39007700  12.010000   ; qtot 69.995693
 2108         hx     70    bbb     H5   2108 0.14940300   1.008000   ; qtot 70.145096
 2109         hx     70    bbb     H6   2109 0.14940300   1.008000   ; qtot 70.294499
 2110         c3     70    bbb     C4   2110 0.18057300  12.010000   ; qtot 70.475072
 2111         hc     70    bbb     H7   2111 0.01788900   1.008000   ; qtot 70.492961
 2112         hc     70    bbb     H8   2112 0.01788900   1.008000   ; qtot 70.510850
 2113         c3     70    bbb     C5   2113 -0.11337700  12.010000   ; qtot 70.397473
 2114         hc     70    bbb     H9   2114 0.09515400   1.008000   ; qtot 70.492627
 2115         hc     70    bbb    H10   2115 0.09515400   1.008000   ; qtot 70.587781
 2116         c3     70    bbb     C6   2116 -0.11337700  12.010000   ; qtot 70.474404
 2117         hc     70    bbb    H11   2117 0.09515400   1.008000   ; qtot 70.569558
 2118         hc     70    bbb    H12   2118 0.09515400   1.008000   ; qtot 70.664712
 2119         c3     70    bbb     C7   2119 0.21842400  12.010000   ; qtot 70.883136
 2120         h1     70    bbb    H13   2120 0.04500300   1.008000   ; qtot 70.928139
 2121         h1     70    bbb    H14   2121 0.04500300   1.008000   ; qtot 70.973142
 2122         c3     70    bbb     C8   2122 -0.06455200  12.010000   ; qtot 70.908590
 2123         h1     70    bbb    H15   2123 0.13554100   1.008000   ; qtot 71.044131
 2124         h1     70    bbb    H16   2124 0.13554100   1.008000   ; qtot 71.179672
 2125         c3     70    bbb     C9   2125 -0.06455200  12.010000   ; qtot 71.115120
 2126         h1     70    bbb    H17   2126 0.13554100   1.008000   ; qtot 71.250661
 2127         h1     70    bbb    H18   2127 0.13554100   1.008000   ; qtot 71.386202
 2128         os     70    bbb     O1   2128 -0.62587700  16.000000   ; qtot 70.760325
 2129         hn     70    bbb    H19   2129 0.23982500   1.008000   ; qtot 71.000150
; residue   71 bbb rtp bbb q 1.0
 2130         n4     71    bbb     N1   2130 0.03726400  14.010000   ; qtot 71.037414
 2131         c3     71    bbb     C1   2131 -0.07020100  12.010000   ; qtot 70.967213
 2132         hx     71    bbb     H1   2132 0.12219000   1.008000   ; qtot 71.089403
 2133         hx     71    bbb     H2   2133 0.12219000   1.008000   ; qtot 71.211593
 2134         c3     71    bbb     C2   2134 -0.07020100  12.010000   ; qtot 71.141392
 2135         hx     71    bbb     H3   2135 0.12219000   1.008000   ; qtot 71.263582
 2136         hx     71    bbb     H4   2136 0.12219000   1.008000   ; qtot 71.385772
 2137         c3     71    bbb     C3   2137 -0.39007700  12.010000   ; qtot 70.995695
 2138         hx     71    bbb     H5   2138 0.14940300   1.008000   ; qtot 71.145098
 2139         hx     71    bbb     H6   2139 0.14940300   1.008000   ; qtot 71.294501
 2140         c3     71    bbb     C4   2140 0.18057300  12.010000   ; qtot 71.475074
 2141         hc     71    bbb     H7   2141 0.01788900   1.008000   ; qtot 71.492963
 2142         hc     71    bbb     H8   2142 0.01788900   1.008000   ; qtot 71.510852
 2143         c3     71    bbb     C5   2143 -0.11337700  12.010000   ; qtot 71.397475
 2144         hc     71    bbb     H9   2144 0.09515400   1.008000   ; qtot 71.492629
 2145         hc     71    bbb    H10   2145 0.09515400   1.008000   ; qtot 71.587783
 2146         c3     71    bbb     C6   2146 -0.11337700  12.010000   ; qtot 71.474406
 2147         hc     71    bbb    H11   2147 0.09515400   1.008000   ; qtot 71.569560
 2148         hc     71    bbb    H12   2148 0.09515400   1.008000   ; qtot 71.664714
 2149         c3     71    bbb     C7   2149 0.21842400  12.010000   ; qtot 71.883138
 2150         h1     71    bbb    H13   2150 0.04500300   1.008000   ; qtot 71.928141
 2151         h1     71    bbb    H14   2151 0.04500300   1.008000   ; qtot 71.973144
 2152         c3     71    bbb     C8   2152 -0.06455200  12.010000   ; qtot 71.908592
 2153         h1     71    bbb    H15   2153 0.13554100   1.008000   ; qtot 72.044133
 2154         h1     71    bbb    H16   2154 0.13554100   1.008000   ; qtot 72.179674
 2155         c3     71    bbb     C9   2155 -0.06455200  12.010000   ; qtot 72.115122
 2156         h1     71    bbb    H17   2156 0.13554100   1.008000   ; qtot 72.250663
 2157         h1     71    bbb    H18   2157 0.13554100   1.008000   ; qtot 72.386204
 2158         os     71    bbb     O1   2158 -0.62587700  16.000000   ; qtot 71.760327
 2159         hn     71    bbb    H19   2159 0.23982500   1.008000   ; qtot 72.000152
; residue   72 bbb rtp bbb q 1.0
 2160         n4     72    bbb     N1   2160 0.03726400  14.010000   ; qtot 72.037416
 2161         c3     72    bbb     C1   2161 -0.07020100  12.010000   ; qtot 71.967215
 2162         hx     72    bbb     H1   2162 0.12219000   1.008000   ; qtot 72.089405
 2163         hx     72    bbb     H2   2163 0.12219000   1.008000   ; qtot 72.211595
 2164         c3     72    bbb     C2   2164 -0.07020100  12.010000   ; qtot 72.141394
 2165         hx     72    bbb     H3   2165 0.12219000   1.008000   ; qtot 72.263584
 2166         hx     72    bbb     H4   2166 0.12219000   1.008000   ; qtot 72.385774
 2167         c3     72    bbb     C3   2167 -0.39007700  12.010000   ; qtot 71.995697
 2168         hx     72    bbb     H5   2168 0.14940300   1.008000   ; qtot 72.145100
 2169         hx     72    bbb     H6   2169 0.14940300   1.008000   ; qtot 72.294503
 2170         c3     72    bbb     C4   2170 0.18057300  12.010000   ; qtot 72.475076
 2171         hc     72    bbb     H7   2171 0.01788900   1.008000   ; qtot 72.492965
 2172         hc     72    bbb     H8   2172 0.01788900   1.008000   ; qtot 72.510854
 2173         c3     72    bbb     C5   2173 -0.11337700  12.010000   ; qtot 72.397477
 2174         hc     72    bbb     H9   2174 0.09515400   1.008000   ; qtot 72.492631
 2175         hc     72    bbb    H10   2175 0.09515400   1.008000   ; qtot 72.587785
 2176         c3     72    bbb     C6   2176 -0.11337700  12.010000   ; qtot 72.474408
 2177         hc     72    bbb    H11   2177 0.09515400   1.008000   ; qtot 72.569562
 2178         hc     72    bbb    H12   2178 0.09515400   1.008000   ; qtot 72.664716
 2179         c3     72    bbb     C7   2179 0.21842400  12.010000   ; qtot 72.883140
 2180         h1     72    bbb    H13   2180 0.04500300   1.008000   ; qtot 72.928143
 2181         h1     72    bbb    H14   2181 0.04500300   1.008000   ; qtot 72.973146
 2182         c3     72    bbb     C8   2182 -0.06455200  12.010000   ; qtot 72.908594
 2183         h1     72    bbb    H15   2183 0.13554100   1.008000   ; qtot 73.044135
 2184         h1     72    bbb    H16   2184 0.13554100   1.008000   ; qtot 73.179676
 2185         c3     72    bbb     C9   2185 -0.06455200  12.010000   ; qtot 73.115124
 2186         h1     72    bbb    H17   2186 0.13554100   1.008000   ; qtot 73.250665
 2187         h1     72    bbb    H18   2187 0.13554100   1.008000   ; qtot 73.386206
 2188         os     72    bbb     O1   2188 -0.62587700  16.000000   ; qtot 72.760329
 2189         hn     72    bbb    H19   2189 0.23982500   1.008000   ; qtot 73.000154
; residue   73 bbb rtp bbb q 1.0
 2190         n4     73    bbb     N1   2190 0.03726400  14.010000   ; qtot 73.037418
 2191         c3     73    bbb     C1   2191 -0.07020100  12.010000   ; qtot 72.967217
 2192         hx     73    bbb     H1   2192 0.12219000   1.008000   ; qtot 73.089407
 2193         hx     73    bbb     H2   2193 0.12219000   1.008000   ; qtot 73.211597
 2194         c3     73    bbb     C2   2194 -0.07020100  12.010000   ; qtot 73.141396
 2195         hx     73    bbb     H3   2195 0.12219000   1.008000   ; qtot 73.263586
 2196         hx     73    bbb     H4   2196 0.12219000   1.008000   ; qtot 73.385776
 2197         c3     73    bbb     C3   2197 -0.39007700  12.010000   ; qtot 72.995699
 2198         hx     73    bbb     H5   2198 0.14940300   1.008000   ; qtot 73.145102
 2199         hx     73    bbb     H6   2199 0.14940300   1.008000   ; qtot 73.294505
 2200         c3     73    bbb     C4   2200 0.18057300  12.010000   ; qtot 73.475078
 2201         hc     73    bbb     H7   2201 0.01788900   1.008000   ; qtot 73.492967
 2202         hc     73    bbb     H8   2202 0.01788900   1.008000   ; qtot 73.510856
 2203         c3     73    bbb     C5   2203 -0.11337700  12.010000   ; qtot 73.397479
 2204         hc     73    bbb     H9   2204 0.09515400   1.008000   ; qtot 73.492633
 2205         hc     73    bbb    H10   2205 0.09515400   1.008000   ; qtot 73.587787
 2206         c3     73    bbb     C6   2206 -0.11337700  12.010000   ; qtot 73.474410
 2207         hc     73    bbb    H11   2207 0.09515400   1.008000   ; qtot 73.569564
 2208         hc     73    bbb    H12   2208 0.09515400   1.008000   ; qtot 73.664718
 2209         c3     73    bbb     C7   2209 0.21842400  12.010000   ; qtot 73.883142
 2210         h1     73    bbb    H13   2210 0.04500300   1.008000   ; qtot 73.928145
 2211         h1     73    bbb    H14   2211 0.04500300   1.008000   ; qtot 73.973148
 2212         c3     73    bbb     C8   2212 -0.06455200  12.010000   ; qtot 73.908596
 2213         h1     73    bbb    H15   2213 0.13554100   1.008000   ; qtot 74.044137
 2214         h1     73    bbb    H16   2214 0.13554100   1.008000   ; qtot 74.179678
 2215         c3     73    bbb     C9   2215 -0.06455200  12.010000   ; qtot 74.115126
 2216         h1     73    bbb    H17   2216 0.13554100   1.008000   ; qtot 74.250667
 2217         h1     73    bbb    H18   2217 0.13554100   1.008000   ; qtot 74.386208
 2218         os     73    bbb     O1   2218 -0.62587700  16.000000   ; qtot 73.760331
 2219         hn     73    bbb    H19   2219 0.23982500   1.008000   ; qtot 74.000156
; residue   74 bbb rtp bbb q 1.0
 2220         n4     74    bbb     N1   2220 0.03726400  14.010000   ; qtot 74.037420
 2221         c3     74    bbb     C1   2221 -0.07020100  12.010000   ; qtot 73.967219
 2222         hx     74    bbb     H1   2222 0.12219000   1.008000   ; qtot 74.089409
 2223         hx     74    bbb     H2   2223 0.12219000   1.008000   ; qtot 74.211599
 2224         c3     74    bbb     C2   2224 -0.07020100  12.010000   ; qtot 74.141398
 2225         hx     74    bbb     H3   2225 0.12219000   1.008000   ; qtot 74.263588
 2226         hx     74    bbb     H4   2226 0.12219000   1.008000   ; qtot 74.385778
 2227         c3     74    bbb     C3   2227 -0.39007700  12.010000   ; qtot 73.995701
 2228         hx     74    bbb     H5   2228 0.14940300   1.008000   ; qtot 74.145104
 2229         hx     74    bbb     H6   2229 0.14940300   1.008000   ; qtot 74.294507
 2230         c3     74    bbb     C4   2230 0.18057300  12.010000   ; qtot 74.475080
 2231         hc     74    bbb     H7   2231 0.01788900   1.008000   ; qtot 74.492969
 2232         hc     74    bbb     H8   2232 0.01788900   1.008000   ; qtot 74.510858
 2233         c3     74    bbb     C5   2233 -0.11337700  12.010000   ; qtot 74.397481
 2234         hc     74    bbb     H9   2234 0.09515400   1.008000   ; qtot 74.492635
 2235         hc     74    bbb    H10   2235 0.09515400   1.008000   ; qtot 74.587789
 2236         c3     74    bbb     C6   2236 -0.11337700  12.010000   ; qtot 74.474412
 2237         hc     74    bbb    H11   2237 0.09515400   1.008000   ; qtot 74.569566
 2238         hc     74    bbb    H12   2238 0.09515400   1.008000   ; qtot 74.664720
 2239         c3     74    bbb     C7   2239 0.21842400  12.010000   ; qtot 74.883144
 2240         h1     74    bbb    H13   2240 0.04500300   1.008000   ; qtot 74.928147
 2241         h1     74    bbb    H14   2241 0.04500300   1.008000   ; qtot 74.973150
 2242         c3     74    bbb     C8   2242 -0.06455200  12.010000   ; qtot 74.908598
 2243         h1     74    bbb    H15   2243 0.13554100   1.008000   ; qtot 75.044139
 2244         h1     74    bbb    H16   2244 0.13554100   1.008000   ; qtot 75.179680
 2245         c3     74    bbb     C9   2245 -0.06455200  12.010000   ; qtot 75.115128
 2246         h1     74    bbb    H17   2246 0.13554100   1.008000   ; qtot 75.250669
 2247         h1     74    bbb    H18   2247 0.13554100   1.008000   ; qtot 75.386210
 2248         os     74    bbb     O1   2248 -0.62587700  16.000000   ; qtot 74.760333
 2249         hn     74    bbb    H19   2249 0.23982500   1.008000   ; qtot 75.000158
; residue   75 bbb rtp bbb q 1.0
 2250         n4     75    bbb     N1   2250 0.03726400  14.010000   ; qtot 75.037422
 2251         c3     75    bbb     C1   2251 -0.07020100  12.010000   ; qtot 74.967221
 2252         hx     75    bbb     H1   2252 0.12219000   1.008000   ; qtot 75.089411
 2253         hx     75    bbb     H2   2253 0.12219000   1.008000   ; qtot 75.211601
 2254         c3     75    bbb     C2   2254 -0.07020100  12.010000   ; qtot 75.141400
 2255         hx     75    bbb     H3   2255 0.12219000   1.008000   ; qtot 75.263590
 2256         hx     75    bbb     H4   2256 0.12219000   1.008000   ; qtot 75.385780
 2257         c3     75    bbb     C3   2257 -0.39007700  12.010000   ; qtot 74.995703
 2258         hx     75    bbb     H5   2258 0.14940300   1.008000   ; qtot 75.145106
 2259         hx     75    bbb     H6   2259 0.14940300   1.008000   ; qtot 75.294509
 2260         c3     75    bbb     C4   2260 0.18057300  12.010000   ; qtot 75.475082
 2261         hc     75    bbb     H7   2261 0.01788900   1.008000   ; qtot 75.492971
 2262         hc     75    bbb     H8   2262 0.01788900   1.008000   ; qtot 75.510860
 2263         c3     75    bbb     C5   2263 -0.11337700  12.010000   ; qtot 75.397483
 2264         hc     75    bbb     H9   2264 0.09515400   1.008000   ; qtot 75.492637
 2265         hc     75    bbb    H10   2265 0.09515400   1.008000   ; qtot 75.587791
 2266         c3     75    bbb     C6   2266 -0.11337700  12.010000   ; qtot 75.474414
 2267         hc     75    bbb    H11   2267 0.09515400   1.008000   ; qtot 75.569568
 2268         hc     75    bbb    H12   2268 0.09515400   1.008000   ; qtot 75.664722
 2269         c3     75    bbb     C7   2269 0.21842400  12.010000   ; qtot 75.883146
 2270         h1     75    bbb    H13   2270 0.04500300   1.008000   ; qtot 75.928149
 2271         h1     75    bbb    H14   2271 0.04500300   1.008000   ; qtot 75.973152
 2272         c3     75    bbb     C8   2272 -0.06455200  12.010000   ; qtot 75.908600
 2273         h1     75    bbb    H15   2273 0.13554100   1.008000   ; qtot 76.044141
 2274         h1     75    bbb    H16   2274 0.13554100   1.008000   ; qtot 76.179682
 2275         c3     75    bbb     C9   2275 -0.06455200  12.010000   ; qtot 76.115130
 2276         h1     75    bbb    H17   2276 0.13554100   1.008000   ; qtot 76.250671
 2277         h1     75    bbb    H18   2277 0.13554100   1.008000   ; qtot 76.386212
 2278         os     75    bbb     O1   2278 -0.62587700  16.000000   ; qtot 75.760335
 2279         hn     75    bbb    H19   2279 0.23982500   1.008000   ; qtot 76.000160
; residue   76 bbb rtp bbb q 1.0
 2280         n4     76    bbb     N1   2280 0.03726400  14.010000   ; qtot 76.037424
 2281         c3     76    bbb     C1   2281 -0.07020100  12.010000   ; qtot 75.967223
 2282         hx     76    bbb     H1   2282 0.12219000   1.008000   ; qtot 76.089413
 2283         hx     76    bbb     H2   2283 0.12219000   1.008000   ; qtot 76.211603
 2284         c3     76    bbb     C2   2284 -0.07020100  12.010000   ; qtot 76.141402
 2285         hx     76    bbb     H3   2285 0.12219000   1.008000   ; qtot 76.263592
 2286         hx     76    bbb     H4   2286 0.12219000   1.008000   ; qtot 76.385782
 2287         c3     76    bbb     C3   2287 -0.39007700  12.010000   ; qtot 75.995705
 2288         hx     76    bbb     H5   2288 0.14940300   1.008000   ; qtot 76.145108
 2289         hx     76    bbb     H6   2289 0.14940300   1.008000   ; qtot 76.294511
 2290         c3     76    bbb     C4   2290 0.18057300  12.010000   ; qtot 76.475084
 2291         hc     76    bbb     H7   2291 0.01788900   1.008000   ; qtot 76.492973
 2292         hc     76    bbb     H8   2292 0.01788900   1.008000   ; qtot 76.510862
 2293         c3     76    bbb     C5   2293 -0.11337700  12.010000   ; qtot 76.397485
 2294         hc     76    bbb     H9   2294 0.09515400   1.008000   ; qtot 76.492639
 2295         hc     76    bbb    H10   2295 0.09515400   1.008000   ; qtot 76.587793
 2296         c3     76    bbb     C6   2296 -0.11337700  12.010000   ; qtot 76.474416
 2297         hc     76    bbb    H11   2297 0.09515400   1.008000   ; qtot 76.569570
 2298         hc     76    bbb    H12   2298 0.09515400   1.008000   ; qtot 76.664724
 2299         c3     76    bbb     C7   2299 0.21842400  12.010000   ; qtot 76.883148
 2300         h1     76    bbb    H13   2300 0.04500300   1.008000   ; qtot 76.928151
 2301         h1     76    bbb    H14   2301 0.04500300   1.008000   ; qtot 76.973154
 2302         c3     76    bbb     C8   2302 -0.06455200  12.010000   ; qtot 76.908602
 2303         h1     76    bbb    H15   2303 0.13554100   1.008000   ; qtot 77.044143
 2304         h1     76    bbb    H16   2304 0.13554100   1.008000   ; qtot 77.179684
 2305         c3     76    bbb     C9   2305 -0.06455200  12.010000   ; qtot 77.115132
 2306         h1     76    bbb    H17   2306 0.13554100   1.008000   ; qtot 77.250673
 2307         h1     76    bbb    H18   2307 0.13554100   1.008000   ; qtot 77.386214
 2308         os     76    bbb     O1   2308 -0.62587700  16.000000   ; qtot 76.760337
 2309         hn     76    bbb    H19   2309 0.23982500   1.008000   ; qtot 77.000162
; residue   77 bbb rtp bbb q 1.0
 2310         n4     77    bbb     N1   2310 0.03726400  14.010000   ; qtot 77.037426
 2311         c3     77    bbb     C1   2311 -0.07020100  12.010000   ; qtot 76.967225
 2312         hx     77    bbb     H1   2312 0.12219000   1.008000   ; qtot 77.089415
 2313         hx     77    bbb     H2   2313 0.12219000   1.008000   ; qtot 77.211605
 2314         c3     77    bbb     C2   2314 -0.07020100  12.010000   ; qtot 77.141404
 2315         hx     77    bbb     H3   2315 0.12219000   1.008000   ; qtot 77.263594
 2316         hx     77    bbb     H4   2316 0.12219000   1.008000   ; qtot 77.385784
 2317         c3     77    bbb     C3   2317 -0.39007700  12.010000   ; qtot 76.995707
 2318         hx     77    bbb     H5   2318 0.14940300   1.008000   ; qtot 77.145110
 2319         hx     77    bbb     H6   2319 0.14940300   1.008000   ; qtot 77.294513
 2320         c3     77    bbb     C4   2320 0.18057300  12.010000   ; qtot 77.475086
 2321         hc     77    bbb     H7   2321 0.01788900   1.008000   ; qtot 77.492975
 2322         hc     77    bbb     H8   2322 0.01788900   1.008000   ; qtot 77.510864
 2323         c3     77    bbb     C5   2323 -0.11337700  12.010000   ; qtot 77.397487
 2324         hc     77    bbb     H9   2324 0.09515400   1.008000   ; qtot 77.492641
 2325         hc     77    bbb    H10   2325 0.09515400   1.008000   ; qtot 77.587795
 2326         c3     77    bbb     C6   2326 -0.11337700  12.010000   ; qtot 77.474418
 2327         hc     77    bbb    H11   2327 0.09515400   1.008000   ; qtot 77.569572
 2328         hc     77    bbb    H12   2328 0.09515400   1.008000   ; qtot 77.664726
 2329         c3     77    bbb     C7   2329 0.21842400  12.010000   ; qtot 77.883150
 2330         h1     77    bbb    H13   2330 0.04500300   1.008000   ; qtot 77.928153
 2331         h1     77    bbb    H14   2331 0.04500300   1.008000   ; qtot 77.973156
 2332         c3     77    bbb     C8   2332 -0.06455200  12.010000   ; qtot 77.908604
 2333         h1     77    bbb    H15   2333 0.13554100   1.008000   ; qtot 78.044145
 2334         h1     77    bbb    H16   2334 0.13554100   1.008000   ; qtot 78.179686
 2335         c3     77    bbb     C9   2335 -0.06455200  12.010000   ; qtot 78.115134
 2336         h1     77    bbb    H17   2336 0.13554100   1.008000   ; qtot 78.250675
 2337         h1     77    bbb    H18   2337 0.13554100   1.008000   ; qtot 78.386216
 2338         os     77    bbb     O1   2338 -0.62587700  16.000000   ; qtot 77.760339
 2339         hn     77    bbb    H19   2339 0.23982500   1.008000   ; qtot 78.000164
; residue   78 bbb rtp bbb q 1.0
 2340         n4     78    bbb     N1   2340 0.03726400  14.010000   ; qtot 78.037428
 2341         c3     78    bbb     C1   2341 -0.07020100  12.010000   ; qtot 77.967227
 2342         hx     78    bbb     H1   2342 0.12219000   1.008000   ; qtot 78.089417
 2343         hx     78    bbb     H2   2343 0.12219000   1.008000   ; qtot 78.211607
 2344         c3     78    bbb     C2   2344 -0.07020100  12.010000   ; qtot 78.141406
 2345         hx     78    bbb     H3   2345 0.12219000   1.008000   ; qtot 78.263596
 2346         hx     78    bbb     H4   2346 0.12219000   1.008000   ; qtot 78.385786
 2347         c3     78    bbb     C3   2347 -0.39007700  12.010000   ; qtot 77.995709
 2348         hx     78    bbb     H5   2348 0.14940300   1.008000   ; qtot 78.145112
 2349         hx     78    bbb     H6   2349 0.14940300   1.008000   ; qtot 78.294515
 2350         c3     78    bbb     C4   2350 0.18057300  12.010000   ; qtot 78.475088
 2351         hc     78    bbb     H7   2351 0.01788900   1.008000   ; qtot 78.492977
 2352         hc     78    bbb     H8   2352 0.01788900   1.008000   ; qtot 78.510866
 2353         c3     78    bbb     C5   2353 -0.11337700  12.010000   ; qtot 78.397489
 2354         hc     78    bbb     H9   2354 0.09515400   1.008000   ; qtot 78.492643
 2355         hc     78    bbb    H10   2355 0.09515400   1.008000   ; qtot 78.587797
 2356         c3     78    bbb     C6   2356 -0.11337700  12.010000   ; qtot 78.474420
 2357         hc     78    bbb    H11   2357 0.09515400   1.008000   ; qtot 78.569574
 2358         hc     78    bbb    H12   2358 0.09515400   1.008000   ; qtot 78.664728
 2359         c3     78    bbb     C7   2359 0.21842400  12.010000   ; qtot 78.883152
 2360         h1     78    bbb    H13   2360 0.04500300   1.008000   ; qtot 78.928155
 2361         h1     78    bbb    H14   2361 0.04500300   1.008000   ; qtot 78.973158
 2362         c3     78    bbb     C8   2362 -0.06455200  12.010000   ; qtot 78.908606
 2363         h1     78    bbb    H15   2363 0.13554100   1.008000   ; qtot 79.044147
 2364         h1     78    bbb    H16   2364 0.13554100   1.008000   ; qtot 79.179688
 2365         c3     78    bbb     C9   2365 -0.06455200  12.010000   ; qtot 79.115136
 2366         h1     78    bbb    H17   2366 0.13554100   1.008000   ; qtot 79.250677
 2367         h1     78    bbb    H18   2367 0.13554100   1.008000   ; qtot 79.386218
 2368         os     78    bbb     O1   2368 -0.62587700  16.000000   ; qtot 78.760341
 2369         hn     78    bbb    H19   2369 0.23982500   1.008000   ; qtot 79.000166
; residue   79 bbb rtp bbb q 1.0
 2370         n4     79    bbb     N1   2370 0.03726400  14.010000   ; qtot 79.037430
 2371         c3     79    bbb     C1   2371 -0.07020100  12.010000   ; qtot 78.967229
 2372         hx     79    bbb     H1   2372 0.12219000   1.008000   ; qtot 79.089419
 2373         hx     79    bbb     H2   2373 0.12219000   1.008000   ; qtot 79.211609
 2374         c3     79    bbb     C2   2374 -0.07020100  12.010000   ; qtot 79.141408
 2375         hx     79    bbb     H3   2375 0.12219000   1.008000   ; qtot 79.263598
 2376         hx     79    bbb     H4   2376 0.12219000   1.008000   ; qtot 79.385788
 2377         c3     79    bbb     C3   2377 -0.39007700  12.010000   ; qtot 78.995711
 2378         hx     79    bbb     H5   2378 0.14940300   1.008000   ; qtot 79.145114
 2379         hx     79    bbb     H6   2379 0.14940300   1.008000   ; qtot 79.294517
 2380         c3     79    bbb     C4   2380 0.18057300  12.010000   ; qtot 79.475090
 2381         hc     79    bbb     H7   2381 0.01788900   1.008000   ; qtot 79.492979
 2382         hc     79    bbb     H8   2382 0.01788900   1.008000   ; qtot 79.510868
 2383         c3     79    bbb     C5   2383 -0.11337700  12.010000   ; qtot 79.397491
 2384         hc     79    bbb     H9   2384 0.09515400   1.008000   ; qtot 79.492645
 2385         hc     79    bbb    H10   2385 0.09515400   1.008000   ; qtot 79.587799
 2386         c3     79    bbb     C6   2386 -0.11337700  12.010000   ; qtot 79.474422
 2387         hc     79    bbb    H11   2387 0.09515400   1.008000   ; qtot 79.569576
 2388         hc     79    bbb    H12   2388 0.09515400   1.008000   ; qtot 79.664730
 2389         c3     79    bbb     C7   2389 0.21842400  12.010000   ; qtot 79.883154
 2390         h1     79    bbb    H13   2390 0.04500300   1.008000   ; qtot 79.928157
 2391         h1     79    bbb    H14   2391 0.04500300   1.008000   ; qtot 79.973160
 2392         c3     79    bbb     C8   2392 -0.06455200  12.010000   ; qtot 79.908608
 2393         h1     79    bbb    H15   2393 0.13554100   1.008000   ; qtot 80.044149
 2394         h1     79    bbb    H16   2394 0.13554100   1.008000   ; qtot 80.179690
 2395         c3     79    bbb     C9   2395 -0.06455200  12.010000   ; qtot 80.115138
 2396         h1     79    bbb    H17   2396 0.13554100   1.008000   ; qtot 80.250679
 2397         h1     79    bbb    H18   2397 0.13554100   1.008000   ; qtot 80.386220
 2398         os     79    bbb     O1   2398 -0.62587700  16.000000   ; qtot 79.760343
 2399         hn     79    bbb    H19   2399 0.23982500   1.008000   ; qtot 80.000168
; residue   80 bbb rtp bbb q 1.0
 2400         n4     80    bbb     N1   2400 0.03726400  14.010000   ; qtot 80.037432
 2401         c3     80    bbb     C1   2401 -0.07020100  12.010000   ; qtot 79.967231
 2402         hx     80    bbb     H1   2402 0.12219000   1.008000   ; qtot 80.089421
 2403         hx     80    bbb     H2   2403 0.12219000   1.008000   ; qtot 80.211611
 2404         c3     80    bbb     C2   2404 -0.07020100  12.010000   ; qtot 80.141410
 2405         hx     80    bbb     H3   2405 0.12219000   1.008000   ; qtot 80.263600
 2406         hx     80    bbb     H4   2406 0.12219000   1.008000   ; qtot 80.385790
 2407         c3     80    bbb     C3   2407 -0.39007700  12.010000   ; qtot 79.995713
 2408         hx     80    bbb     H5   2408 0.14940300   1.008000   ; qtot 80.145116
 2409         hx     80    bbb     H6   2409 0.14940300   1.008000   ; qtot 80.294519
 2410         c3     80    bbb     C4   2410 0.18057300  12.010000   ; qtot 80.475092
 2411         hc     80    bbb     H7   2411 0.01788900   1.008000   ; qtot 80.492981
 2412         hc     80    bbb     H8   2412 0.01788900   1.008000   ; qtot 80.510870
 2413         c3     80    bbb     C5   2413 -0.11337700  12.010000   ; qtot 80.397493
 2414         hc     80    bbb     H9   2414 0.09515400   1.008000   ; qtot 80.492647
 2415         hc     80    bbb    H10   2415 0.09515400   1.008000   ; qtot 80.587801
 2416         c3     80    bbb     C6   2416 -0.11337700  12.010000   ; qtot 80.474424
 2417         hc     80    bbb    H11   2417 0.09515400   1.008000   ; qtot 80.569578
 2418         hc     80    bbb    H12   2418 0.09515400   1.008000   ; qtot 80.664732
 2419         c3     80    bbb     C7   2419 0.21842400  12.010000   ; qtot 80.883156
 2420         h1     80    bbb    H13   2420 0.04500300   1.008000   ; qtot 80.928159
 2421         h1     80    bbb    H14   2421 0.04500300   1.008000   ; qtot 80.973162
 2422         c3     80    bbb     C8   2422 -0.06455200  12.010000   ; qtot 80.908610
 2423         h1     80    bbb    H15   2423 0.13554100   1.008000   ; qtot 81.044151
 2424         h1     80    bbb    H16   2424 0.13554100   1.008000   ; qtot 81.179692
 2425         c3     80    bbb     C9   2425 -0.06455200  12.010000   ; qtot 81.115140
 2426         h1     80    bbb    H17   2426 0.13554100   1.008000   ; qtot 81.250681
 2427         h1     80    bbb    H18   2427 0.13554100   1.008000   ; qtot 81.386222
 2428         os     80    bbb     O1   2428 -0.62587700  16.000000   ; qtot 80.760345
 2429         hn     80    bbb    H19   2429 0.23982500   1.008000   ; qtot 81.000170
; residue   81 bbb rtp bbb q 1.0
 2430         n4     81    bbb     N1   2430 0.03726400  14.010000   ; qtot 81.037434
 2431         c3     81    bbb     C1   2431 -0.07020100  12.010000   ; qtot 80.967233
 2432         hx     81    bbb     H1   2432 0.12219000   1.008000   ; qtot 81.089423
 2433         hx     81    bbb     H2   2433 0.12219000   1.008000   ; qtot 81.211613
 2434         c3     81    bbb     C2   2434 -0.07020100  12.010000   ; qtot 81.141412
 2435         hx     81    bbb     H3   2435 0.12219000   1.008000   ; qtot 81.263602
 2436         hx     81    bbb     H4   2436 0.12219000   1.008000   ; qtot 81.385792
 2437         c3     81    bbb     C3   2437 -0.39007700  12.010000   ; qtot 80.995715
 2438         hx     81    bbb     H5   2438 0.14940300   1.008000   ; qtot 81.145118
 2439         hx     81    bbb     H6   2439 0.14940300   1.008000   ; qtot 81.294521
 2440         c3     81    bbb     C4   2440 0.18057300  12.010000   ; qtot 81.475094
 2441         hc     81    bbb     H7   2441 0.01788900   1.008000   ; qtot 81.492983
 2442         hc     81    bbb     H8   2442 0.01788900   1.008000   ; qtot 81.510872
 2443         c3     81    bbb     C5   2443 -0.11337700  12.010000   ; qtot 81.397495
 2444         hc     81    bbb     H9   2444 0.09515400   1.008000   ; qtot 81.492649
 2445         hc     81    bbb    H10   2445 0.09515400   1.008000   ; qtot 81.587803
 2446         c3     81    bbb     C6   2446 -0.11337700  12.010000   ; qtot 81.474426
 2447         hc     81    bbb    H11   2447 0.09515400   1.008000   ; qtot 81.569580
 2448         hc     81    bbb    H12   2448 0.09515400   1.008000   ; qtot 81.664734
 2449         c3     81    bbb     C7   2449 0.21842400  12.010000   ; qtot 81.883158
 2450         h1     81    bbb    H13   2450 0.04500300   1.008000   ; qtot 81.928161
 2451         h1     81    bbb    H14   2451 0.04500300   1.008000   ; qtot 81.973164
 2452         c3     81    bbb     C8   2452 -0.06455200  12.010000   ; qtot 81.908612
 2453         h1     81    bbb    H15   2453 0.13554100   1.008000   ; qtot 82.044153
 2454         h1     81    bbb    H16   2454 0.13554100   1.008000   ; qtot 82.179694
 2455         c3     81    bbb     C9   2455 -0.06455200  12.010000   ; qtot 82.115142
 2456         h1     81    bbb    H17   2456 0.13554100   1.008000   ; qtot 82.250683
 2457         h1     81    bbb    H18   2457 0.13554100   1.008000   ; qtot 82.386224
 2458         os     81    bbb     O1   2458 -0.62587700  16.000000   ; qtot 81.760347
 2459         hn     81    bbb    H19   2459 0.23982500   1.008000   ; qtot 82.000172
; residue   82 bbb rtp bbb q 1.0
 2460         n4     82    bbb     N1   2460 0.03726400  14.010000   ; qtot 82.037436
 2461         c3     82    bbb     C1   2461 -0.07020100  12.010000   ; qtot 81.967235
 2462         hx     82    bbb     H1   2462 0.12219000   1.008000   ; qtot 82.089425
 2463         hx     82    bbb     H2   2463 0.12219000   1.008000   ; qtot 82.211615
 2464         c3     82    bbb     C2   2464 -0.07020100  12.010000   ; qtot 82.141414
 2465         hx     82    bbb     H3   2465 0.12219000   1.008000   ; qtot 82.263604
 2466         hx     82    bbb     H4   2466 0.12219000   1.008000   ; qtot 82.385794
 2467         c3     82    bbb     C3   2467 -0.39007700  12.010000   ; qtot 81.995717
 2468         hx     82    bbb     H5   2468 0.14940300   1.008000   ; qtot 82.145120
 2469         hx     82    bbb     H6   2469 0.14940300   1.008000   ; qtot 82.294523
 2470         c3     82    bbb     C4   2470 0.18057300  12.010000   ; qtot 82.475096
 2471         hc     82    bbb     H7   2471 0.01788900   1.008000   ; qtot 82.492985
 2472         hc     82    bbb     H8   2472 0.01788900   1.008000   ; qtot 82.510874
 2473         c3     82    bbb     C5   2473 -0.11337700  12.010000   ; qtot 82.397497
 2474         hc     82    bbb     H9   2474 0.09515400   1.008000   ; qtot 82.492651
 2475         hc     82    bbb    H10   2475 0.09515400   1.008000   ; qtot 82.587805
 2476         c3     82    bbb     C6   2476 -0.11337700  12.010000   ; qtot 82.474428
 2477         hc     82    bbb    H11   2477 0.09515400   1.008000   ; qtot 82.569582
 2478         hc     82    bbb    H12   2478 0.09515400   1.008000   ; qtot 82.664736
 2479         c3     82    bbb     C7   2479 0.21842400  12.010000   ; qtot 82.883160
 2480         h1     82    bbb    H13   2480 0.04500300   1.008000   ; qtot 82.928163
 2481         h1     82    bbb    H14   2481 0.04500300   1.008000   ; qtot 82.973166
 2482         c3     82    bbb     C8   2482 -0.06455200  12.010000   ; qtot 82.908614
 2483         h1     82    bbb    H15   2483 0.13554100   1.008000   ; qtot 83.044155
 2484         h1     82    bbb    H16   2484 0.13554100   1.008000   ; qtot 83.179696
 2485         c3     82    bbb     C9   2485 -0.06455200  12.010000   ; qtot 83.115144
 2486         h1     82    bbb    H17   2486 0.13554100   1.008000   ; qtot 83.250685
 2487         h1     82    bbb    H18   2487 0.13554100   1.008000   ; qtot 83.386226
 2488         os     82    bbb     O1   2488 -0.62587700  16.000000   ; qtot 82.760349
 2489         hn     82    bbb    H19   2489 0.23982500   1.008000   ; qtot 83.000174
; residue   83 bbb rtp bbb q 1.0
 2490         n4     83    bbb     N1   2490 0.03726400  14.010000   ; qtot 83.037438
 2491         c3     83    bbb     C1   2491 -0.07020100  12.010000   ; qtot 82.967237
 2492         hx     83    bbb     H1   2492 0.12219000   1.008000   ; qtot 83.089427
 2493         hx     83    bbb     H2   2493 0.12219000   1.008000   ; qtot 83.211617
 2494         c3     83    bbb     C2   2494 -0.07020100  12.010000   ; qtot 83.141416
 2495         hx     83    bbb     H3   2495 0.12219000   1.008000   ; qtot 83.263606
 2496         hx     83    bbb     H4   2496 0.12219000   1.008000   ; qtot 83.385796
 2497         c3     83    bbb     C3   2497 -0.39007700  12.010000   ; qtot 82.995719
 2498         hx     83    bbb     H5   2498 0.14940300   1.008000   ; qtot 83.145122
 2499         hx     83    bbb     H6   2499 0.14940300   1.008000   ; qtot 83.294525
 2500         c3     83    bbb     C4   2500 0.18057300  12.010000   ; qtot 83.475098
 2501         hc     83    bbb     H7   2501 0.01788900   1.008000   ; qtot 83.492987
 2502         hc     83    bbb     H8   2502 0.01788900   1.008000   ; qtot 83.510876
 2503         c3     83    bbb     C5   2503 -0.11337700  12.010000   ; qtot 83.397499
 2504         hc     83    bbb     H9   2504 0.09515400   1.008000   ; qtot 83.492653
 2505         hc     83    bbb    H10   2505 0.09515400   1.008000   ; qtot 83.587807
 2506         c3     83    bbb     C6   2506 -0.11337700  12.010000   ; qtot 83.474430
 2507         hc     83    bbb    H11   2507 0.09515400   1.008000   ; qtot 83.569584
 2508         hc     83    bbb    H12   2508 0.09515400   1.008000   ; qtot 83.664738
 2509         c3     83    bbb     C7   2509 0.21842400  12.010000   ; qtot 83.883162
 2510         h1     83    bbb    H13   2510 0.04500300   1.008000   ; qtot 83.928165
 2511         h1     83    bbb    H14   2511 0.04500300   1.008000   ; qtot 83.973168
 2512         c3     83    bbb     C8   2512 -0.06455200  12.010000   ; qtot 83.908616
 2513         h1     83    bbb    H15   2513 0.13554100   1.008000   ; qtot 84.044157
 2514         h1     83    bbb    H16   2514 0.13554100   1.008000   ; qtot 84.179698
 2515         c3     83    bbb     C9   2515 -0.06455200  12.010000   ; qtot 84.115146
 2516         h1     83    bbb    H17   2516 0.13554100   1.008000   ; qtot 84.250687
 2517         h1     83    bbb    H18   2517 0.13554100   1.008000   ; qtot 84.386228
 2518         os     83    bbb     O1   2518 -0.62587700  16.000000   ; qtot 83.760351
 2519         hn     83    bbb    H19   2519 0.23982500   1.008000   ; qtot 84.000176
; residue   84 bbb rtp bbb q 1.0
 2520         n4     84    bbb     N1   2520 0.03726400  14.010000   ; qtot 84.037440
 2521         c3     84    bbb     C1   2521 -0.07020100  12.010000   ; qtot 83.967239
 2522         hx     84    bbb     H1   2522 0.12219000   1.008000   ; qtot 84.089429
 2523         hx     84    bbb     H2   2523 0.12219000   1.008000   ; qtot 84.211619
 2524         c3     84    bbb     C2   2524 -0.07020100  12.010000   ; qtot 84.141418
 2525         hx     84    bbb     H3   2525 0.12219000   1.008000   ; qtot 84.263608
 2526         hx     84    bbb     H4   2526 0.12219000   1.008000   ; qtot 84.385798
 2527         c3     84    bbb     C3   2527 -0.39007700  12.010000   ; qtot 83.995721
 2528         hx     84    bbb     H5   2528 0.14940300   1.008000   ; qtot 84.145124
 2529         hx     84    bbb     H6   2529 0.14940300   1.008000   ; qtot 84.294527
 2530         c3     84    bbb     C4   2530 0.18057300  12.010000   ; qtot 84.475100
 2531         hc     84    bbb     H7   2531 0.01788900   1.008000   ; qtot 84.492989
 2532         hc     84    bbb     H8   2532 0.01788900   1.008000   ; qtot 84.510878
 2533         c3     84    bbb     C5   2533 -0.11337700  12.010000   ; qtot 84.397501
 2534         hc     84    bbb     H9   2534 0.09515400   1.008000   ; qtot 84.492655
 2535         hc     84    bbb    H10   2535 0.09515400   1.008000   ; qtot 84.587809
 2536         c3     84    bbb     C6   2536 -0.11337700  12.010000   ; qtot 84.474432
 2537         hc     84    bbb    H11   2537 0.09515400   1.008000   ; qtot 84.569586
 2538         hc     84    bbb    H12   2538 0.09515400   1.008000   ; qtot 84.664740
 2539         c3     84    bbb     C7   2539 0.21842400  12.010000   ; qtot 84.883164
 2540         h1     84    bbb    H13   2540 0.04500300   1.008000   ; qtot 84.928167
 2541         h1     84    bbb    H14   2541 0.04500300   1.008000   ; qtot 84.973170
 2542         c3     84    bbb     C8   2542 -0.06455200  12.010000   ; qtot 84.908618
 2543         h1     84    bbb    H15   2543 0.13554100   1.008000   ; qtot 85.044159
 2544         h1     84    bbb    H16   2544 0.13554100   1.008000   ; qtot 85.179700
 2545         c3     84    bbb     C9   2545 -0.06455200  12.010000   ; qtot 85.115148
 2546         h1     84    bbb    H17   2546 0.13554100   1.008000   ; qtot 85.250689
 2547         h1     84    bbb    H18   2547 0.13554100   1.008000   ; qtot 85.386230
 2548         os     84    bbb     O1   2548 -0.62587700  16.000000   ; qtot 84.760353
 2549         hn     84    bbb    H19   2549 0.23982500   1.008000   ; qtot 85.000178
; residue   85 bbb rtp bbb q 1.0
 2550         n4     85    bbb     N1   2550 0.03726400  14.010000   ; qtot 85.037442
 2551         c3     85    bbb     C1   2551 -0.07020100  12.010000   ; qtot 84.967241
 2552         hx     85    bbb     H1   2552 0.12219000   1.008000   ; qtot 85.089431
 2553         hx     85    bbb     H2   2553 0.12219000   1.008000   ; qtot 85.211621
 2554         c3     85    bbb     C2   2554 -0.07020100  12.010000   ; qtot 85.141420
 2555         hx     85    bbb     H3   2555 0.12219000   1.008000   ; qtot 85.263610
 2556         hx     85    bbb     H4   2556 0.12219000   1.008000   ; qtot 85.385800
 2557         c3     85    bbb     C3   2557 -0.39007700  12.010000   ; qtot 84.995723
 2558         hx     85    bbb     H5   2558 0.14940300   1.008000   ; qtot 85.145126
 2559         hx     85    bbb     H6   2559 0.14940300   1.008000   ; qtot 85.294529
 2560         c3     85    bbb     C4   2560 0.18057300  12.010000   ; qtot 85.475102
 2561         hc     85    bbb     H7   2561 0.01788900   1.008000   ; qtot 85.492991
 2562         hc     85    bbb     H8   2562 0.01788900   1.008000   ; qtot 85.510880
 2563         c3     85    bbb     C5   2563 -0.11337700  12.010000   ; qtot 85.397503
 2564         hc     85    bbb     H9   2564 0.09515400   1.008000   ; qtot 85.492657
 2565         hc     85    bbb    H10   2565 0.09515400   1.008000   ; qtot 85.587811
 2566         c3     85    bbb     C6   2566 -0.11337700  12.010000   ; qtot 85.474434
 2567         hc     85    bbb    H11   2567 0.09515400   1.008000   ; qtot 85.569588
 2568         hc     85    bbb    H12   2568 0.09515400   1.008000   ; qtot 85.664742
 2569         c3     85    bbb     C7   2569 0.21842400  12.010000   ; qtot 85.883166
 2570         h1     85    bbb    H13   2570 0.04500300   1.008000   ; qtot 85.928169
 2571         h1     85    bbb    H14   2571 0.04500300   1.008000   ; qtot 85.973172
 2572         c3     85    bbb     C8   2572 -0.06455200  12.010000   ; qtot 85.908620
 2573         h1     85    bbb    H15   2573 0.13554100   1.008000   ; qtot 86.044161
 2574         h1     85    bbb    H16   2574 0.13554100   1.008000   ; qtot 86.179702
 2575         c3     85    bbb     C9   2575 -0.06455200  12.010000   ; qtot 86.115150
 2576         h1     85    bbb    H17   2576 0.13554100   1.008000   ; qtot 86.250691
 2577         h1     85    bbb    H18   2577 0.13554100   1.008000   ; qtot 86.386232
 2578         os     85    bbb     O1   2578 -0.62587700  16.000000   ; qtot 85.760355
 2579         hn     85    bbb    H19   2579 0.23982500   1.008000   ; qtot 86.000180
; residue   86 bbb rtp bbb q 1.0
 2580         n4     86    bbb     N1   2580 0.03726400  14.010000   ; qtot 86.037444
 2581         c3     86    bbb     C1   2581 -0.07020100  12.010000   ; qtot 85.967243
 2582         hx     86    bbb     H1   2582 0.12219000   1.008000   ; qtot 86.089433
 2583         hx     86    bbb     H2   2583 0.12219000   1.008000   ; qtot 86.211623
 2584         c3     86    bbb     C2   2584 -0.07020100  12.010000   ; qtot 86.141422
 2585         hx     86    bbb     H3   2585 0.12219000   1.008000   ; qtot 86.263612
 2586         hx     86    bbb     H4   2586 0.12219000   1.008000   ; qtot 86.385802
 2587         c3     86    bbb     C3   2587 -0.39007700  12.010000   ; qtot 85.995725
 2588         hx     86    bbb     H5   2588 0.14940300   1.008000   ; qtot 86.145128
 2589         hx     86    bbb     H6   2589 0.14940300   1.008000   ; qtot 86.294531
 2590         c3     86    bbb     C4   2590 0.18057300  12.010000   ; qtot 86.475104
 2591         hc     86    bbb     H7   2591 0.01788900   1.008000   ; qtot 86.492993
 2592         hc     86    bbb     H8   2592 0.01788900   1.008000   ; qtot 86.510882
 2593         c3     86    bbb     C5   2593 -0.11337700  12.010000   ; qtot 86.397505
 2594         hc     86    bbb     H9   2594 0.09515400   1.008000   ; qtot 86.492659
 2595         hc     86    bbb    H10   2595 0.09515400   1.008000   ; qtot 86.587813
 2596         c3     86    bbb     C6   2596 -0.11337700  12.010000   ; qtot 86.474436
 2597         hc     86    bbb    H11   2597 0.09515400   1.008000   ; qtot 86.569590
 2598         hc     86    bbb    H12   2598 0.09515400   1.008000   ; qtot 86.664744
 2599         c3     86    bbb     C7   2599 0.21842400  12.010000   ; qtot 86.883168
 2600         h1     86    bbb    H13   2600 0.04500300   1.008000   ; qtot 86.928171
 2601         h1     86    bbb    H14   2601 0.04500300   1.008000   ; qtot 86.973174
 2602         c3     86    bbb     C8   2602 -0.06455200  12.010000   ; qtot 86.908622
 2603         h1     86    bbb    H15   2603 0.13554100   1.008000   ; qtot 87.044163
 2604         h1     86    bbb    H16   2604 0.13554100   1.008000   ; qtot 87.179704
 2605         c3     86    bbb     C9   2605 -0.06455200  12.010000   ; qtot 87.115152
 2606         h1     86    bbb    H17   2606 0.13554100   1.008000   ; qtot 87.250693
 2607         h1     86    bbb    H18   2607 0.13554100   1.008000   ; qtot 87.386234
 2608         os     86    bbb     O1   2608 -0.62587700  16.000000   ; qtot 86.760357
 2609         hn     86    bbb    H19   2609 0.23982500   1.008000   ; qtot 87.000182
; residue   87 bbb rtp bbb q 1.0
 2610         n4     87    bbb     N1   2610 0.03726400  14.010000   ; qtot 87.037446
 2611         c3     87    bbb     C1   2611 -0.07020100  12.010000   ; qtot 86.967245
 2612         hx     87    bbb     H1   2612 0.12219000   1.008000   ; qtot 87.089435
 2613         hx     87    bbb     H2   2613 0.12219000   1.008000   ; qtot 87.211625
 2614         c3     87    bbb     C2   2614 -0.07020100  12.010000   ; qtot 87.141424
 2615         hx     87    bbb     H3   2615 0.12219000   1.008000   ; qtot 87.263614
 2616         hx     87    bbb     H4   2616 0.12219000   1.008000   ; qtot 87.385804
 2617         c3     87    bbb     C3   2617 -0.39007700  12.010000   ; qtot 86.995727
 2618         hx     87    bbb     H5   2618 0.14940300   1.008000   ; qtot 87.145130
 2619         hx     87    bbb     H6   2619 0.14940300   1.008000   ; qtot 87.294533
 2620         c3     87    bbb     C4   2620 0.18057300  12.010000   ; qtot 87.475106
 2621         hc     87    bbb     H7   2621 0.01788900   1.008000   ; qtot 87.492995
 2622         hc     87    bbb     H8   2622 0.01788900   1.008000   ; qtot 87.510884
 2623         c3     87    bbb     C5   2623 -0.11337700  12.010000   ; qtot 87.397507
 2624         hc     87    bbb     H9   2624 0.09515400   1.008000   ; qtot 87.492661
 2625         hc     87    bbb    H10   2625 0.09515400   1.008000   ; qtot 87.587815
 2626         c3     87    bbb     C6   2626 -0.11337700  12.010000   ; qtot 87.474438
 2627         hc     87    bbb    H11   2627 0.09515400   1.008000   ; qtot 87.569592
 2628         hc     87    bbb    H12   2628 0.09515400   1.008000   ; qtot 87.664746
 2629         c3     87    bbb     C7   2629 0.21842400  12.010000   ; qtot 87.883170
 2630         h1     87    bbb    H13   2630 0.04500300   1.008000   ; qtot 87.928173
 2631         h1     87    bbb    H14   2631 0.04500300   1.008000   ; qtot 87.973176
 2632         c3     87    bbb     C8   2632 -0.06455200  12.010000   ; qtot 87.908624
 2633         h1     87    bbb    H15   2633 0.13554100   1.008000   ; qtot 88.044165
 2634         h1     87    bbb    H16   2634 0.13554100   1.008000   ; qtot 88.179706
 2635         c3     87    bbb     C9   2635 -0.06455200  12.010000   ; qtot 88.115154
 2636         h1     87    bbb    H17   2636 0.13554100   1.008000   ; qtot 88.250695
 2637         h1     87    bbb    H18   2637 0.13554100   1.008000   ; qtot 88.386236
 2638         os     87    bbb     O1   2638 -0.62587700  16.000000   ; qtot 87.760359
 2639         hn     87    bbb    H19   2639 0.23982500   1.008000   ; qtot 88.000184
; residue   88 bbb rtp bbb q 1.0
 2640         n4     88    bbb     N1   2640 0.03726400  14.010000   ; qtot 88.037448
 2641         c3     88    bbb     C1   2641 -0.07020100  12.010000   ; qtot 87.967247
 2642         hx     88    bbb     H1   2642 0.12219000   1.008000   ; qtot 88.089437
 2643         hx     88    bbb     H2   2643 0.12219000   1.008000   ; qtot 88.211627
 2644         c3     88    bbb     C2   2644 -0.07020100  12.010000   ; qtot 88.141426
 2645         hx     88    bbb     H3   2645 0.12219000   1.008000   ; qtot 88.263616
 2646         hx     88    bbb     H4   2646 0.12219000   1.008000   ; qtot 88.385806
 2647         c3     88    bbb     C3   2647 -0.39007700  12.010000   ; qtot 87.995729
 2648         hx     88    bbb     H5   2648 0.14940300   1.008000   ; qtot 88.145132
 2649         hx     88    bbb     H6   2649 0.14940300   1.008000   ; qtot 88.294535
 2650         c3     88    bbb     C4   2650 0.18057300  12.010000   ; qtot 88.475108
 2651         hc     88    bbb     H7   2651 0.01788900   1.008000   ; qtot 88.492997
 2652         hc     88    bbb     H8   2652 0.01788900   1.008000   ; qtot 88.510886
 2653         c3     88    bbb     C5   2653 -0.11337700  12.010000   ; qtot 88.397509
 2654         hc     88    bbb     H9   2654 0.09515400   1.008000   ; qtot 88.492663
 2655         hc     88    bbb    H10   2655 0.09515400   1.008000   ; qtot 88.587817
 2656         c3     88    bbb     C6   2656 -0.11337700  12.010000   ; qtot 88.474440
 2657         hc     88    bbb    H11   2657 0.09515400   1.008000   ; qtot 88.569594
 2658         hc     88    bbb    H12   2658 0.09515400   1.008000   ; qtot 88.664748
 2659         c3     88    bbb     C7   2659 0.21842400  12.010000   ; qtot 88.883172
 2660         h1     88    bbb    H13   2660 0.04500300   1.008000   ; qtot 88.928175
 2661         h1     88    bbb    H14   2661 0.04500300   1.008000   ; qtot 88.973178
 2662         c3     88    bbb     C8   2662 -0.06455200  12.010000   ; qtot 88.908626
 2663         h1     88    bbb    H15   2663 0.13554100   1.008000   ; qtot 89.044167
 2664         h1     88    bbb    H16   2664 0.13554100   1.008000   ; qtot 89.179708
 2665         c3     88    bbb     C9   2665 -0.06455200  12.010000   ; qtot 89.115156
 2666         h1     88    bbb    H17   2666 0.13554100   1.008000   ; qtot 89.250697
 2667         h1     88    bbb    H18   2667 0.13554100   1.008000   ; qtot 89.386238
 2668         os     88    bbb     O1   2668 -0.62587700  16.000000   ; qtot 88.760361
 2669         hn     88    bbb    H19   2669 0.23982500   1.008000   ; qtot 89.000186
; residue   89 bbb rtp bbb q 1.0
 2670         n4     89    bbb     N1   2670 0.03726400  14.010000   ; qtot 89.037450
 2671         c3     89    bbb     C1   2671 -0.07020100  12.010000   ; qtot 88.967249
 2672         hx     89    bbb     H1   2672 0.12219000   1.008000   ; qtot 89.089439
 2673         hx     89    bbb     H2   2673 0.12219000   1.008000   ; qtot 89.211629
 2674         c3     89    bbb     C2   2674 -0.07020100  12.010000   ; qtot 89.141428
 2675         hx     89    bbb     H3   2675 0.12219000   1.008000   ; qtot 89.263618
 2676         hx     89    bbb     H4   2676 0.12219000   1.008000   ; qtot 89.385808
 2677         c3     89    bbb     C3   2677 -0.39007700  12.010000   ; qtot 88.995731
 2678         hx     89    bbb     H5   2678 0.14940300   1.008000   ; qtot 89.145134
 2679         hx     89    bbb     H6   2679 0.14940300   1.008000   ; qtot 89.294537
 2680         c3     89    bbb     C4   2680 0.18057300  12.010000   ; qtot 89.475110
 2681         hc     89    bbb     H7   2681 0.01788900   1.008000   ; qtot 89.492999
 2682         hc     89    bbb     H8   2682 0.01788900   1.008000   ; qtot 89.510888
 2683         c3     89    bbb     C5   2683 -0.11337700  12.010000   ; qtot 89.397511
 2684         hc     89    bbb     H9   2684 0.09515400   1.008000   ; qtot 89.492665
 2685         hc     89    bbb    H10   2685 0.09515400   1.008000   ; qtot 89.587819
 2686         c3     89    bbb     C6   2686 -0.11337700  12.010000   ; qtot 89.474442
 2687         hc     89    bbb    H11   2687 0.09515400   1.008000   ; qtot 89.569596
 2688         hc     89    bbb    H12   2688 0.09515400   1.008000   ; qtot 89.664750
 2689         c3     89    bbb     C7   2689 0.21842400  12.010000   ; qtot 89.883174
 2690         h1     89    bbb    H13   2690 0.04500300   1.008000   ; qtot 89.928177
 2691         h1     89    bbb    H14   2691 0.04500300   1.008000   ; qtot 89.973180
 2692         c3     89    bbb     C8   2692 -0.06455200  12.010000   ; qtot 89.908628
 2693         h1     89    bbb    H15   2693 0.13554100   1.008000   ; qtot 90.044169
 2694         h1     89    bbb    H16   2694 0.13554100   1.008000   ; qtot 90.179710
 2695         c3     89    bbb     C9   2695 -0.06455200  12.010000   ; qtot 90.115158
 2696         h1     89    bbb    H17   2696 0.13554100   1.008000   ; qtot 90.250699
 2697         h1     89    bbb    H18   2697 0.13554100   1.008000   ; qtot 90.386240
 2698         os     89    bbb     O1   2698 -0.62587700  16.000000   ; qtot 89.760363
 2699         hn     89    bbb    H19   2699 0.23982500   1.008000   ; qtot 90.000188
; residue   90 bbb rtp bbb q 1.0
 2700         n4     90    bbb     N1   2700 0.03726400  14.010000   ; qtot 90.037452
 2701         c3     90    bbb     C1   2701 -0.07020100  12.010000   ; qtot 89.967251
 2702         hx     90    bbb     H1   2702 0.12219000   1.008000   ; qtot 90.089441
 2703         hx     90    bbb     H2   2703 0.12219000   1.008000   ; qtot 90.211631
 2704         c3     90    bbb     C2   2704 -0.07020100  12.010000   ; qtot 90.141430
 2705         hx     90    bbb     H3   2705 0.12219000   1.008000   ; qtot 90.263620
 2706         hx     90    bbb     H4   2706 0.12219000   1.008000   ; qtot 90.385810
 2707         c3     90    bbb     C3   2707 -0.39007700  12.010000   ; qtot 89.995733
 2708         hx     90    bbb     H5   2708 0.14940300   1.008000   ; qtot 90.145136
 2709         hx     90    bbb     H6   2709 0.14940300   1.008000   ; qtot 90.294539
 2710         c3     90    bbb     C4   2710 0.18057300  12.010000   ; qtot 90.475112
 2711         hc     90    bbb     H7   2711 0.01788900   1.008000   ; qtot 90.493001
 2712         hc     90    bbb     H8   2712 0.01788900   1.008000   ; qtot 90.510890
 2713         c3     90    bbb     C5   2713 -0.11337700  12.010000   ; qtot 90.397513
 2714         hc     90    bbb     H9   2714 0.09515400   1.008000   ; qtot 90.492667
 2715         hc     90    bbb    H10   2715 0.09515400   1.008000   ; qtot 90.587821
 2716         c3     90    bbb     C6   2716 -0.11337700  12.010000   ; qtot 90.474444
 2717         hc     90    bbb    H11   2717 0.09515400   1.008000   ; qtot 90.569598
 2718         hc     90    bbb    H12   2718 0.09515400   1.008000   ; qtot 90.664752
 2719         c3     90    bbb     C7   2719 0.21842400  12.010000   ; qtot 90.883176
 2720         h1     90    bbb    H13   2720 0.04500300   1.008000   ; qtot 90.928179
 2721         h1     90    bbb    H14   2721 0.04500300   1.008000   ; qtot 90.973182
 2722         c3     90    bbb     C8   2722 -0.06455200  12.010000   ; qtot 90.908630
 2723         h1     90    bbb    H15   2723 0.13554100   1.008000   ; qtot 91.044171
 2724         h1     90    bbb    H16   2724 0.13554100   1.008000   ; qtot 91.179712
 2725         c3     90    bbb     C9   2725 -0.06455200  12.010000   ; qtot 91.115160
 2726         h1     90    bbb    H17   2726 0.13554100   1.008000   ; qtot 91.250701
 2727         h1     90    bbb    H18   2727 0.13554100   1.008000   ; qtot 91.386242
 2728         os     90    bbb     O1   2728 -0.62587700  16.000000   ; qtot 90.760365
 2729         hn     90    bbb    H19   2729 0.23982500   1.008000   ; qtot 91.000190
; residue   91 bbb rtp bbb q 1.0
 2730         n4     91    bbb     N1   2730 0.03726400  14.010000   ; qtot 91.037454
 2731         c3     91    bbb     C1   2731 -0.07020100  12.010000   ; qtot 90.967253
 2732         hx     91    bbb     H1   2732 0.12219000   1.008000   ; qtot 91.089443
 2733         hx     91    bbb     H2   2733 0.12219000   1.008000   ; qtot 91.211633
 2734         c3     91    bbb     C2   2734 -0.07020100  12.010000   ; qtot 91.141432
 2735         hx     91    bbb     H3   2735 0.12219000   1.008000   ; qtot 91.263622
 2736         hx     91    bbb     H4   2736 0.12219000   1.008000   ; qtot 91.385812
 2737         c3     91    bbb     C3   2737 -0.39007700  12.010000   ; qtot 90.995735
 2738         hx     91    bbb     H5   2738 0.14940300   1.008000   ; qtot 91.145138
 2739         hx     91    bbb     H6   2739 0.14940300   1.008000   ; qtot 91.294541
 2740         c3     91    bbb     C4   2740 0.18057300  12.010000   ; qtot 91.475114
 2741         hc     91    bbb     H7   2741 0.01788900   1.008000   ; qtot 91.493003
 2742         hc     91    bbb     H8   2742 0.01788900   1.008000   ; qtot 91.510892
 2743         c3     91    bbb     C5   2743 -0.11337700  12.010000   ; qtot 91.397515
 2744         hc     91    bbb     H9   2744 0.09515400   1.008000   ; qtot 91.492669
 2745         hc     91    bbb    H10   2745 0.09515400   1.008000   ; qtot 91.587823
 2746         c3     91    bbb     C6   2746 -0.11337700  12.010000   ; qtot 91.474446
 2747         hc     91    bbb    H11   2747 0.09515400   1.008000   ; qtot 91.569600
 2748         hc     91    bbb    H12   2748 0.09515400   1.008000   ; qtot 91.664754
 2749         c3     91    bbb     C7   2749 0.21842400  12.010000   ; qtot 91.883178
 2750         h1     91    bbb    H13   2750 0.04500300   1.008000   ; qtot 91.928181
 2751         h1     91    bbb    H14   2751 0.04500300   1.008000   ; qtot 91.973184
 2752         c3     91    bbb     C8   2752 -0.06455200  12.010000   ; qtot 91.908632
 2753         h1     91    bbb    H15   2753 0.13554100   1.008000   ; qtot 92.044173
 2754         h1     91    bbb    H16   2754 0.13554100   1.008000   ; qtot 92.179714
 2755         c3     91    bbb     C9   2755 -0.06455200  12.010000   ; qtot 92.115162
 2756         h1     91    bbb    H17   2756 0.13554100   1.008000   ; qtot 92.250703
 2757         h1     91    bbb    H18   2757 0.13554100   1.008000   ; qtot 92.386244
 2758         os     91    bbb     O1   2758 -0.62587700  16.000000   ; qtot 91.760367
 2759         hn     91    bbb    H19   2759 0.23982500   1.008000   ; qtot 92.000192
; residue   92 bbb rtp bbb q 1.0
 2760         n4     92    bbb     N1   2760 0.03726400  14.010000   ; qtot 92.037456
 2761         c3     92    bbb     C1   2761 -0.07020100  12.010000   ; qtot 91.967255
 2762         hx     92    bbb     H1   2762 0.12219000   1.008000   ; qtot 92.089445
 2763         hx     92    bbb     H2   2763 0.12219000   1.008000   ; qtot 92.211635
 2764         c3     92    bbb     C2   2764 -0.07020100  12.010000   ; qtot 92.141434
 2765         hx     92    bbb     H3   2765 0.12219000   1.008000   ; qtot 92.263624
 2766         hx     92    bbb     H4   2766 0.12219000   1.008000   ; qtot 92.385814
 2767         c3     92    bbb     C3   2767 -0.39007700  12.010000   ; qtot 91.995737
 2768         hx     92    bbb     H5   2768 0.14940300   1.008000   ; qtot 92.145140
 2769         hx     92    bbb     H6   2769 0.14940300   1.008000   ; qtot 92.294543
 2770         c3     92    bbb     C4   2770 0.18057300  12.010000   ; qtot 92.475116
 2771         hc     92    bbb     H7   2771 0.01788900   1.008000   ; qtot 92.493005
 2772         hc     92    bbb     H8   2772 0.01788900   1.008000   ; qtot 92.510894
 2773         c3     92    bbb     C5   2773 -0.11337700  12.010000   ; qtot 92.397517
 2774         hc     92    bbb     H9   2774 0.09515400   1.008000   ; qtot 92.492671
 2775         hc     92    bbb    H10   2775 0.09515400   1.008000   ; qtot 92.587825
 2776         c3     92    bbb     C6   2776 -0.11337700  12.010000   ; qtot 92.474448
 2777         hc     92    bbb    H11   2777 0.09515400   1.008000   ; qtot 92.569602
 2778         hc     92    bbb    H12   2778 0.09515400   1.008000   ; qtot 92.664756
 2779         c3     92    bbb     C7   2779 0.21842400  12.010000   ; qtot 92.883180
 2780         h1     92    bbb    H13   2780 0.04500300   1.008000   ; qtot 92.928183
 2781         h1     92    bbb    H14   2781 0.04500300   1.008000   ; qtot 92.973186
 2782         c3     92    bbb     C8   2782 -0.06455200  12.010000   ; qtot 92.908634
 2783         h1     92    bbb    H15   2783 0.13554100   1.008000   ; qtot 93.044175
 2784         h1     92    bbb    H16   2784 0.13554100   1.008000   ; qtot 93.179716
 2785         c3     92    bbb     C9   2785 -0.06455200  12.010000   ; qtot 93.115164
 2786         h1     92    bbb    H17   2786 0.13554100   1.008000   ; qtot 93.250705
 2787         h1     92    bbb    H18   2787 0.13554100   1.008000   ; qtot 93.386246
 2788         os     92    bbb     O1   2788 -0.62587700  16.000000   ; qtot 92.760369
 2789         hn     92    bbb    H19   2789 0.23982500   1.008000   ; qtot 93.000194
; residue   93 bbb rtp bbb q 1.0
 2790         n4     93    bbb     N1   2790 0.03726400  14.010000   ; qtot 93.037458
 2791         c3     93    bbb     C1   2791 -0.07020100  12.010000   ; qtot 92.967257
 2792         hx     93    bbb     H1   2792 0.12219000   1.008000   ; qtot 93.089447
 2793         hx     93    bbb     H2   2793 0.12219000   1.008000   ; qtot 93.211637
 2794         c3     93    bbb     C2   2794 -0.07020100  12.010000   ; qtot 93.141436
 2795         hx     93    bbb     H3   2795 0.12219000   1.008000   ; qtot 93.263626
 2796         hx     93    bbb     H4   2796 0.12219000   1.008000   ; qtot 93.385816
 2797         c3     93    bbb     C3   2797 -0.39007700  12.010000   ; qtot 92.995739
 2798         hx     93    bbb     H5   2798 0.14940300   1.008000   ; qtot 93.145142
 2799         hx     93    bbb     H6   2799 0.14940300   1.008000   ; qtot 93.294545
 2800         c3     93    bbb     C4   2800 0.18057300  12.010000   ; qtot 93.475118
 2801         hc     93    bbb     H7   2801 0.01788900   1.008000   ; qtot 93.493007
 2802         hc     93    bbb     H8   2802 0.01788900   1.008000   ; qtot 93.510896
 2803         c3     93    bbb     C5   2803 -0.11337700  12.010000   ; qtot 93.397519
 2804         hc     93    bbb     H9   2804 0.09515400   1.008000   ; qtot 93.492673
 2805         hc     93    bbb    H10   2805 0.09515400   1.008000   ; qtot 93.587827
 2806         c3     93    bbb     C6   2806 -0.11337700  12.010000   ; qtot 93.474450
 2807         hc     93    bbb    H11   2807 0.09515400   1.008000   ; qtot 93.569604
 2808         hc     93    bbb    H12   2808 0.09515400   1.008000   ; qtot 93.664758
 2809         c3     93    bbb     C7   2809 0.21842400  12.010000   ; qtot 93.883182
 2810         h1     93    bbb    H13   2810 0.04500300   1.008000   ; qtot 93.928185
 2811         h1     93    bbb    H14   2811 0.04500300   1.008000   ; qtot 93.973188
 2812         c3     93    bbb     C8   2812 -0.06455200  12.010000   ; qtot 93.908636
 2813         h1     93    bbb    H15   2813 0.13554100   1.008000   ; qtot 94.044177
 2814         h1     93    bbb    H16   2814 0.13554100   1.008000   ; qtot 94.179718
 2815         c3     93    bbb     C9   2815 -0.06455200  12.010000   ; qtot 94.115166
 2816         h1     93    bbb    H17   2816 0.13554100   1.008000   ; qtot 94.250707
 2817         h1     93    bbb    H18   2817 0.13554100   1.008000   ; qtot 94.386248
 2818         os     93    bbb     O1   2818 -0.62587700  16.000000   ; qtot 93.760371
 2819         hn     93    bbb    H19   2819 0.23982500   1.008000   ; qtot 94.000196
; residue   94 bbb rtp bbb q 1.0
 2820         n4     94    bbb     N1   2820 0.03726400  14.010000   ; qtot 94.037460
 2821         c3     94    bbb     C1   2821 -0.07020100  12.010000   ; qtot 93.967259
 2822         hx     94    bbb     H1   2822 0.12219000   1.008000   ; qtot 94.089449
 2823         hx     94    bbb     H2   2823 0.12219000   1.008000   ; qtot 94.211639
 2824         c3     94    bbb     C2   2824 -0.07020100  12.010000   ; qtot 94.141438
 2825         hx     94    bbb     H3   2825 0.12219000   1.008000   ; qtot 94.263628
 2826         hx     94    bbb     H4   2826 0.12219000   1.008000   ; qtot 94.385818
 2827         c3     94    bbb     C3   2827 -0.39007700  12.010000   ; qtot 93.995741
 2828         hx     94    bbb     H5   2828 0.14940300   1.008000   ; qtot 94.145144
 2829         hx     94    bbb     H6   2829 0.14940300   1.008000   ; qtot 94.294547
 2830         c3     94    bbb     C4   2830 0.18057300  12.010000   ; qtot 94.475120
 2831         hc     94    bbb     H7   2831 0.01788900   1.008000   ; qtot 94.493009
 2832         hc     94    bbb     H8   2832 0.01788900   1.008000   ; qtot 94.510898
 2833         c3     94    bbb     C5   2833 -0.11337700  12.010000   ; qtot 94.397521
 2834         hc     94    bbb     H9   2834 0.09515400   1.008000   ; qtot 94.492675
 2835         hc     94    bbb    H10   2835 0.09515400   1.008000   ; qtot 94.587829
 2836         c3     94    bbb     C6   2836 -0.11337700  12.010000   ; qtot 94.474452
 2837         hc     94    bbb    H11   2837 0.09515400   1.008000   ; qtot 94.569606
 2838         hc     94    bbb    H12   2838 0.09515400   1.008000   ; qtot 94.664760
 2839         c3     94    bbb     C7   2839 0.21842400  12.010000   ; qtot 94.883184
 2840         h1     94    bbb    H13   2840 0.04500300   1.008000   ; qtot 94.928187
 2841         h1     94    bbb    H14   2841 0.04500300   1.008000   ; qtot 94.973190
 2842         c3     94    bbb     C8   2842 -0.06455200  12.010000   ; qtot 94.908638
 2843         h1     94    bbb    H15   2843 0.13554100   1.008000   ; qtot 95.044179
 2844         h1     94    bbb    H16   2844 0.13554100   1.008000   ; qtot 95.179720
 2845         c3     94    bbb     C9   2845 -0.06455200  12.010000   ; qtot 95.115168
 2846         h1     94    bbb    H17   2846 0.13554100   1.008000   ; qtot 95.250709
 2847         h1     94    bbb    H18   2847 0.13554100   1.008000   ; qtot 95.386250
 2848         os     94    bbb     O1   2848 -0.62587700  16.000000   ; qtot 94.760373
 2849         hn     94    bbb    H19   2849 0.23982500   1.008000   ; qtot 95.000198
; residue   95 bbb rtp bbb q 1.0
 2850         n4     95    bbb     N1   2850 0.03726400  14.010000   ; qtot 95.037462
 2851         c3     95    bbb     C1   2851 -0.07020100  12.010000   ; qtot 94.967261
 2852         hx     95    bbb     H1   2852 0.12219000   1.008000   ; qtot 95.089451
 2853         hx     95    bbb     H2   2853 0.12219000   1.008000   ; qtot 95.211641
 2854         c3     95    bbb     C2   2854 -0.07020100  12.010000   ; qtot 95.141440
 2855         hx     95    bbb     H3   2855 0.12219000   1.008000   ; qtot 95.263630
 2856         hx     95    bbb     H4   2856 0.12219000   1.008000   ; qtot 95.385820
 2857         c3     95    bbb     C3   2857 -0.39007700  12.010000   ; qtot 94.995743
 2858         hx     95    bbb     H5   2858 0.14940300   1.008000   ; qtot 95.145146
 2859         hx     95    bbb     H6   2859 0.14940300   1.008000   ; qtot 95.294549
 2860         c3     95    bbb     C4   2860 0.18057300  12.010000   ; qtot 95.475122
 2861         hc     95    bbb     H7   2861 0.01788900   1.008000   ; qtot 95.493011
 2862         hc     95    bbb     H8   2862 0.01788900   1.008000   ; qtot 95.510900
 2863         c3     95    bbb     C5   2863 -0.11337700  12.010000   ; qtot 95.397523
 2864         hc     95    bbb     H9   2864 0.09515400   1.008000   ; qtot 95.492677
 2865         hc     95    bbb    H10   2865 0.09515400   1.008000   ; qtot 95.587831
 2866         c3     95    bbb     C6   2866 -0.11337700  12.010000   ; qtot 95.474454
 2867         hc     95    bbb    H11   2867 0.09515400   1.008000   ; qtot 95.569608
 2868         hc     95    bbb    H12   2868 0.09515400   1.008000   ; qtot 95.664762
 2869         c3     95    bbb     C7   2869 0.21842400  12.010000   ; qtot 95.883186
 2870         h1     95    bbb    H13   2870 0.04500300   1.008000   ; qtot 95.928189
 2871         h1     95    bbb    H14   2871 0.04500300   1.008000   ; qtot 95.973192
 2872         c3     95    bbb     C8   2872 -0.06455200  12.010000   ; qtot 95.908640
 2873         h1     95    bbb    H15   2873 0.13554100   1.008000   ; qtot 96.044181
 2874         h1     95    bbb    H16   2874 0.13554100   1.008000   ; qtot 96.179722
 2875         c3     95    bbb     C9   2875 -0.06455200  12.010000   ; qtot 96.115170
 2876         h1     95    bbb    H17   2876 0.13554100   1.008000   ; qtot 96.250711
 2877         h1     95    bbb    H18   2877 0.13554100   1.008000   ; qtot 96.386252
 2878         os     95    bbb     O1   2878 -0.62587700  16.000000   ; qtot 95.760375
 2879         hn     95    bbb    H19   2879 0.23982500   1.008000   ; qtot 96.000200
; residue   96 bbb rtp bbb q 1.0
 2880         n4     96    bbb     N1   2880 0.03726400  14.010000   ; qtot 96.037464
 2881         c3     96    bbb     C1   2881 -0.07020100  12.010000   ; qtot 95.967263
 2882         hx     96    bbb     H1   2882 0.12219000   1.008000   ; qtot 96.089453
 2883         hx     96    bbb     H2   2883 0.12219000   1.008000   ; qtot 96.211643
 2884         c3     96    bbb     C2   2884 -0.07020100  12.010000   ; qtot 96.141442
 2885         hx     96    bbb     H3   2885 0.12219000   1.008000   ; qtot 96.263632
 2886         hx     96    bbb     H4   2886 0.12219000   1.008000   ; qtot 96.385822
 2887         c3     96    bbb     C3   2887 -0.39007700  12.010000   ; qtot 95.995745
 2888         hx     96    bbb     H5   2888 0.14940300   1.008000   ; qtot 96.145148
 2889         hx     96    bbb     H6   2889 0.14940300   1.008000   ; qtot 96.294551
 2890         c3     96    bbb     C4   2890 0.18057300  12.010000   ; qtot 96.475124
 2891         hc     96    bbb     H7   2891 0.01788900   1.008000   ; qtot 96.493013
 2892         hc     96    bbb     H8   2892 0.01788900   1.008000   ; qtot 96.510902
 2893         c3     96    bbb     C5   2893 -0.11337700  12.010000   ; qtot 96.397525
 2894         hc     96    bbb     H9   2894 0.09515400   1.008000   ; qtot 96.492679
 2895         hc     96    bbb    H10   2895 0.09515400   1.008000   ; qtot 96.587833
 2896         c3     96    bbb     C6   2896 -0.11337700  12.010000   ; qtot 96.474456
 2897         hc     96    bbb    H11   2897 0.09515400   1.008000   ; qtot 96.569610
 2898         hc     96    bbb    H12   2898 0.09515400   1.008000   ; qtot 96.664764
 2899         c3     96    bbb     C7   2899 0.21842400  12.010000   ; qtot 96.883188
 2900         h1     96    bbb    H13   2900 0.04500300   1.008000   ; qtot 96.928191
 2901         h1     96    bbb    H14   2901 0.04500300   1.008000   ; qtot 96.973194
 2902         c3     96    bbb     C8   2902 -0.06455200  12.010000   ; qtot 96.908642
 2903         h1     96    bbb    H15   2903 0.13554100   1.008000   ; qtot 97.044183
 2904         h1     96    bbb    H16   2904 0.13554100   1.008000   ; qtot 97.179724
 2905         c3     96    bbb     C9   2905 -0.06455200  12.010000   ; qtot 97.115172
 2906         h1     96    bbb    H17   2906 0.13554100   1.008000   ; qtot 97.250713
 2907         h1     96    bbb    H18   2907 0.13554100   1.008000   ; qtot 97.386254
 2908         os     96    bbb     O1   2908 -0.62587700  16.000000   ; qtot 96.760377
 2909         hn     96    bbb    H19   2909 0.23982500   1.008000   ; qtot 97.000202
; residue   97 bbb rtp bbb q 1.0
 2910         n4     97    bbb     N1   2910 0.03726400  14.010000   ; qtot 97.037466
 2911         c3     97    bbb     C1   2911 -0.07020100  12.010000   ; qtot 96.967265
 2912         hx     97    bbb     H1   2912 0.12219000   1.008000   ; qtot 97.089455
 2913         hx     97    bbb     H2   2913 0.12219000   1.008000   ; qtot 97.211645
 2914         c3     97    bbb     C2   2914 -0.07020100  12.010000   ; qtot 97.141444
 2915         hx     97    bbb     H3   2915 0.12219000   1.008000   ; qtot 97.263634
 2916         hx     97    bbb     H4   2916 0.12219000   1.008000   ; qtot 97.385824
 2917         c3     97    bbb     C3   2917 -0.39007700  12.010000   ; qtot 96.995747
 2918         hx     97    bbb     H5   2918 0.14940300   1.008000   ; qtot 97.145150
 2919         hx     97    bbb     H6   2919 0.14940300   1.008000   ; qtot 97.294553
 2920         c3     97    bbb     C4   2920 0.18057300  12.010000   ; qtot 97.475126
 2921         hc     97    bbb     H7   2921 0.01788900   1.008000   ; qtot 97.493015
 2922         hc     97    bbb     H8   2922 0.01788900   1.008000   ; qtot 97.510904
 2923         c3     97    bbb     C5   2923 -0.11337700  12.010000   ; qtot 97.397527
 2924         hc     97    bbb     H9   2924 0.09515400   1.008000   ; qtot 97.492681
 2925         hc     97    bbb    H10   2925 0.09515400   1.008000   ; qtot 97.587835
 2926         c3     97    bbb     C6   2926 -0.11337700  12.010000   ; qtot 97.474458
 2927         hc     97    bbb    H11   2927 0.09515400   1.008000   ; qtot 97.569612
 2928         hc     97    bbb    H12   2928 0.09515400   1.008000   ; qtot 97.664766
 2929         c3     97    bbb     C7   2929 0.21842400  12.010000   ; qtot 97.883190
 2930         h1     97    bbb    H13   2930 0.04500300   1.008000   ; qtot 97.928193
 2931         h1     97    bbb    H14   2931 0.04500300   1.008000   ; qtot 97.973196
 2932         c3     97    bbb     C8   2932 -0.06455200  12.010000   ; qtot 97.908644
 2933         h1     97    bbb    H15   2933 0.13554100   1.008000   ; qtot 98.044185
 2934         h1     97    bbb    H16   2934 0.13554100   1.008000   ; qtot 98.179726
 2935         c3     97    bbb     C9   2935 -0.06455200  12.010000   ; qtot 98.115174
 2936         h1     97    bbb    H17   2936 0.13554100   1.008000   ; qtot 98.250715
 2937         h1     97    bbb    H18   2937 0.13554100   1.008000   ; qtot 98.386256
 2938         os     97    bbb     O1   2938 -0.62587700  16.000000   ; qtot 97.760379
 2939         hn     97    bbb    H19   2939 0.23982500   1.008000   ; qtot 98.000204
; residue   98 bbb rtp bbb q 1.0
 2940         n4     98    bbb     N1   2940 0.03726400  14.010000   ; qtot 98.037468
 2941         c3     98    bbb     C1   2941 -0.07020100  12.010000   ; qtot 97.967267
 2942         hx     98    bbb     H1   2942 0.12219000   1.008000   ; qtot 98.089457
 2943         hx     98    bbb     H2   2943 0.12219000   1.008000   ; qtot 98.211647
 2944         c3     98    bbb     C2   2944 -0.07020100  12.010000   ; qtot 98.141446
 2945         hx     98    bbb     H3   2945 0.12219000   1.008000   ; qtot 98.263636
 2946         hx     98    bbb     H4   2946 0.12219000   1.008000   ; qtot 98.385826
 2947         c3     98    bbb     C3   2947 -0.39007700  12.010000   ; qtot 97.995749
 2948         hx     98    bbb     H5   2948 0.14940300   1.008000   ; qtot 98.145152
 2949         hx     98    bbb     H6   2949 0.14940300   1.008000   ; qtot 98.294555
 2950         c3     98    bbb     C4   2950 0.18057300  12.010000   ; qtot 98.475128
 2951         hc     98    bbb     H7   2951 0.01788900   1.008000   ; qtot 98.493017
 2952         hc     98    bbb     H8   2952 0.01788900   1.008000   ; qtot 98.510906
 2953         c3     98    bbb     C5   2953 -0.11337700  12.010000   ; qtot 98.397529
 2954         hc     98    bbb     H9   2954 0.09515400   1.008000   ; qtot 98.492683
 2955         hc     98    bbb    H10   2955 0.09515400   1.008000   ; qtot 98.587837
 2956         c3     98    bbb     C6   2956 -0.11337700  12.010000   ; qtot 98.474460
 2957         hc     98    bbb    H11   2957 0.09515400   1.008000   ; qtot 98.569614
 2958         hc     98    bbb    H12   2958 0.09515400   1.008000   ; qtot 98.664768
 2959         c3     98    bbb     C7   2959 0.21842400  12.010000   ; qtot 98.883192
 2960         h1     98    bbb    H13   2960 0.04500300   1.008000   ; qtot 98.928195
 2961         h1     98    bbb    H14   2961 0.04500300   1.008000   ; qtot 98.973198
 2962         c3     98    bbb     C8   2962 -0.06455200  12.010000   ; qtot 98.908646
 2963         h1     98    bbb    H15   2963 0.13554100   1.008000   ; qtot 99.044187
 2964         h1     98    bbb    H16   2964 0.13554100   1.008000   ; qtot 99.179728
 2965         c3     98    bbb     C9   2965 -0.06455200  12.010000   ; qtot 99.115176
 2966         h1     98    bbb    H17   2966 0.13554100   1.008000   ; qtot 99.250717
 2967         h1     98    bbb    H18   2967 0.13554100   1.008000   ; qtot 99.386258
 2968         os     98    bbb     O1   2968 -0.62587700  16.000000   ; qtot 98.760381
 2969         hn     98    bbb    H19   2969 0.23982500   1.008000   ; qtot 99.000206
; residue   99 bbb rtp bbb q 1.0
 2970         n4     99    bbb     N1   2970 0.03726400  14.010000   ; qtot 99.037470
 2971         c3     99    bbb     C1   2971 -0.07020100  12.010000   ; qtot 98.967269
 2972         hx     99    bbb     H1   2972 0.12219000   1.008000   ; qtot 99.089459
 2973         hx     99    bbb     H2   2973 0.12219000   1.008000   ; qtot 99.211649
 2974         c3     99    bbb     C2   2974 -0.07020100  12.010000   ; qtot 99.141448
 2975         hx     99    bbb     H3   2975 0.12219000   1.008000   ; qtot 99.263638
 2976         hx     99    bbb     H4   2976 0.12219000   1.008000   ; qtot 99.385828
 2977         c3     99    bbb     C3   2977 -0.39007700  12.010000   ; qtot 98.995751
 2978         hx     99    bbb     H5   2978 0.14940300   1.008000   ; qtot 99.145154
 2979         hx     99    bbb     H6   2979 0.14940300   1.008000   ; qtot 99.294557
 2980         c3     99    bbb     C4   2980 0.18057300  12.010000   ; qtot 99.475130
 2981         hc     99    bbb     H7   2981 0.01788900   1.008000   ; qtot 99.493019
 2982         hc     99    bbb     H8   2982 0.01788900   1.008000   ; qtot 99.510908
 2983         c3     99    bbb     C5   2983 -0.11337700  12.010000   ; qtot 99.397531
 2984         hc     99    bbb     H9   2984 0.09515400   1.008000   ; qtot 99.492685
 2985         hc     99    bbb    H10   2985 0.09515400   1.008000   ; qtot 99.587839
 2986         c3     99    bbb     C6   2986 -0.11337700  12.010000   ; qtot 99.474462
 2987         hc     99    bbb    H11   2987 0.09515400   1.008000   ; qtot 99.569616
 2988         hc     99    bbb    H12   2988 0.09515400   1.008000   ; qtot 99.664770
 2989         c3     99    bbb     C7   2989 0.21842400  12.010000   ; qtot 99.883194
 2990         h1     99    bbb    H13   2990 0.04500300   1.008000   ; qtot 99.928197
 2991         h1     99    bbb    H14   2991 0.04500300   1.008000   ; qtot 99.973200
 2992         c3     99    bbb     C8   2992 -0.06455200  12.010000   ; qtot 99.908648
 2993         h1     99    bbb    H15   2993 0.13554100   1.008000   ; qtot 100.044189
 2994         h1     99    bbb    H16   2994 0.13554100   1.008000   ; qtot 100.179730
 2995         c3     99    bbb     C9   2995 -0.06455200  12.010000   ; qtot 100.115178
 2996         h1     99    bbb    H17   2996 0.13554100   1.008000   ; qtot 100.250719
 2997         h1     99    bbb    H18   2997 0.13554100   1.008000   ; qtot 100.386260
 2998         os     99    bbb     O1   2998 -0.62587700  16.000000   ; qtot 99.760383
 2999         hn     99    bbb    H19   2999 0.23982500   1.008000   ; qtot 100.000208
; residue  100 bbb rtp bbb q 1.0
 3000         n4    100    bbb     N1   3000 0.03726400  14.010000   ; qtot 100.037472
 3001         c3    100    bbb     C1   3001 -0.07020100  12.010000   ; qtot 99.967271
 3002         hx    100    bbb     H1   3002 0.12219000   1.008000   ; qtot 100.089461
 3003         hx    100    bbb     H2   3003 0.12219000   1.008000   ; qtot 100.211651
 3004         c3    100    bbb     C2   3004 -0.07020100  12.010000   ; qtot 100.141450
 3005         hx    100    bbb     H3   3005 0.12219000   1.008000   ; qtot 100.263640
 3006         hx    100    bbb     H4   3006 0.12219000   1.008000   ; qtot 100.385830
 3007         c3    100    bbb     C3   3007 -0.39007700  12.010000   ; qtot 99.995753
 3008         hx    100    bbb     H5   3008 0.14940300   1.008000   ; qtot 100.145156
 3009         hx    100    bbb     H6   3009 0.14940300   1.008000   ; qtot 100.294559
 3010         c3    100    bbb     C4   3010 0.18057300  12.010000   ; qtot 100.475132
 3011         hc    100    bbb     H7   3011 0.01788900   1.008000   ; qtot 100.493021
 3012         hc    100    bbb     H8   3012 0.01788900   1.008000   ; qtot 100.510910
 3013         c3    100    bbb     C5   3013 -0.11337700  12.010000   ; qtot 100.397533
 3014         hc    100    bbb     H9   3014 0.09515400   1.008000   ; qtot 100.492687
 3015         hc    100    bbb    H10   3015 0.09515400   1.008000   ; qtot 100.587841
 3016         c3    100    bbb     C6   3016 -0.11337700  12.010000   ; qtot 100.474464
 3017         hc    100    bbb    H11   3017 0.09515400   1.008000   ; qtot 100.569618
 3018         hc    100    bbb    H12   3018 0.09515400   1.008000   ; qtot 100.664772
 3019         c3    100    bbb     C7   3019 0.21842400  12.010000   ; qtot 100.883196
 3020         h1    100    bbb    H13   3020 0.04500300   1.008000   ; qtot 100.928199
 3021         h1    100    bbb    H14   3021 0.04500300   1.008000   ; qtot 100.973202
 3022         c3    100    bbb     C8   3022 -0.06455200  12.010000   ; qtot 100.908650
 3023         h1    100    bbb    H15   3023 0.13554100   1.008000   ; qtot 101.044191
 3024         h1    100    bbb    H16   3024 0.13554100   1.008000   ; qtot 101.179732
 3025         c3    100    bbb     C9   3025 -0.06455200  12.010000   ; qtot 101.115180
 3026         h1    100    bbb    H17   3026 0.13554100   1.008000   ; qtot 101.250721
 3027         h1    100    bbb    H18   3027 0.13554100   1.008000   ; qtot 101.386262
 3028         os    100    bbb     O1   3028 -0.62587700  16.000000   ; qtot 100.760385
 3029         hn    100    bbb    H19   3029 0.23982500   1.008000   ; qtot 101.000210
; residue  101 bbb rtp bbb q 1.0
 3030         n4    101    bbb     N1   3030 0.03726400  14.010000   ; qtot 101.037474
 3031         c3    101    bbb     C1   3031 -0.07020100  12.010000   ; qtot 100.967273
 3032         hx    101    bbb     H1   3032 0.12219000   1.008000   ; qtot 101.089463
 3033         hx    101    bbb     H2   3033 0.12219000   1.008000   ; qtot 101.211653
 3034         c3    101    bbb     C2   3034 -0.07020100  12.010000   ; qtot 101.141452
 3035         hx    101    bbb     H3   3035 0.12219000   1.008000   ; qtot 101.263642
 3036         hx    101    bbb     H4   3036 0.12219000   1.008000   ; qtot 101.385832
 3037         c3    101    bbb     C3   3037 -0.39007700  12.010000   ; qtot 100.995755
 3038         hx    101    bbb     H5   3038 0.14940300   1.008000   ; qtot 101.145158
 3039         hx    101    bbb     H6   3039 0.14940300   1.008000   ; qtot 101.294561
 3040         c3    101    bbb     C4   3040 0.18057300  12.010000   ; qtot 101.475134
 3041         hc    101    bbb     H7   3041 0.01788900   1.008000   ; qtot 101.493023
 3042         hc    101    bbb     H8   3042 0.01788900   1.008000   ; qtot 101.510912
 3043         c3    101    bbb     C5   3043 -0.11337700  12.010000   ; qtot 101.397535
 3044         hc    101    bbb     H9   3044 0.09515400   1.008000   ; qtot 101.492689
 3045         hc    101    bbb    H10   3045 0.09515400   1.008000   ; qtot 101.587843
 3046         c3    101    bbb     C6   3046 -0.11337700  12.010000   ; qtot 101.474466
 3047         hc    101    bbb    H11   3047 0.09515400   1.008000   ; qtot 101.569620
 3048         hc    101    bbb    H12   3048 0.09515400   1.008000   ; qtot 101.664774
 3049         c3    101    bbb     C7   3049 0.21842400  12.010000   ; qtot 101.883198
 3050         h1    101    bbb    H13   3050 0.04500300   1.008000   ; qtot 101.928201
 3051         h1    101    bbb    H14   3051 0.04500300   1.008000   ; qtot 101.973204
 3052         c3    101    bbb     C8   3052 -0.06455200  12.010000   ; qtot 101.908652
 3053         h1    101    bbb    H15   3053 0.13554100   1.008000   ; qtot 102.044193
 3054         h1    101    bbb    H16   3054 0.13554100   1.008000   ; qtot 102.179734
 3055         c3    101    bbb     C9   3055 -0.06455200  12.010000   ; qtot 102.115182
 3056         h1    101    bbb    H17   3056 0.13554100   1.008000   ; qtot 102.250723
 3057         h1    101    bbb    H18   3057 0.13554100   1.008000   ; qtot 102.386264
 3058         os    101    bbb     O1   3058 -0.62587700  16.000000   ; qtot 101.760387
 3059         hn    101    bbb    H19   3059 0.23982500   1.008000   ; qtot 102.000212
; residue  102 bbb rtp bbb q 1.0
 3060         n4    102    bbb     N1   3060 0.03726400  14.010000   ; qtot 102.037476
 3061         c3    102    bbb     C1   3061 -0.07020100  12.010000   ; qtot 101.967275
 3062         hx    102    bbb     H1   3062 0.12219000   1.008000   ; qtot 102.089465
 3063         hx    102    bbb     H2   3063 0.12219000   1.008000   ; qtot 102.211655
 3064         c3    102    bbb     C2   3064 -0.07020100  12.010000   ; qtot 102.141454
 3065         hx    102    bbb     H3   3065 0.12219000   1.008000   ; qtot 102.263644
 3066         hx    102    bbb     H4   3066 0.12219000   1.008000   ; qtot 102.385834
 3067         c3    102    bbb     C3   3067 -0.39007700  12.010000   ; qtot 101.995757
 3068         hx    102    bbb     H5   3068 0.14940300   1.008000   ; qtot 102.145160
 3069         hx    102    bbb     H6   3069 0.14940300   1.008000   ; qtot 102.294563
 3070         c3    102    bbb     C4   3070 0.18057300  12.010000   ; qtot 102.475136
 3071         hc    102    bbb     H7   3071 0.01788900   1.008000   ; qtot 102.493025
 3072         hc    102    bbb     H8   3072 0.01788900   1.008000   ; qtot 102.510914
 3073         c3    102    bbb     C5   3073 -0.11337700  12.010000   ; qtot 102.397537
 3074         hc    102    bbb     H9   3074 0.09515400   1.008000   ; qtot 102.492691
 3075         hc    102    bbb    H10   3075 0.09515400   1.008000   ; qtot 102.587845
 3076         c3    102    bbb     C6   3076 -0.11337700  12.010000   ; qtot 102.474468
 3077         hc    102    bbb    H11   3077 0.09515400   1.008000   ; qtot 102.569622
 3078         hc    102    bbb    H12   3078 0.09515400   1.008000   ; qtot 102.664776
 3079         c3    102    bbb     C7   3079 0.21842400  12.010000   ; qtot 102.883200
 3080         h1    102    bbb    H13   3080 0.04500300   1.008000   ; qtot 102.928203
 3081         h1    102    bbb    H14   3081 0.04500300   1.008000   ; qtot 102.973206
 3082         c3    102    bbb     C8   3082 -0.06455200  12.010000   ; qtot 102.908654
 3083         h1    102    bbb    H15   3083 0.13554100   1.008000   ; qtot 103.044195
 3084         h1    102    bbb    H16   3084 0.13554100   1.008000   ; qtot 103.179736
 3085         c3    102    bbb     C9   3085 -0.06455200  12.010000   ; qtot 103.115184
 3086         h1    102    bbb    H17   3086 0.13554100   1.008000   ; qtot 103.250725
 3087         h1    102    bbb    H18   3087 0.13554100   1.008000   ; qtot 103.386266
 3088         os    102    bbb     O1   3088 -0.62587700  16.000000   ; qtot 102.760389
 3089         hn    102    bbb    H19   3089 0.23982500   1.008000   ; qtot 103.000214
; residue  103 bbb rtp bbb q 1.0
 3090         n4    103    bbb     N1   3090 0.03726400  14.010000   ; qtot 103.037478
 3091         c3    103    bbb     C1   3091 -0.07020100  12.010000   ; qtot 102.967277
 3092         hx    103    bbb     H1   3092 0.12219000   1.008000   ; qtot 103.089467
 3093         hx    103    bbb     H2   3093 0.12219000   1.008000   ; qtot 103.211657
 3094         c3    103    bbb     C2   3094 -0.07020100  12.010000   ; qtot 103.141456
 3095         hx    103    bbb     H3   3095 0.12219000   1.008000   ; qtot 103.263646
 3096         hx    103    bbb     H4   3096 0.12219000   1.008000   ; qtot 103.385836
 3097         c3    103    bbb     C3   3097 -0.39007700  12.010000   ; qtot 102.995759
 3098         hx    103    bbb     H5   3098 0.14940300   1.008000   ; qtot 103.145162
 3099         hx    103    bbb     H6   3099 0.14940300   1.008000   ; qtot 103.294565
 3100         c3    103    bbb     C4   3100 0.18057300  12.010000   ; qtot 103.475138
 3101         hc    103    bbb     H7   3101 0.01788900   1.008000   ; qtot 103.493027
 3102         hc    103    bbb     H8   3102 0.01788900   1.008000   ; qtot 103.510916
 3103         c3    103    bbb     C5   3103 -0.11337700  12.010000   ; qtot 103.397539
 3104         hc    103    bbb     H9   3104 0.09515400   1.008000   ; qtot 103.492693
 3105         hc    103    bbb    H10   3105 0.09515400   1.008000   ; qtot 103.587847
 3106         c3    103    bbb     C6   3106 -0.11337700  12.010000   ; qtot 103.474470
 3107         hc    103    bbb    H11   3107 0.09515400   1.008000   ; qtot 103.569624
 3108         hc    103    bbb    H12   3108 0.09515400   1.008000   ; qtot 103.664778
 3109         c3    103    bbb     C7   3109 0.21842400  12.010000   ; qtot 103.883202
 3110         h1    103    bbb    H13   3110 0.04500300   1.008000   ; qtot 103.928205
 3111         h1    103    bbb    H14   3111 0.04500300   1.008000   ; qtot 103.973208
 3112         c3    103    bbb     C8   3112 -0.06455200  12.010000   ; qtot 103.908656
 3113         h1    103    bbb    H15   3113 0.13554100   1.008000   ; qtot 104.044197
 3114         h1    103    bbb    H16   3114 0.13554100   1.008000   ; qtot 104.179738
 3115         c3    103    bbb     C9   3115 -0.06455200  12.010000   ; qtot 104.115186
 3116         h1    103    bbb    H17   3116 0.13554100   1.008000   ; qtot 104.250727
 3117         h1    103    bbb    H18   3117 0.13554100   1.008000   ; qtot 104.386268
 3118         os    103    bbb     O1   3118 -0.62587700  16.000000   ; qtot 103.760391
 3119         hn    103    bbb    H19   3119 0.23982500   1.008000   ; qtot 104.000216
; residue  104 bbb rtp bbb q 1.0
 3120         n4    104    bbb     N1   3120 0.03726400  14.010000   ; qtot 104.037480
 3121         c3    104    bbb     C1   3121 -0.07020100  12.010000   ; qtot 103.967279
 3122         hx    104    bbb     H1   3122 0.12219000   1.008000   ; qtot 104.089469
 3123         hx    104    bbb     H2   3123 0.12219000   1.008000   ; qtot 104.211659
 3124         c3    104    bbb     C2   3124 -0.07020100  12.010000   ; qtot 104.141458
 3125         hx    104    bbb     H3   3125 0.12219000   1.008000   ; qtot 104.263648
 3126         hx    104    bbb     H4   3126 0.12219000   1.008000   ; qtot 104.385838
 3127         c3    104    bbb     C3   3127 -0.39007700  12.010000   ; qtot 103.995761
 3128         hx    104    bbb     H5   3128 0.14940300   1.008000   ; qtot 104.145164
 3129         hx    104    bbb     H6   3129 0.14940300   1.008000   ; qtot 104.294567
 3130         c3    104    bbb     C4   3130 0.18057300  12.010000   ; qtot 104.475140
 3131         hc    104    bbb     H7   3131 0.01788900   1.008000   ; qtot 104.493029
 3132         hc    104    bbb     H8   3132 0.01788900   1.008000   ; qtot 104.510918
 3133         c3    104    bbb     C5   3133 -0.11337700  12.010000   ; qtot 104.397541
 3134         hc    104    bbb     H9   3134 0.09515400   1.008000   ; qtot 104.492695
 3135         hc    104    bbb    H10   3135 0.09515400   1.008000   ; qtot 104.587849
 3136         c3    104    bbb     C6   3136 -0.11337700  12.010000   ; qtot 104.474472
 3137         hc    104    bbb    H11   3137 0.09515400   1.008000   ; qtot 104.569626
 3138         hc    104    bbb    H12   3138 0.09515400   1.008000   ; qtot 104.664780
 3139         c3    104    bbb     C7   3139 0.21842400  12.010000   ; qtot 104.883204
 3140         h1    104    bbb    H13   3140 0.04500300   1.008000   ; qtot 104.928207
 3141         h1    104    bbb    H14   3141 0.04500300   1.008000   ; qtot 104.973210
 3142         c3    104    bbb     C8   3142 -0.06455200  12.010000   ; qtot 104.908658
 3143         h1    104    bbb    H15   3143 0.13554100   1.008000   ; qtot 105.044199
 3144         h1    104    bbb    H16   3144 0.13554100   1.008000   ; qtot 105.179740
 3145         c3    104    bbb     C9   3145 -0.06455200  12.010000   ; qtot 105.115188
 3146         h1    104    bbb    H17   3146 0.13554100   1.008000   ; qtot 105.250729
 3147         h1    104    bbb    H18   3147 0.13554100   1.008000   ; qtot 105.386270
 3148         os    104    bbb     O1   3148 -0.62587700  16.000000   ; qtot 104.760393
 3149         hn    104    bbb    H19   3149 0.23982500   1.008000   ; qtot 105.000218
; residue  105 bbb rtp bbb q 1.0
 3150         n4    105    bbb     N1   3150 0.03726400  14.010000   ; qtot 105.037482
 3151         c3    105    bbb     C1   3151 -0.07020100  12.010000   ; qtot 104.967281
 3152         hx    105    bbb     H1   3152 0.12219000   1.008000   ; qtot 105.089471
 3153         hx    105    bbb     H2   3153 0.12219000   1.008000   ; qtot 105.211661
 3154         c3    105    bbb     C2   3154 -0.07020100  12.010000   ; qtot 105.141460
 3155         hx    105    bbb     H3   3155 0.12219000   1.008000   ; qtot 105.263650
 3156         hx    105    bbb     H4   3156 0.12219000   1.008000   ; qtot 105.385840
 3157         c3    105    bbb     C3   3157 -0.39007700  12.010000   ; qtot 104.995763
 3158         hx    105    bbb     H5   3158 0.14940300   1.008000   ; qtot 105.145166
 3159         hx    105    bbb     H6   3159 0.14940300   1.008000   ; qtot 105.294569
 3160         c3    105    bbb     C4   3160 0.18057300  12.010000   ; qtot 105.475142
 3161         hc    105    bbb     H7   3161 0.01788900   1.008000   ; qtot 105.493031
 3162         hc    105    bbb     H8   3162 0.01788900   1.008000   ; qtot 105.510920
 3163         c3    105    bbb     C5   3163 -0.11337700  12.010000   ; qtot 105.397543
 3164         hc    105    bbb     H9   3164 0.09515400   1.008000   ; qtot 105.492697
 3165         hc    105    bbb    H10   3165 0.09515400   1.008000   ; qtot 105.587851
 3166         c3    105    bbb     C6   3166 -0.11337700  12.010000   ; qtot 105.474474
 3167         hc    105    bbb    H11   3167 0.09515400   1.008000   ; qtot 105.569628
 3168         hc    105    bbb    H12   3168 0.09515400   1.008000   ; qtot 105.664782
 3169         c3    105    bbb     C7   3169 0.21842400  12.010000   ; qtot 105.883206
 3170         h1    105    bbb    H13   3170 0.04500300   1.008000   ; qtot 105.928209
 3171         h1    105    bbb    H14   3171 0.04500300   1.008000   ; qtot 105.973212
 3172         c3    105    bbb     C8   3172 -0.06455200  12.010000   ; qtot 105.908660
 3173         h1    105    bbb    H15   3173 0.13554100   1.008000   ; qtot 106.044201
 3174         h1    105    bbb    H16   3174 0.13554100   1.008000   ; qtot 106.179742
 3175         c3    105    bbb     C9   3175 -0.06455200  12.010000   ; qtot 106.115190
 3176         h1    105    bbb    H17   3176 0.13554100   1.008000   ; qtot 106.250731
 3177         h1    105    bbb    H18   3177 0.13554100   1.008000   ; qtot 106.386272
 3178         os    105    bbb     O1   3178 -0.62587700  16.000000   ; qtot 105.760395
 3179         hn    105    bbb    H19   3179 0.23982500   1.008000   ; qtot 106.000220
; residue  106 bbb rtp bbb q 1.0
 3180         n4    106    bbb     N1   3180 0.03726400  14.010000   ; qtot 106.037484
 3181         c3    106    bbb     C1   3181 -0.07020100  12.010000   ; qtot 105.967283
 3182         hx    106    bbb     H1   3182 0.12219000   1.008000   ; qtot 106.089473
 3183         hx    106    bbb     H2   3183 0.12219000   1.008000   ; qtot 106.211663
 3184         c3    106    bbb     C2   3184 -0.07020100  12.010000   ; qtot 106.141462
 3185         hx    106    bbb     H3   3185 0.12219000   1.008000   ; qtot 106.263652
 3186         hx    106    bbb     H4   3186 0.12219000   1.008000   ; qtot 106.385842
 3187         c3    106    bbb     C3   3187 -0.39007700  12.010000   ; qtot 105.995765
 3188         hx    106    bbb     H5   3188 0.14940300   1.008000   ; qtot 106.145168
 3189         hx    106    bbb     H6   3189 0.14940300   1.008000   ; qtot 106.294571
 3190         c3    106    bbb     C4   3190 0.18057300  12.010000   ; qtot 106.475144
 3191         hc    106    bbb     H7   3191 0.01788900   1.008000   ; qtot 106.493033
 3192         hc    106    bbb     H8   3192 0.01788900   1.008000   ; qtot 106.510922
 3193         c3    106    bbb     C5   3193 -0.11337700  12.010000   ; qtot 106.397545
 3194         hc    106    bbb     H9   3194 0.09515400   1.008000   ; qtot 106.492699
 3195         hc    106    bbb    H10   3195 0.09515400   1.008000   ; qtot 106.587853
 3196         c3    106    bbb     C6   3196 -0.11337700  12.010000   ; qtot 106.474476
 3197         hc    106    bbb    H11   3197 0.09515400   1.008000   ; qtot 106.569630
 3198         hc    106    bbb    H12   3198 0.09515400   1.008000   ; qtot 106.664784
 3199         c3    106    bbb     C7   3199 0.21842400  12.010000   ; qtot 106.883208
 3200         h1    106    bbb    H13   3200 0.04500300   1.008000   ; qtot 106.928211
 3201         h1    106    bbb    H14   3201 0.04500300   1.008000   ; qtot 106.973214
 3202         c3    106    bbb     C8   3202 -0.06455200  12.010000   ; qtot 106.908662
 3203         h1    106    bbb    H15   3203 0.13554100   1.008000   ; qtot 107.044203
 3204         h1    106    bbb    H16   3204 0.13554100   1.008000   ; qtot 107.179744
 3205         c3    106    bbb     C9   3205 -0.06455200  12.010000   ; qtot 107.115192
 3206         h1    106    bbb    H17   3206 0.13554100   1.008000   ; qtot 107.250733
 3207         h1    106    bbb    H18   3207 0.13554100   1.008000   ; qtot 107.386274
 3208         os    106    bbb     O1   3208 -0.62587700  16.000000   ; qtot 106.760397
 3209         hn    106    bbb    H19   3209 0.23982500   1.008000   ; qtot 107.000222
; residue  107 bbb rtp bbb q 1.0
 3210         n4    107    bbb     N1   3210 0.03726400  14.010000   ; qtot 107.037486
 3211         c3    107    bbb     C1   3211 -0.07020100  12.010000   ; qtot 106.967285
 3212         hx    107    bbb     H1   3212 0.12219000   1.008000   ; qtot 107.089475
 3213         hx    107    bbb     H2   3213 0.12219000   1.008000   ; qtot 107.211665
 3214         c3    107    bbb     C2   3214 -0.07020100  12.010000   ; qtot 107.141464
 3215         hx    107    bbb     H3   3215 0.12219000   1.008000   ; qtot 107.263654
 3216         hx    107    bbb     H4   3216 0.12219000   1.008000   ; qtot 107.385844
 3217         c3    107    bbb     C3   3217 -0.39007700  12.010000   ; qtot 106.995767
 3218         hx    107    bbb     H5   3218 0.14940300   1.008000   ; qtot 107.145170
 3219         hx    107    bbb     H6   3219 0.14940300   1.008000   ; qtot 107.294573
 3220         c3    107    bbb     C4   3220 0.18057300  12.010000   ; qtot 107.475146
 3221         hc    107    bbb     H7   3221 0.01788900   1.008000   ; qtot 107.493035
 3222         hc    107    bbb     H8   3222 0.01788900   1.008000   ; qtot 107.510924
 3223         c3    107    bbb     C5   3223 -0.11337700  12.010000   ; qtot 107.397547
 3224         hc    107    bbb     H9   3224 0.09515400   1.008000   ; qtot 107.492701
 3225         hc    107    bbb    H10   3225 0.09515400   1.008000   ; qtot 107.587855
 3226         c3    107    bbb     C6   3226 -0.11337700  12.010000   ; qtot 107.474478
 3227         hc    107    bbb    H11   3227 0.09515400   1.008000   ; qtot 107.569632
 3228         hc    107    bbb    H12   3228 0.09515400   1.008000   ; qtot 107.664786
 3229         c3    107    bbb     C7   3229 0.21842400  12.010000   ; qtot 107.883210
 3230         h1    107    bbb    H13   3230 0.04500300   1.008000   ; qtot 107.928213
 3231         h1    107    bbb    H14   3231 0.04500300   1.008000   ; qtot 107.973216
 3232         c3    107    bbb     C8   3232 -0.06455200  12.010000   ; qtot 107.908664
 3233         h1    107    bbb    H15   3233 0.13554100   1.008000   ; qtot 108.044205
 3234         h1    107    bbb    H16   3234 0.13554100   1.008000   ; qtot 108.179746
 3235         c3    107    bbb     C9   3235 -0.06455200  12.010000   ; qtot 108.115194
 3236         h1    107    bbb    H17   3236 0.13554100   1.008000   ; qtot 108.250735
 3237         h1    107    bbb    H18   3237 0.13554100   1.008000   ; qtot 108.386276
 3238         os    107    bbb     O1   3238 -0.62587700  16.000000   ; qtot 107.760399
 3239         hn    107    bbb    H19   3239 0.23982500   1.008000   ; qtot 108.000224
; residue  108 bbb rtp bbb q 1.0
 3240         n4    108    bbb     N1   3240 0.03726400  14.010000   ; qtot 108.037488
 3241         c3    108    bbb     C1   3241 -0.07020100  12.010000   ; qtot 107.967287
 3242         hx    108    bbb     H1   3242 0.12219000   1.008000   ; qtot 108.089477
 3243         hx    108    bbb     H2   3243 0.12219000   1.008000   ; qtot 108.211667
 3244         c3    108    bbb     C2   3244 -0.07020100  12.010000   ; qtot 108.141466
 3245         hx    108    bbb     H3   3245 0.12219000   1.008000   ; qtot 108.263656
 3246         hx    108    bbb     H4   3246 0.12219000   1.008000   ; qtot 108.385846
 3247         c3    108    bbb     C3   3247 -0.39007700  12.010000   ; qtot 107.995769
 3248         hx    108    bbb     H5   3248 0.14940300   1.008000   ; qtot 108.145172
 3249         hx    108    bbb     H6   3249 0.14940300   1.008000   ; qtot 108.294575
 3250         c3    108    bbb     C4   3250 0.18057300  12.010000   ; qtot 108.475148
 3251         hc    108    bbb     H7   3251 0.01788900   1.008000   ; qtot 108.493037
 3252         hc    108    bbb     H8   3252 0.01788900   1.008000   ; qtot 108.510926
 3253         c3    108    bbb     C5   3253 -0.11337700  12.010000   ; qtot 108.397549
 3254         hc    108    bbb     H9   3254 0.09515400   1.008000   ; qtot 108.492703
 3255         hc    108    bbb    H10   3255 0.09515400   1.008000   ; qtot 108.587857
 3256         c3    108    bbb     C6   3256 -0.11337700  12.010000   ; qtot 108.474480
 3257         hc    108    bbb    H11   3257 0.09515400   1.008000   ; qtot 108.569634
 3258         hc    108    bbb    H12   3258 0.09515400   1.008000   ; qtot 108.664788
 3259         c3    108    bbb     C7   3259 0.21842400  12.010000   ; qtot 108.883212
 3260         h1    108    bbb    H13   3260 0.04500300   1.008000   ; qtot 108.928215
 3261         h1    108    bbb    H14   3261 0.04500300   1.008000   ; qtot 108.973218
 3262         c3    108    bbb     C8   3262 -0.06455200  12.010000   ; qtot 108.908666
 3263         h1    108    bbb    H15   3263 0.13554100   1.008000   ; qtot 109.044207
 3264         h1    108    bbb    H16   3264 0.13554100   1.008000   ; qtot 109.179748
 3265         c3    108    bbb     C9   3265 -0.06455200  12.010000   ; qtot 109.115196
 3266         h1    108    bbb    H17   3266 0.13554100   1.008000   ; qtot 109.250737
 3267         h1    108    bbb    H18   3267 0.13554100   1.008000   ; qtot 109.386278
 3268         os    108    bbb     O1   3268 -0.62587700  16.000000   ; qtot 108.760401
 3269         hn    108    bbb    H19   3269 0.23982500   1.008000   ; qtot 109.000226
; residue  109 bbb rtp bbb q 1.0
 3270         n4    109    bbb     N1   3270 0.03726400  14.010000   ; qtot 109.037490
 3271         c3    109    bbb     C1   3271 -0.07020100  12.010000   ; qtot 108.967289
 3272         hx    109    bbb     H1   3272 0.12219000   1.008000   ; qtot 109.089479
 3273         hx    109    bbb     H2   3273 0.12219000   1.008000   ; qtot 109.211669
 3274         c3    109    bbb     C2   3274 -0.07020100  12.010000   ; qtot 109.141468
 3275         hx    109    bbb     H3   3275 0.12219000   1.008000   ; qtot 109.263658
 3276         hx    109    bbb     H4   3276 0.12219000   1.008000   ; qtot 109.385848
 3277         c3    109    bbb     C3   3277 -0.39007700  12.010000   ; qtot 108.995771
 3278         hx    109    bbb     H5   3278 0.14940300   1.008000   ; qtot 109.145174
 3279         hx    109    bbb     H6   3279 0.14940300   1.008000   ; qtot 109.294577
 3280         c3    109    bbb     C4   3280 0.18057300  12.010000   ; qtot 109.475150
 3281         hc    109    bbb     H7   3281 0.01788900   1.008000   ; qtot 109.493039
 3282         hc    109    bbb     H8   3282 0.01788900   1.008000   ; qtot 109.510928
 3283         c3    109    bbb     C5   3283 -0.11337700  12.010000   ; qtot 109.397551
 3284         hc    109    bbb     H9   3284 0.09515400   1.008000   ; qtot 109.492705
 3285         hc    109    bbb    H10   3285 0.09515400   1.008000   ; qtot 109.587859
 3286         c3    109    bbb     C6   3286 -0.11337700  12.010000   ; qtot 109.474482
 3287         hc    109    bbb    H11   3287 0.09515400   1.008000   ; qtot 109.569636
 3288         hc    109    bbb    H12   3288 0.09515400   1.008000   ; qtot 109.664790
 3289         c3    109    bbb     C7   3289 0.21842400  12.010000   ; qtot 109.883214
 3290         h1    109    bbb    H13   3290 0.04500300   1.008000   ; qtot 109.928217
 3291         h1    109    bbb    H14   3291 0.04500300   1.008000   ; qtot 109.973220
 3292         c3    109    bbb     C8   3292 -0.06455200  12.010000   ; qtot 109.908668
 3293         h1    109    bbb    H15   3293 0.13554100   1.008000   ; qtot 110.044209
 3294         h1    109    bbb    H16   3294 0.13554100   1.008000   ; qtot 110.179750
 3295         c3    109    bbb     C9   3295 -0.06455200  12.010000   ; qtot 110.115198
 3296         h1    109    bbb    H17   3296 0.13554100   1.008000   ; qtot 110.250739
 3297         h1    109    bbb    H18   3297 0.13554100   1.008000   ; qtot 110.386280
 3298         os    109    bbb     O1   3298 -0.62587700  16.000000   ; qtot 109.760403
 3299         hn    109    bbb    H19   3299 0.23982500   1.008000   ; qtot 110.000228
; residue  110 bbb rtp bbb q 1.0
 3300         n4    110    bbb     N1   3300 0.03726400  14.010000   ; qtot 110.037492
 3301         c3    110    bbb     C1   3301 -0.07020100  12.010000   ; qtot 109.967291
 3302         hx    110    bbb     H1   3302 0.12219000   1.008000   ; qtot 110.089481
 3303         hx    110    bbb     H2   3303 0.12219000   1.008000   ; qtot 110.211671
 3304         c3    110    bbb     C2   3304 -0.07020100  12.010000   ; qtot 110.141470
 3305         hx    110    bbb     H3   3305 0.12219000   1.008000   ; qtot 110.263660
 3306         hx    110    bbb     H4   3306 0.12219000   1.008000   ; qtot 110.385850
 3307         c3    110    bbb     C3   3307 -0.39007700  12.010000   ; qtot 109.995773
 3308         hx    110    bbb     H5   3308 0.14940300   1.008000   ; qtot 110.145176
 3309         hx    110    bbb     H6   3309 0.14940300   1.008000   ; qtot 110.294579
 3310         c3    110    bbb     C4   3310 0.18057300  12.010000   ; qtot 110.475152
 3311         hc    110    bbb     H7   3311 0.01788900   1.008000   ; qtot 110.493041
 3312         hc    110    bbb     H8   3312 0.01788900   1.008000   ; qtot 110.510930
 3313         c3    110    bbb     C5   3313 -0.11337700  12.010000   ; qtot 110.397553
 3314         hc    110    bbb     H9   3314 0.09515400   1.008000   ; qtot 110.492707
 3315         hc    110    bbb    H10   3315 0.09515400   1.008000   ; qtot 110.587861
 3316         c3    110    bbb     C6   3316 -0.11337700  12.010000   ; qtot 110.474484
 3317         hc    110    bbb    H11   3317 0.09515400   1.008000   ; qtot 110.569638
 3318         hc    110    bbb    H12   3318 0.09515400   1.008000   ; qtot 110.664792
 3319         c3    110    bbb     C7   3319 0.21842400  12.010000   ; qtot 110.883216
 3320         h1    110    bbb    H13   3320 0.04500300   1.008000   ; qtot 110.928219
 3321         h1    110    bbb    H14   3321 0.04500300   1.008000   ; qtot 110.973222
 3322         c3    110    bbb     C8   3322 -0.06455200  12.010000   ; qtot 110.908670
 3323         h1    110    bbb    H15   3323 0.13554100   1.008000   ; qtot 111.044211
 3324         h1    110    bbb    H16   3324 0.13554100   1.008000   ; qtot 111.179752
 3325         c3    110    bbb     C9   3325 -0.06455200  12.010000   ; qtot 111.115200
 3326         h1    110    bbb    H17   3326 0.13554100   1.008000   ; qtot 111.250741
 3327         h1    110    bbb    H18   3327 0.13554100   1.008000   ; qtot 111.386282
 3328         os    110    bbb     O1   3328 -0.62587700  16.000000   ; qtot 110.760405
 3329         hn    110    bbb    H19   3329 0.23982500   1.008000   ; qtot 111.000230
; residue  111 bbb rtp bbb q 1.0
 3330         n4    111    bbb     N1   3330 0.03726400  14.010000   ; qtot 111.037494
 3331         c3    111    bbb     C1   3331 -0.07020100  12.010000   ; qtot 110.967293
 3332         hx    111    bbb     H1   3332 0.12219000   1.008000   ; qtot 111.089483
 3333         hx    111    bbb     H2   3333 0.12219000   1.008000   ; qtot 111.211673
 3334         c3    111    bbb     C2   3334 -0.07020100  12.010000   ; qtot 111.141472
 3335         hx    111    bbb     H3   3335 0.12219000   1.008000   ; qtot 111.263662
 3336         hx    111    bbb     H4   3336 0.12219000   1.008000   ; qtot 111.385852
 3337         c3    111    bbb     C3   3337 -0.39007700  12.010000   ; qtot 110.995775
 3338         hx    111    bbb     H5   3338 0.14940300   1.008000   ; qtot 111.145178
 3339         hx    111    bbb     H6   3339 0.14940300   1.008000   ; qtot 111.294581
 3340         c3    111    bbb     C4   3340 0.18057300  12.010000   ; qtot 111.475154
 3341         hc    111    bbb     H7   3341 0.01788900   1.008000   ; qtot 111.493043
 3342         hc    111    bbb     H8   3342 0.01788900   1.008000   ; qtot 111.510932
 3343         c3    111    bbb     C5   3343 -0.11337700  12.010000   ; qtot 111.397555
 3344         hc    111    bbb     H9   3344 0.09515400   1.008000   ; qtot 111.492709
 3345         hc    111    bbb    H10   3345 0.09515400   1.008000   ; qtot 111.587863
 3346         c3    111    bbb     C6   3346 -0.11337700  12.010000   ; qtot 111.474486
 3347         hc    111    bbb    H11   3347 0.09515400   1.008000   ; qtot 111.569640
 3348         hc    111    bbb    H12   3348 0.09515400   1.008000   ; qtot 111.664794
 3349         c3    111    bbb     C7   3349 0.21842400  12.010000   ; qtot 111.883218
 3350         h1    111    bbb    H13   3350 0.04500300   1.008000   ; qtot 111.928221
 3351         h1    111    bbb    H14   3351 0.04500300   1.008000   ; qtot 111.973224
 3352         c3    111    bbb     C8   3352 -0.06455200  12.010000   ; qtot 111.908672
 3353         h1    111    bbb    H15   3353 0.13554100   1.008000   ; qtot 112.044213
 3354         h1    111    bbb    H16   3354 0.13554100   1.008000   ; qtot 112.179754
 3355         c3    111    bbb     C9   3355 -0.06455200  12.010000   ; qtot 112.115202
 3356         h1    111    bbb    H17   3356 0.13554100   1.008000   ; qtot 112.250743
 3357         h1    111    bbb    H18   3357 0.13554100   1.008000   ; qtot 112.386284
 3358         os    111    bbb     O1   3358 -0.62587700  16.000000   ; qtot 111.760407
 3359         hn    111    bbb    H19   3359 0.23982500   1.008000   ; qtot 112.000232
; residue  112 bbb rtp bbb q 1.0
 3360         n4    112    bbb     N1   3360 0.03726400  14.010000   ; qtot 112.037496
 3361         c3    112    bbb     C1   3361 -0.07020100  12.010000   ; qtot 111.967295
 3362         hx    112    bbb     H1   3362 0.12219000   1.008000   ; qtot 112.089485
 3363         hx    112    bbb     H2   3363 0.12219000   1.008000   ; qtot 112.211675
 3364         c3    112    bbb     C2   3364 -0.07020100  12.010000   ; qtot 112.141474
 3365         hx    112    bbb     H3   3365 0.12219000   1.008000   ; qtot 112.263664
 3366         hx    112    bbb     H4   3366 0.12219000   1.008000   ; qtot 112.385854
 3367         c3    112    bbb     C3   3367 -0.39007700  12.010000   ; qtot 111.995777
 3368         hx    112    bbb     H5   3368 0.14940300   1.008000   ; qtot 112.145180
 3369         hx    112    bbb     H6   3369 0.14940300   1.008000   ; qtot 112.294583
 3370         c3    112    bbb     C4   3370 0.18057300  12.010000   ; qtot 112.475156
 3371         hc    112    bbb     H7   3371 0.01788900   1.008000   ; qtot 112.493045
 3372         hc    112    bbb     H8   3372 0.01788900   1.008000   ; qtot 112.510934
 3373         c3    112    bbb     C5   3373 -0.11337700  12.010000   ; qtot 112.397557
 3374         hc    112    bbb     H9   3374 0.09515400   1.008000   ; qtot 112.492711
 3375         hc    112    bbb    H10   3375 0.09515400   1.008000   ; qtot 112.587865
 3376         c3    112    bbb     C6   3376 -0.11337700  12.010000   ; qtot 112.474488
 3377         hc    112    bbb    H11   3377 0.09515400   1.008000   ; qtot 112.569642
 3378         hc    112    bbb    H12   3378 0.09515400   1.008000   ; qtot 112.664796
 3379         c3    112    bbb     C7   3379 0.21842400  12.010000   ; qtot 112.883220
 3380         h1    112    bbb    H13   3380 0.04500300   1.008000   ; qtot 112.928223
 3381         h1    112    bbb    H14   3381 0.04500300   1.008000   ; qtot 112.973226
 3382         c3    112    bbb     C8   3382 -0.06455200  12.010000   ; qtot 112.908674
 3383         h1    112    bbb    H15   3383 0.13554100   1.008000   ; qtot 113.044215
 3384         h1    112    bbb    H16   3384 0.13554100   1.008000   ; qtot 113.179756
 3385         c3    112    bbb     C9   3385 -0.06455200  12.010000   ; qtot 113.115204
 3386         h1    112    bbb    H17   3386 0.13554100   1.008000   ; qtot 113.250745
 3387         h1    112    bbb    H18   3387 0.13554100   1.008000   ; qtot 113.386286
 3388         os    112    bbb     O1   3388 -0.62587700  16.000000   ; qtot 112.760409
 3389         hn    112    bbb    H19   3389 0.23982500   1.008000   ; qtot 113.000234
; residue  113 bbb rtp bbb q 1.0
 3390         n4    113    bbb     N1   3390 0.03726400  14.010000   ; qtot 113.037498
 3391         c3    113    bbb     C1   3391 -0.07020100  12.010000   ; qtot 112.967297
 3392         hx    113    bbb     H1   3392 0.12219000   1.008000   ; qtot 113.089487
 3393         hx    113    bbb     H2   3393 0.12219000   1.008000   ; qtot 113.211677
 3394         c3    113    bbb     C2   3394 -0.07020100  12.010000   ; qtot 113.141476
 3395         hx    113    bbb     H3   3395 0.12219000   1.008000   ; qtot 113.263666
 3396         hx    113    bbb     H4   3396 0.12219000   1.008000   ; qtot 113.385856
 3397         c3    113    bbb     C3   3397 -0.39007700  12.010000   ; qtot 112.995779
 3398         hx    113    bbb     H5   3398 0.14940300   1.008000   ; qtot 113.145182
 3399         hx    113    bbb     H6   3399 0.14940300   1.008000   ; qtot 113.294585
 3400         c3    113    bbb     C4   3400 0.18057300  12.010000   ; qtot 113.475158
 3401         hc    113    bbb     H7   3401 0.01788900   1.008000   ; qtot 113.493047
 3402         hc    113    bbb     H8   3402 0.01788900   1.008000   ; qtot 113.510936
 3403         c3    113    bbb     C5   3403 -0.11337700  12.010000   ; qtot 113.397559
 3404         hc    113    bbb     H9   3404 0.09515400   1.008000   ; qtot 113.492713
 3405         hc    113    bbb    H10   3405 0.09515400   1.008000   ; qtot 113.587867
 3406         c3    113    bbb     C6   3406 -0.11337700  12.010000   ; qtot 113.474490
 3407         hc    113    bbb    H11   3407 0.09515400   1.008000   ; qtot 113.569644
 3408         hc    113    bbb    H12   3408 0.09515400   1.008000   ; qtot 113.664798
 3409         c3    113    bbb     C7   3409 0.21842400  12.010000   ; qtot 113.883222
 3410         h1    113    bbb    H13   3410 0.04500300   1.008000   ; qtot 113.928225
 3411         h1    113    bbb    H14   3411 0.04500300   1.008000   ; qtot 113.973228
 3412         c3    113    bbb     C8   3412 -0.06455200  12.010000   ; qtot 113.908676
 3413         h1    113    bbb    H15   3413 0.13554100   1.008000   ; qtot 114.044217
 3414         h1    113    bbb    H16   3414 0.13554100   1.008000   ; qtot 114.179758
 3415         c3    113    bbb     C9   3415 -0.06455200  12.010000   ; qtot 114.115206
 3416         h1    113    bbb    H17   3416 0.13554100   1.008000   ; qtot 114.250747
 3417         h1    113    bbb    H18   3417 0.13554100   1.008000   ; qtot 114.386288
 3418         os    113    bbb     O1   3418 -0.62587700  16.000000   ; qtot 113.760411
 3419         hn    113    bbb    H19   3419 0.23982500   1.008000   ; qtot 114.000236
; residue  114 bbb rtp bbb q 1.0
 3420         n4    114    bbb     N1   3420 0.03726400  14.010000   ; qtot 114.037500
 3421         c3    114    bbb     C1   3421 -0.07020100  12.010000   ; qtot 113.967299
 3422         hx    114    bbb     H1   3422 0.12219000   1.008000   ; qtot 114.089489
 3423         hx    114    bbb     H2   3423 0.12219000   1.008000   ; qtot 114.211679
 3424         c3    114    bbb     C2   3424 -0.07020100  12.010000   ; qtot 114.141478
 3425         hx    114    bbb     H3   3425 0.12219000   1.008000   ; qtot 114.263668
 3426         hx    114    bbb     H4   3426 0.12219000   1.008000   ; qtot 114.385858
 3427         c3    114    bbb     C3   3427 -0.39007700  12.010000   ; qtot 113.995781
 3428         hx    114    bbb     H5   3428 0.14940300   1.008000   ; qtot 114.145184
 3429         hx    114    bbb     H6   3429 0.14940300   1.008000   ; qtot 114.294587
 3430         c3    114    bbb     C4   3430 0.18057300  12.010000   ; qtot 114.475160
 3431         hc    114    bbb     H7   3431 0.01788900   1.008000   ; qtot 114.493049
 3432         hc    114    bbb     H8   3432 0.01788900   1.008000   ; qtot 114.510938
 3433         c3    114    bbb     C5   3433 -0.11337700  12.010000   ; qtot 114.397561
 3434         hc    114    bbb     H9   3434 0.09515400   1.008000   ; qtot 114.492715
 3435         hc    114    bbb    H10   3435 0.09515400   1.008000   ; qtot 114.587869
 3436         c3    114    bbb     C6   3436 -0.11337700  12.010000   ; qtot 114.474492
 3437         hc    114    bbb    H11   3437 0.09515400   1.008000   ; qtot 114.569646
 3438         hc    114    bbb    H12   3438 0.09515400   1.008000   ; qtot 114.664800
 3439         c3    114    bbb     C7   3439 0.21842400  12.010000   ; qtot 114.883224
 3440         h1    114    bbb    H13   3440 0.04500300   1.008000   ; qtot 114.928227
 3441         h1    114    bbb    H14   3441 0.04500300   1.008000   ; qtot 114.973230
 3442         c3    114    bbb     C8   3442 -0.06455200  12.010000   ; qtot 114.908678
 3443         h1    114    bbb    H15   3443 0.13554100   1.008000   ; qtot 115.044219
 3444         h1    114    bbb    H16   3444 0.13554100   1.008000   ; qtot 115.179760
 3445         c3    114    bbb     C9   3445 -0.06455200  12.010000   ; qtot 115.115208
 3446         h1    114    bbb    H17   3446 0.13554100   1.008000   ; qtot 115.250749
 3447         h1    114    bbb    H18   3447 0.13554100   1.008000   ; qtot 115.386290
 3448         os    114    bbb     O1   3448 -0.62587700  16.000000   ; qtot 114.760413
 3449         hn    114    bbb    H19   3449 0.23982500   1.008000   ; qtot 115.000238
; residue  115 bbb rtp bbb q 1.0
 3450         n4    115    bbb     N1   3450 0.03726400  14.010000   ; qtot 115.037502
 3451         c3    115    bbb     C1   3451 -0.07020100  12.010000   ; qtot 114.967301
 3452         hx    115    bbb     H1   3452 0.12219000   1.008000   ; qtot 115.089491
 3453         hx    115    bbb     H2   3453 0.12219000   1.008000   ; qtot 115.211681
 3454         c3    115    bbb     C2   3454 -0.07020100  12.010000   ; qtot 115.141480
 3455         hx    115    bbb     H3   3455 0.12219000   1.008000   ; qtot 115.263670
 3456         hx    115    bbb     H4   3456 0.12219000   1.008000   ; qtot 115.385860
 3457         c3    115    bbb     C3   3457 -0.39007700  12.010000   ; qtot 114.995783
 3458         hx    115    bbb     H5   3458 0.14940300   1.008000   ; qtot 115.145186
 3459         hx    115    bbb     H6   3459 0.14940300   1.008000   ; qtot 115.294589
 3460         c3    115    bbb     C4   3460 0.18057300  12.010000   ; qtot 115.475162
 3461         hc    115    bbb     H7   3461 0.01788900   1.008000   ; qtot 115.493051
 3462         hc    115    bbb     H8   3462 0.01788900   1.008000   ; qtot 115.510940
 3463         c3    115    bbb     C5   3463 -0.11337700  12.010000   ; qtot 115.397563
 3464         hc    115    bbb     H9   3464 0.09515400   1.008000   ; qtot 115.492717
 3465         hc    115    bbb    H10   3465 0.09515400   1.008000   ; qtot 115.587871
 3466         c3    115    bbb     C6   3466 -0.11337700  12.010000   ; qtot 115.474494
 3467         hc    115    bbb    H11   3467 0.09515400   1.008000   ; qtot 115.569648
 3468         hc    115    bbb    H12   3468 0.09515400   1.008000   ; qtot 115.664802
 3469         c3    115    bbb     C7   3469 0.21842400  12.010000   ; qtot 115.883226
 3470         h1    115    bbb    H13   3470 0.04500300   1.008000   ; qtot 115.928229
 3471         h1    115    bbb    H14   3471 0.04500300   1.008000   ; qtot 115.973232
 3472         c3    115    bbb     C8   3472 -0.06455200  12.010000   ; qtot 115.908680
 3473         h1    115    bbb    H15   3473 0.13554100   1.008000   ; qtot 116.044221
 3474         h1    115    bbb    H16   3474 0.13554100   1.008000   ; qtot 116.179762
 3475         c3    115    bbb     C9   3475 -0.06455200  12.010000   ; qtot 116.115210
 3476         h1    115    bbb    H17   3476 0.13554100   1.008000   ; qtot 116.250751
 3477         h1    115    bbb    H18   3477 0.13554100   1.008000   ; qtot 116.386292
 3478         os    115    bbb     O1   3478 -0.62587700  16.000000   ; qtot 115.760415
 3479         hn    115    bbb    H19   3479 0.23982500   1.008000   ; qtot 116.000240
; residue  116 bbb rtp bbb q 1.0
 3480         n4    116    bbb     N1   3480 0.03726400  14.010000   ; qtot 116.037504
 3481         c3    116    bbb     C1   3481 -0.07020100  12.010000   ; qtot 115.967303
 3482         hx    116    bbb     H1   3482 0.12219000   1.008000   ; qtot 116.089493
 3483         hx    116    bbb     H2   3483 0.12219000   1.008000   ; qtot 116.211683
 3484         c3    116    bbb     C2   3484 -0.07020100  12.010000   ; qtot 116.141482
 3485         hx    116    bbb     H3   3485 0.12219000   1.008000   ; qtot 116.263672
 3486         hx    116    bbb     H4   3486 0.12219000   1.008000   ; qtot 116.385862
 3487         c3    116    bbb     C3   3487 -0.39007700  12.010000   ; qtot 115.995785
 3488         hx    116    bbb     H5   3488 0.14940300   1.008000   ; qtot 116.145188
 3489         hx    116    bbb     H6   3489 0.14940300   1.008000   ; qtot 116.294591
 3490         c3    116    bbb     C4   3490 0.18057300  12.010000   ; qtot 116.475164
 3491         hc    116    bbb     H7   3491 0.01788900   1.008000   ; qtot 116.493053
 3492         hc    116    bbb     H8   3492 0.01788900   1.008000   ; qtot 116.510942
 3493         c3    116    bbb     C5   3493 -0.11337700  12.010000   ; qtot 116.397565
 3494         hc    116    bbb     H9   3494 0.09515400   1.008000   ; qtot 116.492719
 3495         hc    116    bbb    H10   3495 0.09515400   1.008000   ; qtot 116.587873
 3496         c3    116    bbb     C6   3496 -0.11337700  12.010000   ; qtot 116.474496
 3497         hc    116    bbb    H11   3497 0.09515400   1.008000   ; qtot 116.569650
 3498         hc    116    bbb    H12   3498 0.09515400   1.008000   ; qtot 116.664804
 3499         c3    116    bbb     C7   3499 0.21842400  12.010000   ; qtot 116.883228
 3500         h1    116    bbb    H13   3500 0.04500300   1.008000   ; qtot 116.928231
 3501         h1    116    bbb    H14   3501 0.04500300   1.008000   ; qtot 116.973234
 3502         c3    116    bbb     C8   3502 -0.06455200  12.010000   ; qtot 116.908682
 3503         h1    116    bbb    H15   3503 0.13554100   1.008000   ; qtot 117.044223
 3504         h1    116    bbb    H16   3504 0.13554100   1.008000   ; qtot 117.179764
 3505         c3    116    bbb     C9   3505 -0.06455200  12.010000   ; qtot 117.115212
 3506         h1    116    bbb    H17   3506 0.13554100   1.008000   ; qtot 117.250753
 3507         h1    116    bbb    H18   3507 0.13554100   1.008000   ; qtot 117.386294
 3508         os    116    bbb     O1   3508 -0.62587700  16.000000   ; qtot 116.760417
 3509         hn    116    bbb    H19   3509 0.23982500   1.008000   ; qtot 117.000242
; residue  117 bbb rtp bbb q 1.0
 3510         n4    117    bbb     N1   3510 0.03726400  14.010000   ; qtot 117.037506
 3511         c3    117    bbb     C1   3511 -0.07020100  12.010000   ; qtot 116.967305
 3512         hx    117    bbb     H1   3512 0.12219000   1.008000   ; qtot 117.089495
 3513         hx    117    bbb     H2   3513 0.12219000   1.008000   ; qtot 117.211685
 3514         c3    117    bbb     C2   3514 -0.07020100  12.010000   ; qtot 117.141484
 3515         hx    117    bbb     H3   3515 0.12219000   1.008000   ; qtot 117.263674
 3516         hx    117    bbb     H4   3516 0.12219000   1.008000   ; qtot 117.385864
 3517         c3    117    bbb     C3   3517 -0.39007700  12.010000   ; qtot 116.995787
 3518         hx    117    bbb     H5   3518 0.14940300   1.008000   ; qtot 117.145190
 3519         hx    117    bbb     H6   3519 0.14940300   1.008000   ; qtot 117.294593
 3520         c3    117    bbb     C4   3520 0.18057300  12.010000   ; qtot 117.475166
 3521         hc    117    bbb     H7   3521 0.01788900   1.008000   ; qtot 117.493055
 3522         hc    117    bbb     H8   3522 0.01788900   1.008000   ; qtot 117.510944
 3523         c3    117    bbb     C5   3523 -0.11337700  12.010000   ; qtot 117.397567
 3524         hc    117    bbb     H9   3524 0.09515400   1.008000   ; qtot 117.492721
 3525         hc    117    bbb    H10   3525 0.09515400   1.008000   ; qtot 117.587875
 3526         c3    117    bbb     C6   3526 -0.11337700  12.010000   ; qtot 117.474498
 3527         hc    117    bbb    H11   3527 0.09515400   1.008000   ; qtot 117.569652
 3528         hc    117    bbb    H12   3528 0.09515400   1.008000   ; qtot 117.664806
 3529         c3    117    bbb     C7   3529 0.21842400  12.010000   ; qtot 117.883230
 3530         h1    117    bbb    H13   3530 0.04500300   1.008000   ; qtot 117.928233
 3531         h1    117    bbb    H14   3531 0.04500300   1.008000   ; qtot 117.973236
 3532         c3    117    bbb     C8   3532 -0.06455200  12.010000   ; qtot 117.908684
 3533         h1    117    bbb    H15   3533 0.13554100   1.008000   ; qtot 118.044225
 3534         h1    117    bbb    H16   3534 0.13554100   1.008000   ; qtot 118.179766
 3535         c3    117    bbb     C9   3535 -0.06455200  12.010000   ; qtot 118.115214
 3536         h1    117    bbb    H17   3536 0.13554100   1.008000   ; qtot 118.250755
 3537         h1    117    bbb    H18   3537 0.13554100   1.008000   ; qtot 118.386296
 3538         os    117    bbb     O1   3538 -0.62587700  16.000000   ; qtot 117.760419
 3539         hn    117    bbb    H19   3539 0.23982500   1.008000   ; qtot 118.000244
; residue  118 bbb rtp bbb q 1.0
 3540         n4    118    bbb     N1   3540 0.03726400  14.010000   ; qtot 118.037508
 3541         c3    118    bbb     C1   3541 -0.07020100  12.010000   ; qtot 117.967307
 3542         hx    118    bbb     H1   3542 0.12219000   1.008000   ; qtot 118.089497
 3543         hx    118    bbb     H2   3543 0.12219000   1.008000   ; qtot 118.211687
 3544         c3    118    bbb     C2   3544 -0.07020100  12.010000   ; qtot 118.141486
 3545         hx    118    bbb     H3   3545 0.12219000   1.008000   ; qtot 118.263676
 3546         hx    118    bbb     H4   3546 0.12219000   1.008000   ; qtot 118.385866
 3547         c3    118    bbb     C3   3547 -0.39007700  12.010000   ; qtot 117.995789
 3548         hx    118    bbb     H5   3548 0.14940300   1.008000   ; qtot 118.145192
 3549         hx    118    bbb     H6   3549 0.14940300   1.008000   ; qtot 118.294595
 3550         c3    118    bbb     C4   3550 0.18057300  12.010000   ; qtot 118.475168
 3551         hc    118    bbb     H7   3551 0.01788900   1.008000   ; qtot 118.493057
 3552         hc    118    bbb     H8   3552 0.01788900   1.008000   ; qtot 118.510946
 3553         c3    118    bbb     C5   3553 -0.11337700  12.010000   ; qtot 118.397569
 3554         hc    118    bbb     H9   3554 0.09515400   1.008000   ; qtot 118.492723
 3555         hc    118    bbb    H10   3555 0.09515400   1.008000   ; qtot 118.587877
 3556         c3    118    bbb     C6   3556 -0.11337700  12.010000   ; qtot 118.474500
 3557         hc    118    bbb    H11   3557 0.09515400   1.008000   ; qtot 118.569654
 3558         hc    118    bbb    H12   3558 0.09515400   1.008000   ; qtot 118.664808
 3559         c3    118    bbb     C7   3559 0.21842400  12.010000   ; qtot 118.883232
 3560         h1    118    bbb    H13   3560 0.04500300   1.008000   ; qtot 118.928235
 3561         h1    118    bbb    H14   3561 0.04500300   1.008000   ; qtot 118.973238
 3562         c3    118    bbb     C8   3562 -0.06455200  12.010000   ; qtot 118.908686
 3563         h1    118    bbb    H15   3563 0.13554100   1.008000   ; qtot 119.044227
 3564         h1    118    bbb    H16   3564 0.13554100   1.008000   ; qtot 119.179768
 3565         c3    118    bbb     C9   3565 -0.06455200  12.010000   ; qtot 119.115216
 3566         h1    118    bbb    H17   3566 0.13554100   1.008000   ; qtot 119.250757
 3567         h1    118    bbb    H18   3567 0.13554100   1.008000   ; qtot 119.386298
 3568         os    118    bbb     O1   3568 -0.62587700  16.000000   ; qtot 118.760421
 3569         hn    118    bbb    H19   3569 0.23982500   1.008000   ; qtot 119.000246
; residue  119 bbb rtp bbb q 1.0
 3570         n4    119    bbb     N1   3570 0.03726400  14.010000   ; qtot 119.037510
 3571         c3    119    bbb     C1   3571 -0.07020100  12.010000   ; qtot 118.967309
 3572         hx    119    bbb     H1   3572 0.12219000   1.008000   ; qtot 119.089499
 3573         hx    119    bbb     H2   3573 0.12219000   1.008000   ; qtot 119.211689
 3574         c3    119    bbb     C2   3574 -0.07020100  12.010000   ; qtot 119.141488
 3575         hx    119    bbb     H3   3575 0.12219000   1.008000   ; qtot 119.263678
 3576         hx    119    bbb     H4   3576 0.12219000   1.008000   ; qtot 119.385868
 3577         c3    119    bbb     C3   3577 -0.39007700  12.010000   ; qtot 118.995791
 3578         hx    119    bbb     H5   3578 0.14940300   1.008000   ; qtot 119.145194
 3579         hx    119    bbb     H6   3579 0.14940300   1.008000   ; qtot 119.294597
 3580         c3    119    bbb     C4   3580 0.18057300  12.010000   ; qtot 119.475170
 3581         hc    119    bbb     H7   3581 0.01788900   1.008000   ; qtot 119.493059
 3582         hc    119    bbb     H8   3582 0.01788900   1.008000   ; qtot 119.510948
 3583         c3    119    bbb     C5   3583 -0.11337700  12.010000   ; qtot 119.397571
 3584         hc    119    bbb     H9   3584 0.09515400   1.008000   ; qtot 119.492725
 3585         hc    119    bbb    H10   3585 0.09515400   1.008000   ; qtot 119.587879
 3586         c3    119    bbb     C6   3586 -0.11337700  12.010000   ; qtot 119.474502
 3587         hc    119    bbb    H11   3587 0.09515400   1.008000   ; qtot 119.569656
 3588         hc    119    bbb    H12   3588 0.09515400   1.008000   ; qtot 119.664810
 3589         c3    119    bbb     C7   3589 0.21842400  12.010000   ; qtot 119.883234
 3590         h1    119    bbb    H13   3590 0.04500300   1.008000   ; qtot 119.928237
 3591         h1    119    bbb    H14   3591 0.04500300   1.008000   ; qtot 119.973240
 3592         c3    119    bbb     C8   3592 -0.06455200  12.010000   ; qtot 119.908688
 3593         h1    119    bbb    H15   3593 0.13554100   1.008000   ; qtot 120.044229
 3594         h1    119    bbb    H16   3594 0.13554100   1.008000   ; qtot 120.179770
 3595         c3    119    bbb     C9   3595 -0.06455200  12.010000   ; qtot 120.115218
 3596         h1    119    bbb    H17   3596 0.13554100   1.008000   ; qtot 120.250759
 3597         h1    119    bbb    H18   3597 0.13554100   1.008000   ; qtot 120.386300
 3598         os    119    bbb     O1   3598 -0.62587700  16.000000   ; qtot 119.760423
 3599         hn    119    bbb    H19   3599 0.23982500   1.008000   ; qtot 120.000248
; residue  120 bbb rtp bbb q 1.0
 3600         n4    120    bbb     N1   3600 0.03726400  14.010000   ; qtot 120.037512
 3601         c3    120    bbb     C1   3601 -0.07020100  12.010000   ; qtot 119.967311
 3602         hx    120    bbb     H1   3602 0.12219000   1.008000   ; qtot 120.089501
 3603         hx    120    bbb     H2   3603 0.12219000   1.008000   ; qtot 120.211691
 3604         c3    120    bbb     C2   3604 -0.07020100  12.010000   ; qtot 120.141490
 3605         hx    120    bbb     H3   3605 0.12219000   1.008000   ; qtot 120.263680
 3606         hx    120    bbb     H4   3606 0.12219000   1.008000   ; qtot 120.385870
 3607         c3    120    bbb     C3   3607 -0.39007700  12.010000   ; qtot 119.995793
 3608         hx    120    bbb     H5   3608 0.14940300   1.008000   ; qtot 120.145196
 3609         hx    120    bbb     H6   3609 0.14940300   1.008000   ; qtot 120.294599
 3610         c3    120    bbb     C4   3610 0.18057300  12.010000   ; qtot 120.475172
 3611         hc    120    bbb     H7   3611 0.01788900   1.008000   ; qtot 120.493061
 3612         hc    120    bbb     H8   3612 0.01788900   1.008000   ; qtot 120.510950
 3613         c3    120    bbb     C5   3613 -0.11337700  12.010000   ; qtot 120.397573
 3614         hc    120    bbb     H9   3614 0.09515400   1.008000   ; qtot 120.492727
 3615         hc    120    bbb    H10   3615 0.09515400   1.008000   ; qtot 120.587881
 3616         c3    120    bbb     C6   3616 -0.11337700  12.010000   ; qtot 120.474504
 3617         hc    120    bbb    H11   3617 0.09515400   1.008000   ; qtot 120.569658
 3618         hc    120    bbb    H12   3618 0.09515400   1.008000   ; qtot 120.664812
 3619         c3    120    bbb     C7   3619 0.21842400  12.010000   ; qtot 120.883236
 3620         h1    120    bbb    H13   3620 0.04500300   1.008000   ; qtot 120.928239
 3621         h1    120    bbb    H14   3621 0.04500300   1.008000   ; qtot 120.973242
 3622         c3    120    bbb     C8   3622 -0.06455200  12.010000   ; qtot 120.908690
 3623         h1    120    bbb    H15   3623 0.13554100   1.008000   ; qtot 121.044231
 3624         h1    120    bbb    H16   3624 0.13554100   1.008000   ; qtot 121.179772
 3625         c3    120    bbb     C9   3625 -0.06455200  12.010000   ; qtot 121.115220
 3626         h1    120    bbb    H17   3626 0.13554100   1.008000   ; qtot 121.250761
 3627         h1    120    bbb    H18   3627 0.13554100   1.008000   ; qtot 121.386302
 3628         os    120    bbb     O1   3628 -0.62587700  16.000000   ; qtot 120.760425
 3629         hn    120    bbb    H19   3629 0.23982500   1.008000   ; qtot 121.000250
; residue  121 bbb rtp bbb q 1.0
 3630         n4    121    bbb     N1   3630 0.03726400  14.010000   ; qtot 121.037514
 3631         c3    121    bbb     C1   3631 -0.07020100  12.010000   ; qtot 120.967313
 3632         hx    121    bbb     H1   3632 0.12219000   1.008000   ; qtot 121.089503
 3633         hx    121    bbb     H2   3633 0.12219000   1.008000   ; qtot 121.211693
 3634         c3    121    bbb     C2   3634 -0.07020100  12.010000   ; qtot 121.141492
 3635         hx    121    bbb     H3   3635 0.12219000   1.008000   ; qtot 121.263682
 3636         hx    121    bbb     H4   3636 0.12219000   1.008000   ; qtot 121.385872
 3637         c3    121    bbb     C3   3637 -0.39007700  12.010000   ; qtot 120.995795
 3638         hx    121    bbb     H5   3638 0.14940300   1.008000   ; qtot 121.145198
 3639         hx    121    bbb     H6   3639 0.14940300   1.008000   ; qtot 121.294601
 3640         c3    121    bbb     C4   3640 0.18057300  12.010000   ; qtot 121.475174
 3641         hc    121    bbb     H7   3641 0.01788900   1.008000   ; qtot 121.493063
 3642         hc    121    bbb     H8   3642 0.01788900   1.008000   ; qtot 121.510952
 3643         c3    121    bbb     C5   3643 -0.11337700  12.010000   ; qtot 121.397575
 3644         hc    121    bbb     H9   3644 0.09515400   1.008000   ; qtot 121.492729
 3645         hc    121    bbb    H10   3645 0.09515400   1.008000   ; qtot 121.587883
 3646         c3    121    bbb     C6   3646 -0.11337700  12.010000   ; qtot 121.474506
 3647         hc    121    bbb    H11   3647 0.09515400   1.008000   ; qtot 121.569660
 3648         hc    121    bbb    H12   3648 0.09515400   1.008000   ; qtot 121.664814
 3649         c3    121    bbb     C7   3649 0.21842400  12.010000   ; qtot 121.883238
 3650         h1    121    bbb    H13   3650 0.04500300   1.008000   ; qtot 121.928241
 3651         h1    121    bbb    H14   3651 0.04500300   1.008000   ; qtot 121.973244
 3652         c3    121    bbb     C8   3652 -0.06455200  12.010000   ; qtot 121.908692
 3653         h1    121    bbb    H15   3653 0.13554100   1.008000   ; qtot 122.044233
 3654         h1    121    bbb    H16   3654 0.13554100   1.008000   ; qtot 122.179774
 3655         c3    121    bbb     C9   3655 -0.06455200  12.010000   ; qtot 122.115222
 3656         h1    121    bbb    H17   3656 0.13554100   1.008000   ; qtot 122.250763
 3657         h1    121    bbb    H18   3657 0.13554100   1.008000   ; qtot 122.386304
 3658         os    121    bbb     O1   3658 -0.62587700  16.000000   ; qtot 121.760427
 3659         hn    121    bbb    H19   3659 0.23982500   1.008000   ; qtot 122.000252
; residue  122 bbb rtp bbb q 1.0
 3660         n4    122    bbb     N1   3660 0.03726400  14.010000   ; qtot 122.037516
 3661         c3    122    bbb     C1   3661 -0.07020100  12.010000   ; qtot 121.967315
 3662         hx    122    bbb     H1   3662 0.12219000   1.008000   ; qtot 122.089505
 3663         hx    122    bbb     H2   3663 0.12219000   1.008000   ; qtot 122.211695
 3664         c3    122    bbb     C2   3664 -0.07020100  12.010000   ; qtot 122.141494
 3665         hx    122    bbb     H3   3665 0.12219000   1.008000   ; qtot 122.263684
 3666         hx    122    bbb     H4   3666 0.12219000   1.008000   ; qtot 122.385874
 3667         c3    122    bbb     C3   3667 -0.39007700  12.010000   ; qtot 121.995797
 3668         hx    122    bbb     H5   3668 0.14940300   1.008000   ; qtot 122.145200
 3669         hx    122    bbb     H6   3669 0.14940300   1.008000   ; qtot 122.294603
 3670         c3    122    bbb     C4   3670 0.18057300  12.010000   ; qtot 122.475176
 3671         hc    122    bbb     H7   3671 0.01788900   1.008000   ; qtot 122.493065
 3672         hc    122    bbb     H8   3672 0.01788900   1.008000   ; qtot 122.510954
 3673         c3    122    bbb     C5   3673 -0.11337700  12.010000   ; qtot 122.397577
 3674         hc    122    bbb     H9   3674 0.09515400   1.008000   ; qtot 122.492731
 3675         hc    122    bbb    H10   3675 0.09515400   1.008000   ; qtot 122.587885
 3676         c3    122    bbb     C6   3676 -0.11337700  12.010000   ; qtot 122.474508
 3677         hc    122    bbb    H11   3677 0.09515400   1.008000   ; qtot 122.569662
 3678         hc    122    bbb    H12   3678 0.09515400   1.008000   ; qtot 122.664816
 3679         c3    122    bbb     C7   3679 0.21842400  12.010000   ; qtot 122.883240
 3680         h1    122    bbb    H13   3680 0.04500300   1.008000   ; qtot 122.928243
 3681         h1    122    bbb    H14   3681 0.04500300   1.008000   ; qtot 122.973246
 3682         c3    122    bbb     C8   3682 -0.06455200  12.010000   ; qtot 122.908694
 3683         h1    122    bbb    H15   3683 0.13554100   1.008000   ; qtot 123.044235
 3684         h1    122    bbb    H16   3684 0.13554100   1.008000   ; qtot 123.179776
 3685         c3    122    bbb     C9   3685 -0.06455200  12.010000   ; qtot 123.115224
 3686         h1    122    bbb    H17   3686 0.13554100   1.008000   ; qtot 123.250765
 3687         h1    122    bbb    H18   3687 0.13554100   1.008000   ; qtot 123.386306
 3688         os    122    bbb     O1   3688 -0.62587700  16.000000   ; qtot 122.760429
 3689         hn    122    bbb    H19   3689 0.23982500   1.008000   ; qtot 123.000254
; residue  123 bbb rtp bbb q 1.0
 3690         n4    123    bbb     N1   3690 0.03726400  14.010000   ; qtot 123.037518
 3691         c3    123    bbb     C1   3691 -0.07020100  12.010000   ; qtot 122.967317
 3692         hx    123    bbb     H1   3692 0.12219000   1.008000   ; qtot 123.089507
 3693         hx    123    bbb     H2   3693 0.12219000   1.008000   ; qtot 123.211697
 3694         c3    123    bbb     C2   3694 -0.07020100  12.010000   ; qtot 123.141496
 3695         hx    123    bbb     H3   3695 0.12219000   1.008000   ; qtot 123.263686
 3696         hx    123    bbb     H4   3696 0.12219000   1.008000   ; qtot 123.385876
 3697         c3    123    bbb     C3   3697 -0.39007700  12.010000   ; qtot 122.995799
 3698         hx    123    bbb     H5   3698 0.14940300   1.008000   ; qtot 123.145202
 3699         hx    123    bbb     H6   3699 0.14940300   1.008000   ; qtot 123.294605
 3700         c3    123    bbb     C4   3700 0.18057300  12.010000   ; qtot 123.475178
 3701         hc    123    bbb     H7   3701 0.01788900   1.008000   ; qtot 123.493067
 3702         hc    123    bbb     H8   3702 0.01788900   1.008000   ; qtot 123.510956
 3703         c3    123    bbb     C5   3703 -0.11337700  12.010000   ; qtot 123.397579
 3704         hc    123    bbb     H9   3704 0.09515400   1.008000   ; qtot 123.492733
 3705         hc    123    bbb    H10   3705 0.09515400   1.008000   ; qtot 123.587887
 3706         c3    123    bbb     C6   3706 -0.11337700  12.010000   ; qtot 123.474510
 3707         hc    123    bbb    H11   3707 0.09515400   1.008000   ; qtot 123.569664
 3708         hc    123    bbb    H12   3708 0.09515400   1.008000   ; qtot 123.664818
 3709         c3    123    bbb     C7   3709 0.21842400  12.010000   ; qtot 123.883242
 3710         h1    123    bbb    H13   3710 0.04500300   1.008000   ; qtot 123.928245
 3711         h1    123    bbb    H14   3711 0.04500300   1.008000   ; qtot 123.973248
 3712         c3    123    bbb     C8   3712 -0.06455200  12.010000   ; qtot 123.908696
 3713         h1    123    bbb    H15   3713 0.13554100   1.008000   ; qtot 124.044237
 3714         h1    123    bbb    H16   3714 0.13554100   1.008000   ; qtot 124.179778
 3715         c3    123    bbb     C9   3715 -0.06455200  12.010000   ; qtot 124.115226
 3716         h1    123    bbb    H17   3716 0.13554100   1.008000   ; qtot 124.250767
 3717         h1    123    bbb    H18   3717 0.13554100   1.008000   ; qtot 124.386308
 3718         os    123    bbb     O1   3718 -0.62587700  16.000000   ; qtot 123.760431
 3719         hn    123    bbb    H19   3719 0.23982500   1.008000   ; qtot 124.000256
; residue  124 bbb rtp bbb q 1.0
 3720         n4    124    bbb     N1   3720 0.03726400  14.010000   ; qtot 124.037520
 3721         c3    124    bbb     C1   3721 -0.07020100  12.010000   ; qtot 123.967319
 3722         hx    124    bbb     H1   3722 0.12219000   1.008000   ; qtot 124.089509
 3723         hx    124    bbb     H2   3723 0.12219000   1.008000   ; qtot 124.211699
 3724         c3    124    bbb     C2   3724 -0.07020100  12.010000   ; qtot 124.141498
 3725         hx    124    bbb     H3   3725 0.12219000   1.008000   ; qtot 124.263688
 3726         hx    124    bbb     H4   3726 0.12219000   1.008000   ; qtot 124.385878
 3727         c3    124    bbb     C3   3727 -0.39007700  12.010000   ; qtot 123.995801
 3728         hx    124    bbb     H5   3728 0.14940300   1.008000   ; qtot 124.145204
 3729         hx    124    bbb     H6   3729 0.14940300   1.008000   ; qtot 124.294607
 3730         c3    124    bbb     C4   3730 0.18057300  12.010000   ; qtot 124.475180
 3731         hc    124    bbb     H7   3731 0.01788900   1.008000   ; qtot 124.493069
 3732         hc    124    bbb     H8   3732 0.01788900   1.008000   ; qtot 124.510958
 3733         c3    124    bbb     C5   3733 -0.11337700  12.010000   ; qtot 124.397581
 3734         hc    124    bbb     H9   3734 0.09515400   1.008000   ; qtot 124.492735
 3735         hc    124    bbb    H10   3735 0.09515400   1.008000   ; qtot 124.587889
 3736         c3    124    bbb     C6   3736 -0.11337700  12.010000   ; qtot 124.474512
 3737         hc    124    bbb    H11   3737 0.09515400   1.008000   ; qtot 124.569666
 3738         hc    124    bbb    H12   3738 0.09515400   1.008000   ; qtot 124.664820
 3739         c3    124    bbb     C7   3739 0.21842400  12.010000   ; qtot 124.883244
 3740         h1    124    bbb    H13   3740 0.04500300   1.008000   ; qtot 124.928247
 3741         h1    124    bbb    H14   3741 0.04500300   1.008000   ; qtot 124.973250
 3742         c3    124    bbb     C8   3742 -0.06455200  12.010000   ; qtot 124.908698
 3743         h1    124    bbb    H15   3743 0.13554100   1.008000   ; qtot 125.044239
 3744         h1    124    bbb    H16   3744 0.13554100   1.008000   ; qtot 125.179780
 3745         c3    124    bbb     C9   3745 -0.06455200  12.010000   ; qtot 125.115228
 3746         h1    124    bbb    H17   3746 0.13554100   1.008000   ; qtot 125.250769
 3747         h1    124    bbb    H18   3747 0.13554100   1.008000   ; qtot 125.386310
 3748         os    124    bbb     O1   3748 -0.62587700  16.000000   ; qtot 124.760433
 3749         hn    124    bbb    H19   3749 0.23982500   1.008000   ; qtot 125.000258
; residue  125 bbb rtp bbb q 1.0
 3750         n4    125    bbb     N1   3750 0.03726400  14.010000   ; qtot 125.037522
 3751         c3    125    bbb     C1   3751 -0.07020100  12.010000   ; qtot 124.967321
 3752         hx    125    bbb     H1   3752 0.12219000   1.008000   ; qtot 125.089511
 3753         hx    125    bbb     H2   3753 0.12219000   1.008000   ; qtot 125.211701
 3754         c3    125    bbb     C2   3754 -0.07020100  12.010000   ; qtot 125.141500
 3755         hx    125    bbb     H3   3755 0.12219000   1.008000   ; qtot 125.263690
 3756         hx    125    bbb     H4   3756 0.12219000   1.008000   ; qtot 125.385880
 3757         c3    125    bbb     C3   3757 -0.39007700  12.010000   ; qtot 124.995803
 3758         hx    125    bbb     H5   3758 0.14940300   1.008000   ; qtot 125.145206
 3759         hx    125    bbb     H6   3759 0.14940300   1.008000   ; qtot 125.294609
 3760         c3    125    bbb     C4   3760 0.18057300  12.010000   ; qtot 125.475182
 3761         hc    125    bbb     H7   3761 0.01788900   1.008000   ; qtot 125.493071
 3762         hc    125    bbb     H8   3762 0.01788900   1.008000   ; qtot 125.510960
 3763         c3    125    bbb     C5   3763 -0.11337700  12.010000   ; qtot 125.397583
 3764         hc    125    bbb     H9   3764 0.09515400   1.008000   ; qtot 125.492737
 3765         hc    125    bbb    H10   3765 0.09515400   1.008000   ; qtot 125.587891
 3766         c3    125    bbb     C6   3766 -0.11337700  12.010000   ; qtot 125.474514
 3767         hc    125    bbb    H11   3767 0.09515400   1.008000   ; qtot 125.569668
 3768         hc    125    bbb    H12   3768 0.09515400   1.008000   ; qtot 125.664822
 3769         c3    125    bbb     C7   3769 0.21842400  12.010000   ; qtot 125.883246
 3770         h1    125    bbb    H13   3770 0.04500300   1.008000   ; qtot 125.928249
 3771         h1    125    bbb    H14   3771 0.04500300   1.008000   ; qtot 125.973252
 3772         c3    125    bbb     C8   3772 -0.06455200  12.010000   ; qtot 125.908700
 3773         h1    125    bbb    H15   3773 0.13554100   1.008000   ; qtot 126.044241
 3774         h1    125    bbb    H16   3774 0.13554100   1.008000   ; qtot 126.179782
 3775         c3    125    bbb     C9   3775 -0.06455200  12.010000   ; qtot 126.115230
 3776         h1    125    bbb    H17   3776 0.13554100   1.008000   ; qtot 126.250771
 3777         h1    125    bbb    H18   3777 0.13554100   1.008000   ; qtot 126.386312
 3778         os    125    bbb     O1   3778 -0.62587700  16.000000   ; qtot 125.760435
 3779         hn    125    bbb    H19   3779 0.23982500   1.008000   ; qtot 126.000260
; residue  126 bbb rtp bbb q 1.0
 3780         n4    126    bbb     N1   3780 0.03726400  14.010000   ; qtot 126.037524
 3781         c3    126    bbb     C1   3781 -0.07020100  12.010000   ; qtot 125.967323
 3782         hx    126    bbb     H1   3782 0.12219000   1.008000   ; qtot 126.089513
 3783         hx    126    bbb     H2   3783 0.12219000   1.008000   ; qtot 126.211703
 3784         c3    126    bbb     C2   3784 -0.07020100  12.010000   ; qtot 126.141502
 3785         hx    126    bbb     H3   3785 0.12219000   1.008000   ; qtot 126.263692
 3786         hx    126    bbb     H4   3786 0.12219000   1.008000   ; qtot 126.385882
 3787         c3    126    bbb     C3   3787 -0.39007700  12.010000   ; qtot 125.995805
 3788         hx    126    bbb     H5   3788 0.14940300   1.008000   ; qtot 126.145208
 3789         hx    126    bbb     H6   3789 0.14940300   1.008000   ; qtot 126.294611
 3790         c3    126    bbb     C4   3790 0.18057300  12.010000   ; qtot 126.475184
 3791         hc    126    bbb     H7   3791 0.01788900   1.008000   ; qtot 126.493073
 3792         hc    126    bbb     H8   3792 0.01788900   1.008000   ; qtot 126.510962
 3793         c3    126    bbb     C5   3793 -0.11337700  12.010000   ; qtot 126.397585
 3794         hc    126    bbb     H9   3794 0.09515400   1.008000   ; qtot 126.492739
 3795         hc    126    bbb    H10   3795 0.09515400   1.008000   ; qtot 126.587893
 3796         c3    126    bbb     C6   3796 -0.11337700  12.010000   ; qtot 126.474516
 3797         hc    126    bbb    H11   3797 0.09515400   1.008000   ; qtot 126.569670
 3798         hc    126    bbb    H12   3798 0.09515400   1.008000   ; qtot 126.664824
 3799         c3    126    bbb     C7   3799 0.21842400  12.010000   ; qtot 126.883248
 3800         h1    126    bbb    H13   3800 0.04500300   1.008000   ; qtot 126.928251
 3801         h1    126    bbb    H14   3801 0.04500300   1.008000   ; qtot 126.973254
 3802         c3    126    bbb     C8   3802 -0.06455200  12.010000   ; qtot 126.908702
 3803         h1    126    bbb    H15   3803 0.13554100   1.008000   ; qtot 127.044243
 3804         h1    126    bbb    H16   3804 0.13554100   1.008000   ; qtot 127.179784
 3805         c3    126    bbb     C9   3805 -0.06455200  12.010000   ; qtot 127.115232
 3806         h1    126    bbb    H17   3806 0.13554100   1.008000   ; qtot 127.250773
 3807         h1    126    bbb    H18   3807 0.13554100   1.008000   ; qtot 127.386314
 3808         os    126    bbb     O1   3808 -0.62587700  16.000000   ; qtot 126.760437
 3809         hn    126    bbb    H19   3809 0.23982500   1.008000   ; qtot 127.000262
; residue  127 bbb rtp bbb q 1.0
 3810         n4    127    bbb     N1   3810 0.03726400  14.010000   ; qtot 127.037526
 3811         c3    127    bbb     C1   3811 -0.07020100  12.010000   ; qtot 126.967325
 3812         hx    127    bbb     H1   3812 0.12219000   1.008000   ; qtot 127.089515
 3813         hx    127    bbb     H2   3813 0.12219000   1.008000   ; qtot 127.211705
 3814         c3    127    bbb     C2   3814 -0.07020100  12.010000   ; qtot 127.141504
 3815         hx    127    bbb     H3   3815 0.12219000   1.008000   ; qtot 127.263694
 3816         hx    127    bbb     H4   3816 0.12219000   1.008000   ; qtot 127.385884
 3817         c3    127    bbb     C3   3817 -0.39007700  12.010000   ; qtot 126.995807
 3818         hx    127    bbb     H5   3818 0.14940300   1.008000   ; qtot 127.145210
 3819         hx    127    bbb     H6   3819 0.14940300   1.008000   ; qtot 127.294613
 3820         c3    127    bbb     C4   3820 0.18057300  12.010000   ; qtot 127.475186
 3821         hc    127    bbb     H7   3821 0.01788900   1.008000   ; qtot 127.493075
 3822         hc    127    bbb     H8   3822 0.01788900   1.008000   ; qtot 127.510964
 3823         c3    127    bbb     C5   3823 -0.11337700  12.010000   ; qtot 127.397587
 3824         hc    127    bbb     H9   3824 0.09515400   1.008000   ; qtot 127.492741
 3825         hc    127    bbb    H10   3825 0.09515400   1.008000   ; qtot 127.587895
 3826         c3    127    bbb     C6   3826 -0.11337700  12.010000   ; qtot 127.474518
 3827         hc    127    bbb    H11   3827 0.09515400   1.008000   ; qtot 127.569672
 3828         hc    127    bbb    H12   3828 0.09515400   1.008000   ; qtot 127.664826
 3829         c3    127    bbb     C7   3829 0.21842400  12.010000   ; qtot 127.883250
 3830         h1    127    bbb    H13   3830 0.04500300   1.008000   ; qtot 127.928253
 3831         h1    127    bbb    H14   3831 0.04500300   1.008000   ; qtot 127.973256
 3832         c3    127    bbb     C8   3832 -0.06455200  12.010000   ; qtot 127.908704
 3833         h1    127    bbb    H15   3833 0.13554100   1.008000   ; qtot 128.044245
 3834         h1    127    bbb    H16   3834 0.13554100   1.008000   ; qtot 128.179786
 3835         c3    127    bbb     C9   3835 -0.06455200  12.010000   ; qtot 128.115234
 3836         h1    127    bbb    H17   3836 0.13554100   1.008000   ; qtot 128.250775
 3837         h1    127    bbb    H18   3837 0.13554100   1.008000   ; qtot 128.386316
 3838         os    127    bbb     O1   3838 -0.62587700  16.000000   ; qtot 127.760439
 3839         hn    127    bbb    H19   3839 0.23982500   1.008000   ; qtot 128.000264
; residue  128 bbb rtp bbb q 1.0
 3840         n4    128    bbb     N1   3840 0.03726400  14.010000   ; qtot 128.037528
 3841         c3    128    bbb     C1   3841 -0.07020100  12.010000   ; qtot 127.967327
 3842         hx    128    bbb     H1   3842 0.12219000   1.008000   ; qtot 128.089517
 3843         hx    128    bbb     H2   3843 0.12219000   1.008000   ; qtot 128.211707
 3844         c3    128    bbb     C2   3844 -0.07020100  12.010000   ; qtot 128.141506
 3845         hx    128    bbb     H3   3845 0.12219000   1.008000   ; qtot 128.263696
 3846         hx    128    bbb     H4   3846 0.12219000   1.008000   ; qtot 128.385886
 3847         c3    128    bbb     C3   3847 -0.39007700  12.010000   ; qtot 127.995809
 3848         hx    128    bbb     H5   3848 0.14940300   1.008000   ; qtot 128.145212
 3849         hx    128    bbb     H6   3849 0.14940300   1.008000   ; qtot 128.294615
 3850         c3    128    bbb     C4   3850 0.18057300  12.010000   ; qtot 128.475188
 3851         hc    128    bbb     H7   3851 0.01788900   1.008000   ; qtot 128.493077
 3852         hc    128    bbb     H8   3852 0.01788900   1.008000   ; qtot 128.510966
 3853         c3    128    bbb     C5   3853 -0.11337700  12.010000   ; qtot 128.397589
 3854         hc    128    bbb     H9   3854 0.09515400   1.008000   ; qtot 128.492743
 3855         hc    128    bbb    H10   3855 0.09515400   1.008000   ; qtot 128.587897
 3856         c3    128    bbb     C6   3856 -0.11337700  12.010000   ; qtot 128.474520
 3857         hc    128    bbb    H11   3857 0.09515400   1.008000   ; qtot 128.569674
 3858         hc    128    bbb    H12   3858 0.09515400   1.008000   ; qtot 128.664828
 3859         c3    128    bbb     C7   3859 0.21842400  12.010000   ; qtot 128.883252
 3860         h1    128    bbb    H13   3860 0.04500300   1.008000   ; qtot 128.928255
 3861         h1    128    bbb    H14   3861 0.04500300   1.008000   ; qtot 128.973258
 3862         c3    128    bbb     C8   3862 -0.06455200  12.010000   ; qtot 128.908706
 3863         h1    128    bbb    H15   3863 0.13554100   1.008000   ; qtot 129.044247
 3864         h1    128    bbb    H16   3864 0.13554100   1.008000   ; qtot 129.179788
 3865         c3    128    bbb     C9   3865 -0.06455200  12.010000   ; qtot 129.115236
 3866         h1    128    bbb    H17   3866 0.13554100   1.008000   ; qtot 129.250777
 3867         h1    128    bbb    H18   3867 0.13554100   1.008000   ; qtot 129.386318
 3868         os    128    bbb     O1   3868 -0.62587700  16.000000   ; qtot 128.760441
 3869         hn    128    bbb    H19   3869 0.23982500   1.008000   ; qtot 129.000266
; residue  129 bbb rtp bbb q 1.0
 3870         n4    129    bbb     N1   3870 0.03726400  14.010000   ; qtot 129.037530
 3871         c3    129    bbb     C1   3871 -0.07020100  12.010000   ; qtot 128.967329
 3872         hx    129    bbb     H1   3872 0.12219000   1.008000   ; qtot 129.089519
 3873         hx    129    bbb     H2   3873 0.12219000   1.008000   ; qtot 129.211709
 3874         c3    129    bbb     C2   3874 -0.07020100  12.010000   ; qtot 129.141508
 3875         hx    129    bbb     H3   3875 0.12219000   1.008000   ; qtot 129.263698
 3876         hx    129    bbb     H4   3876 0.12219000   1.008000   ; qtot 129.385888
 3877         c3    129    bbb     C3   3877 -0.39007700  12.010000   ; qtot 128.995811
 3878         hx    129    bbb     H5   3878 0.14940300   1.008000   ; qtot 129.145214
 3879         hx    129    bbb     H6   3879 0.14940300   1.008000   ; qtot 129.294617
 3880         c3    129    bbb     C4   3880 0.18057300  12.010000   ; qtot 129.475190
 3881         hc    129    bbb     H7   3881 0.01788900   1.008000   ; qtot 129.493079
 3882         hc    129    bbb     H8   3882 0.01788900   1.008000   ; qtot 129.510968
 3883         c3    129    bbb     C5   3883 -0.11337700  12.010000   ; qtot 129.397591
 3884         hc    129    bbb     H9   3884 0.09515400   1.008000   ; qtot 129.492745
 3885         hc    129    bbb    H10   3885 0.09515400   1.008000   ; qtot 129.587899
 3886         c3    129    bbb     C6   3886 -0.11337700  12.010000   ; qtot 129.474522
 3887         hc    129    bbb    H11   3887 0.09515400   1.008000   ; qtot 129.569676
 3888         hc    129    bbb    H12   3888 0.09515400   1.008000   ; qtot 129.664830
 3889         c3    129    bbb     C7   3889 0.21842400  12.010000   ; qtot 129.883254
 3890         h1    129    bbb    H13   3890 0.04500300   1.008000   ; qtot 129.928257
 3891         h1    129    bbb    H14   3891 0.04500300   1.008000   ; qtot 129.973260
 3892         c3    129    bbb     C8   3892 -0.06455200  12.010000   ; qtot 129.908708
 3893         h1    129    bbb    H15   3893 0.13554100   1.008000   ; qtot 130.044249
 3894         h1    129    bbb    H16   3894 0.13554100   1.008000   ; qtot 130.179790
 3895         c3    129    bbb     C9   3895 -0.06455200  12.010000   ; qtot 130.115238
 3896         h1    129    bbb    H17   3896 0.13554100   1.008000   ; qtot 130.250779
 3897         h1    129    bbb    H18   3897 0.13554100   1.008000   ; qtot 130.386320
 3898         os    129    bbb     O1   3898 -0.62587700  16.000000   ; qtot 129.760443
 3899         hn    129    bbb    H19   3899 0.23982500   1.008000   ; qtot 130.000268
; residue  130 bbb rtp bbb q 1.0
 3900         n4    130    bbb     N1   3900 0.03726400  14.010000   ; qtot 130.037532
 3901         c3    130    bbb     C1   3901 -0.07020100  12.010000   ; qtot 129.967331
 3902         hx    130    bbb     H1   3902 0.12219000   1.008000   ; qtot 130.089521
 3903         hx    130    bbb     H2   3903 0.12219000   1.008000   ; qtot 130.211711
 3904         c3    130    bbb     C2   3904 -0.07020100  12.010000   ; qtot 130.141510
 3905         hx    130    bbb     H3   3905 0.12219000   1.008000   ; qtot 130.263700
 3906         hx    130    bbb     H4   3906 0.12219000   1.008000   ; qtot 130.385890
 3907         c3    130    bbb     C3   3907 -0.39007700  12.010000   ; qtot 129.995813
 3908         hx    130    bbb     H5   3908 0.14940300   1.008000   ; qtot 130.145216
 3909         hx    130    bbb     H6   3909 0.14940300   1.008000   ; qtot 130.294619
 3910         c3    130    bbb     C4   3910 0.18057300  12.010000   ; qtot 130.475192
 3911         hc    130    bbb     H7   3911 0.01788900   1.008000   ; qtot 130.493081
 3912         hc    130    bbb     H8   3912 0.01788900   1.008000   ; qtot 130.510970
 3913         c3    130    bbb     C5   3913 -0.11337700  12.010000   ; qtot 130.397593
 3914         hc    130    bbb     H9   3914 0.09515400   1.008000   ; qtot 130.492747
 3915         hc    130    bbb    H10   3915 0.09515400   1.008000   ; qtot 130.587901
 3916         c3    130    bbb     C6   3916 -0.11337700  12.010000   ; qtot 130.474524
 3917         hc    130    bbb    H11   3917 0.09515400   1.008000   ; qtot 130.569678
 3918         hc    130    bbb    H12   3918 0.09515400   1.008000   ; qtot 130.664832
 3919         c3    130    bbb     C7   3919 0.21842400  12.010000   ; qtot 130.883256
 3920         h1    130    bbb    H13   3920 0.04500300   1.008000   ; qtot 130.928259
 3921         h1    130    bbb    H14   3921 0.04500300   1.008000   ; qtot 130.973262
 3922         c3    130    bbb     C8   3922 -0.06455200  12.010000   ; qtot 130.908710
 3923         h1    130    bbb    H15   3923 0.13554100   1.008000   ; qtot 131.044251
 3924         h1    130    bbb    H16   3924 0.13554100   1.008000   ; qtot 131.179792
 3925         c3    130    bbb     C9   3925 -0.06455200  12.010000   ; qtot 131.115240
 3926         h1    130    bbb    H17   3926 0.13554100   1.008000   ; qtot 131.250781
 3927         h1    130    bbb    H18   3927 0.13554100   1.008000   ; qtot 131.386322
 3928         os    130    bbb     O1   3928 -0.62587700  16.000000   ; qtot 130.760445
 3929         hn    130    bbb    H19   3929 0.23982500   1.008000   ; qtot 131.000270
; residue  131 bbb rtp bbb q 1.0
 3930         n4    131    bbb     N1   3930 0.03726400  14.010000   ; qtot 131.037534
 3931         c3    131    bbb     C1   3931 -0.07020100  12.010000   ; qtot 130.967333
 3932         hx    131    bbb     H1   3932 0.12219000   1.008000   ; qtot 131.089523
 3933         hx    131    bbb     H2   3933 0.12219000   1.008000   ; qtot 131.211713
 3934         c3    131    bbb     C2   3934 -0.07020100  12.010000   ; qtot 131.141512
 3935         hx    131    bbb     H3   3935 0.12219000   1.008000   ; qtot 131.263702
 3936         hx    131    bbb     H4   3936 0.12219000   1.008000   ; qtot 131.385892
 3937         c3    131    bbb     C3   3937 -0.39007700  12.010000   ; qtot 130.995815
 3938         hx    131    bbb     H5   3938 0.14940300   1.008000   ; qtot 131.145218
 3939         hx    131    bbb     H6   3939 0.14940300   1.008000   ; qtot 131.294621
 3940         c3    131    bbb     C4   3940 0.18057300  12.010000   ; qtot 131.475194
 3941         hc    131    bbb     H7   3941 0.01788900   1.008000   ; qtot 131.493083
 3942         hc    131    bbb     H8   3942 0.01788900   1.008000   ; qtot 131.510972
 3943         c3    131    bbb     C5   3943 -0.11337700  12.010000   ; qtot 131.397595
 3944         hc    131    bbb     H9   3944 0.09515400   1.008000   ; qtot 131.492749
 3945         hc    131    bbb    H10   3945 0.09515400   1.008000   ; qtot 131.587903
 3946         c3    131    bbb     C6   3946 -0.11337700  12.010000   ; qtot 131.474526
 3947         hc    131    bbb    H11   3947 0.09515400   1.008000   ; qtot 131.569680
 3948         hc    131    bbb    H12   3948 0.09515400   1.008000   ; qtot 131.664834
 3949         c3    131    bbb     C7   3949 0.21842400  12.010000   ; qtot 131.883258
 3950         h1    131    bbb    H13   3950 0.04500300   1.008000   ; qtot 131.928261
 3951         h1    131    bbb    H14   3951 0.04500300   1.008000   ; qtot 131.973264
 3952         c3    131    bbb     C8   3952 -0.06455200  12.010000   ; qtot 131.908712
 3953         h1    131    bbb    H15   3953 0.13554100   1.008000   ; qtot 132.044253
 3954         h1    131    bbb    H16   3954 0.13554100   1.008000   ; qtot 132.179794
 3955         c3    131    bbb     C9   3955 -0.06455200  12.010000   ; qtot 132.115242
 3956         h1    131    bbb    H17   3956 0.13554100   1.008000   ; qtot 132.250783
 3957         h1    131    bbb    H18   3957 0.13554100   1.008000   ; qtot 132.386324
 3958         os    131    bbb     O1   3958 -0.62587700  16.000000   ; qtot 131.760447
 3959         hn    131    bbb    H19   3959 0.23982500   1.008000   ; qtot 132.000272
; residue  132 bbb rtp bbb q 1.0
 3960         n4    132    bbb     N1   3960 0.03726400  14.010000   ; qtot 132.037536
 3961         c3    132    bbb     C1   3961 -0.07020100  12.010000   ; qtot 131.967335
 3962         hx    132    bbb     H1   3962 0.12219000   1.008000   ; qtot 132.089525
 3963         hx    132    bbb     H2   3963 0.12219000   1.008000   ; qtot 132.211715
 3964         c3    132    bbb     C2   3964 -0.07020100  12.010000   ; qtot 132.141514
 3965         hx    132    bbb     H3   3965 0.12219000   1.008000   ; qtot 132.263704
 3966         hx    132    bbb     H4   3966 0.12219000   1.008000   ; qtot 132.385894
 3967         c3    132    bbb     C3   3967 -0.39007700  12.010000   ; qtot 131.995817
 3968         hx    132    bbb     H5   3968 0.14940300   1.008000   ; qtot 132.145220
 3969         hx    132    bbb     H6   3969 0.14940300   1.008000   ; qtot 132.294623
 3970         c3    132    bbb     C4   3970 0.18057300  12.010000   ; qtot 132.475196
 3971         hc    132    bbb     H7   3971 0.01788900   1.008000   ; qtot 132.493085
 3972         hc    132    bbb     H8   3972 0.01788900   1.008000   ; qtot 132.510974
 3973         c3    132    bbb     C5   3973 -0.11337700  12.010000   ; qtot 132.397597
 3974         hc    132    bbb     H9   3974 0.09515400   1.008000   ; qtot 132.492751
 3975         hc    132    bbb    H10   3975 0.09515400   1.008000   ; qtot 132.587905
 3976         c3    132    bbb     C6   3976 -0.11337700  12.010000   ; qtot 132.474528
 3977         hc    132    bbb    H11   3977 0.09515400   1.008000   ; qtot 132.569682
 3978         hc    132    bbb    H12   3978 0.09515400   1.008000   ; qtot 132.664836
 3979         c3    132    bbb     C7   3979 0.21842400  12.010000   ; qtot 132.883260
 3980         h1    132    bbb    H13   3980 0.04500300   1.008000   ; qtot 132.928263
 3981         h1    132    bbb    H14   3981 0.04500300   1.008000   ; qtot 132.973266
 3982         c3    132    bbb     C8   3982 -0.06455200  12.010000   ; qtot 132.908714
 3983         h1    132    bbb    H15   3983 0.13554100   1.008000   ; qtot 133.044255
 3984         h1    132    bbb    H16   3984 0.13554100   1.008000   ; qtot 133.179796
 3985         c3    132    bbb     C9   3985 -0.06455200  12.010000   ; qtot 133.115244
 3986         h1    132    bbb    H17   3986 0.13554100   1.008000   ; qtot 133.250785
 3987         h1    132    bbb    H18   3987 0.13554100   1.008000   ; qtot 133.386326
 3988         os    132    bbb     O1   3988 -0.62587700  16.000000   ; qtot 132.760449
 3989         hn    132    bbb    H19   3989 0.23982500   1.008000   ; qtot 133.000274
; residue  133 bbb rtp bbb q 1.0
 3990         n4    133    bbb     N1   3990 0.03726400  14.010000   ; qtot 133.037538
 3991         c3    133    bbb     C1   3991 -0.07020100  12.010000   ; qtot 132.967337
 3992         hx    133    bbb     H1   3992 0.12219000   1.008000   ; qtot 133.089527
 3993         hx    133    bbb     H2   3993 0.12219000   1.008000   ; qtot 133.211717
 3994         c3    133    bbb     C2   3994 -0.07020100  12.010000   ; qtot 133.141516
 3995         hx    133    bbb     H3   3995 0.12219000   1.008000   ; qtot 133.263706
 3996         hx    133    bbb     H4   3996 0.12219000   1.008000   ; qtot 133.385896
 3997         c3    133    bbb     C3   3997 -0.39007700  12.010000   ; qtot 132.995819
 3998         hx    133    bbb     H5   3998 0.14940300   1.008000   ; qtot 133.145222
 3999         hx    133    bbb     H6   3999 0.14940300   1.008000   ; qtot 133.294625
 4000         c3    133    bbb     C4   4000 0.18057300  12.010000   ; qtot 133.475198
 4001         hc    133    bbb     H7   4001 0.01788900   1.008000   ; qtot 133.493087
 4002         hc    133    bbb     H8   4002 0.01788900   1.008000   ; qtot 133.510976
 4003         c3    133    bbb     C5   4003 -0.11337700  12.010000   ; qtot 133.397599
 4004         hc    133    bbb     H9   4004 0.09515400   1.008000   ; qtot 133.492753
 4005         hc    133    bbb    H10   4005 0.09515400   1.008000   ; qtot 133.587907
 4006         c3    133    bbb     C6   4006 -0.11337700  12.010000   ; qtot 133.474530
 4007         hc    133    bbb    H11   4007 0.09515400   1.008000   ; qtot 133.569684
 4008         hc    133    bbb    H12   4008 0.09515400   1.008000   ; qtot 133.664838
 4009         c3    133    bbb     C7   4009 0.21842400  12.010000   ; qtot 133.883262
 4010         h1    133    bbb    H13   4010 0.04500300   1.008000   ; qtot 133.928265
 4011         h1    133    bbb    H14   4011 0.04500300   1.008000   ; qtot 133.973268
 4012         c3    133    bbb     C8   4012 -0.06455200  12.010000   ; qtot 133.908716
 4013         h1    133    bbb    H15   4013 0.13554100   1.008000   ; qtot 134.044257
 4014         h1    133    bbb    H16   4014 0.13554100   1.008000   ; qtot 134.179798
 4015         c3    133    bbb     C9   4015 -0.06455200  12.010000   ; qtot 134.115246
 4016         h1    133    bbb    H17   4016 0.13554100   1.008000   ; qtot 134.250787
 4017         h1    133    bbb    H18   4017 0.13554100   1.008000   ; qtot 134.386328
 4018         os    133    bbb     O1   4018 -0.62587700  16.000000   ; qtot 133.760451
 4019         hn    133    bbb    H19   4019 0.23982500   1.008000   ; qtot 134.000276
; residue  134 bbb rtp bbb q 1.0
 4020         n4    134    bbb     N1   4020 0.03726400  14.010000   ; qtot 134.037540
 4021         c3    134    bbb     C1   4021 -0.07020100  12.010000   ; qtot 133.967339
 4022         hx    134    bbb     H1   4022 0.12219000   1.008000   ; qtot 134.089529
 4023         hx    134    bbb     H2   4023 0.12219000   1.008000   ; qtot 134.211719
 4024         c3    134    bbb     C2   4024 -0.07020100  12.010000   ; qtot 134.141518
 4025         hx    134    bbb     H3   4025 0.12219000   1.008000   ; qtot 134.263708
 4026         hx    134    bbb     H4   4026 0.12219000   1.008000   ; qtot 134.385898
 4027         c3    134    bbb     C3   4027 -0.39007700  12.010000   ; qtot 133.995821
 4028         hx    134    bbb     H5   4028 0.14940300   1.008000   ; qtot 134.145224
 4029         hx    134    bbb     H6   4029 0.14940300   1.008000   ; qtot 134.294627
 4030         c3    134    bbb     C4   4030 0.18057300  12.010000   ; qtot 134.475200
 4031         hc    134    bbb     H7   4031 0.01788900   1.008000   ; qtot 134.493089
 4032         hc    134    bbb     H8   4032 0.01788900   1.008000   ; qtot 134.510978
 4033         c3    134    bbb     C5   4033 -0.11337700  12.010000   ; qtot 134.397601
 4034         hc    134    bbb     H9   4034 0.09515400   1.008000   ; qtot 134.492755
 4035         hc    134    bbb    H10   4035 0.09515400   1.008000   ; qtot 134.587909
 4036         c3    134    bbb     C6   4036 -0.11337700  12.010000   ; qtot 134.474532
 4037         hc    134    bbb    H11   4037 0.09515400   1.008000   ; qtot 134.569686
 4038         hc    134    bbb    H12   4038 0.09515400   1.008000   ; qtot 134.664840
 4039         c3    134    bbb     C7   4039 0.21842400  12.010000   ; qtot 134.883264
 4040         h1    134    bbb    H13   4040 0.04500300   1.008000   ; qtot 134.928267
 4041         h1    134    bbb    H14   4041 0.04500300   1.008000   ; qtot 134.973270
 4042         c3    134    bbb     C8   4042 -0.06455200  12.010000   ; qtot 134.908718
 4043         h1    134    bbb    H15   4043 0.13554100   1.008000   ; qtot 135.044259
 4044         h1    134    bbb    H16   4044 0.13554100   1.008000   ; qtot 135.179800
 4045         c3    134    bbb     C9   4045 -0.06455200  12.010000   ; qtot 135.115248
 4046         h1    134    bbb    H17   4046 0.13554100   1.008000   ; qtot 135.250789
 4047         h1    134    bbb    H18   4047 0.13554100   1.008000   ; qtot 135.386330
 4048         os    134    bbb     O1   4048 -0.62587700  16.000000   ; qtot 134.760453
 4049         hn    134    bbb    H19   4049 0.23982500   1.008000   ; qtot 135.000278
; residue  135 bbb rtp bbb q 1.0
 4050         n4    135    bbb     N1   4050 0.03726400  14.010000   ; qtot 135.037542
 4051         c3    135    bbb     C1   4051 -0.07020100  12.010000   ; qtot 134.967341
 4052         hx    135    bbb     H1   4052 0.12219000   1.008000   ; qtot 135.089531
 4053         hx    135    bbb     H2   4053 0.12219000   1.008000   ; qtot 135.211721
 4054         c3    135    bbb     C2   4054 -0.07020100  12.010000   ; qtot 135.141520
 4055         hx    135    bbb     H3   4055 0.12219000   1.008000   ; qtot 135.263710
 4056         hx    135    bbb     H4   4056 0.12219000   1.008000   ; qtot 135.385900
 4057         c3    135    bbb     C3   4057 -0.39007700  12.010000   ; qtot 134.995823
 4058         hx    135    bbb     H5   4058 0.14940300   1.008000   ; qtot 135.145226
 4059         hx    135    bbb     H6   4059 0.14940300   1.008000   ; qtot 135.294629
 4060         c3    135    bbb     C4   4060 0.18057300  12.010000   ; qtot 135.475202
 4061         hc    135    bbb     H7   4061 0.01788900   1.008000   ; qtot 135.493091
 4062         hc    135    bbb     H8   4062 0.01788900   1.008000   ; qtot 135.510980
 4063         c3    135    bbb     C5   4063 -0.11337700  12.010000   ; qtot 135.397603
 4064         hc    135    bbb     H9   4064 0.09515400   1.008000   ; qtot 135.492757
 4065         hc    135    bbb    H10   4065 0.09515400   1.008000   ; qtot 135.587911
 4066         c3    135    bbb     C6   4066 -0.11337700  12.010000   ; qtot 135.474534
 4067         hc    135    bbb    H11   4067 0.09515400   1.008000   ; qtot 135.569688
 4068         hc    135    bbb    H12   4068 0.09515400   1.008000   ; qtot 135.664842
 4069         c3    135    bbb     C7   4069 0.21842400  12.010000   ; qtot 135.883266
 4070         h1    135    bbb    H13   4070 0.04500300   1.008000   ; qtot 135.928269
 4071         h1    135    bbb    H14   4071 0.04500300   1.008000   ; qtot 135.973272
 4072         c3    135    bbb     C8   4072 -0.06455200  12.010000   ; qtot 135.908720
 4073         h1    135    bbb    H15   4073 0.13554100   1.008000   ; qtot 136.044261
 4074         h1    135    bbb    H16   4074 0.13554100   1.008000   ; qtot 136.179802
 4075         c3    135    bbb     C9   4075 -0.06455200  12.010000   ; qtot 136.115250
 4076         h1    135    bbb    H17   4076 0.13554100   1.008000   ; qtot 136.250791
 4077         h1    135    bbb    H18   4077 0.13554100   1.008000   ; qtot 136.386332
 4078         os    135    bbb     O1   4078 -0.62587700  16.000000   ; qtot 135.760455
 4079         hn    135    bbb    H19   4079 0.23982500   1.008000   ; qtot 136.000280
; residue  136 bbb rtp bbb q 1.0
 4080         n4    136    bbb     N1   4080 0.03726400  14.010000   ; qtot 136.037544
 4081         c3    136    bbb     C1   4081 -0.07020100  12.010000   ; qtot 135.967343
 4082         hx    136    bbb     H1   4082 0.12219000   1.008000   ; qtot 136.089533
 4083         hx    136    bbb     H2   4083 0.12219000   1.008000   ; qtot 136.211723
 4084         c3    136    bbb     C2   4084 -0.07020100  12.010000   ; qtot 136.141522
 4085         hx    136    bbb     H3   4085 0.12219000   1.008000   ; qtot 136.263712
 4086         hx    136    bbb     H4   4086 0.12219000   1.008000   ; qtot 136.385902
 4087         c3    136    bbb     C3   4087 -0.39007700  12.010000   ; qtot 135.995825
 4088         hx    136    bbb     H5   4088 0.14940300   1.008000   ; qtot 136.145228
 4089         hx    136    bbb     H6   4089 0.14940300   1.008000   ; qtot 136.294631
 4090         c3    136    bbb     C4   4090 0.18057300  12.010000   ; qtot 136.475204
 4091         hc    136    bbb     H7   4091 0.01788900   1.008000   ; qtot 136.493093
 4092         hc    136    bbb     H8   4092 0.01788900   1.008000   ; qtot 136.510982
 4093         c3    136    bbb     C5   4093 -0.11337700  12.010000   ; qtot 136.397605
 4094         hc    136    bbb     H9   4094 0.09515400   1.008000   ; qtot 136.492759
 4095         hc    136    bbb    H10   4095 0.09515400   1.008000   ; qtot 136.587913
 4096         c3    136    bbb     C6   4096 -0.11337700  12.010000   ; qtot 136.474536
 4097         hc    136    bbb    H11   4097 0.09515400   1.008000   ; qtot 136.569690
 4098         hc    136    bbb    H12   4098 0.09515400   1.008000   ; qtot 136.664844
 4099         c3    136    bbb     C7   4099 0.21842400  12.010000   ; qtot 136.883268
 4100         h1    136    bbb    H13   4100 0.04500300   1.008000   ; qtot 136.928271
 4101         h1    136    bbb    H14   4101 0.04500300   1.008000   ; qtot 136.973274
 4102         c3    136    bbb     C8   4102 -0.06455200  12.010000   ; qtot 136.908722
 4103         h1    136    bbb    H15   4103 0.13554100   1.008000   ; qtot 137.044263
 4104         h1    136    bbb    H16   4104 0.13554100   1.008000   ; qtot 137.179804
 4105         c3    136    bbb     C9   4105 -0.06455200  12.010000   ; qtot 137.115252
 4106         h1    136    bbb    H17   4106 0.13554100   1.008000   ; qtot 137.250793
 4107         h1    136    bbb    H18   4107 0.13554100   1.008000   ; qtot 137.386334
 4108         os    136    bbb     O1   4108 -0.62587700  16.000000   ; qtot 136.760457
 4109         hn    136    bbb    H19   4109 0.23982500   1.008000   ; qtot 137.000282
; residue  137 bbb rtp bbb q 1.0
 4110         n4    137    bbb     N1   4110 0.03726400  14.010000   ; qtot 137.037546
 4111         c3    137    bbb     C1   4111 -0.07020100  12.010000   ; qtot 136.967345
 4112         hx    137    bbb     H1   4112 0.12219000   1.008000   ; qtot 137.089535
 4113         hx    137    bbb     H2   4113 0.12219000   1.008000   ; qtot 137.211725
 4114         c3    137    bbb     C2   4114 -0.07020100  12.010000   ; qtot 137.141524
 4115         hx    137    bbb     H3   4115 0.12219000   1.008000   ; qtot 137.263714
 4116         hx    137    bbb     H4   4116 0.12219000   1.008000   ; qtot 137.385904
 4117         c3    137    bbb     C3   4117 -0.39007700  12.010000   ; qtot 136.995827
 4118         hx    137    bbb     H5   4118 0.14940300   1.008000   ; qtot 137.145230
 4119         hx    137    bbb     H6   4119 0.14940300   1.008000   ; qtot 137.294633
 4120         c3    137    bbb     C4   4120 0.18057300  12.010000   ; qtot 137.475206
 4121         hc    137    bbb     H7   4121 0.01788900   1.008000   ; qtot 137.493095
 4122         hc    137    bbb     H8   4122 0.01788900   1.008000   ; qtot 137.510984
 4123         c3    137    bbb     C5   4123 -0.11337700  12.010000   ; qtot 137.397607
 4124         hc    137    bbb     H9   4124 0.09515400   1.008000   ; qtot 137.492761
 4125         hc    137    bbb    H10   4125 0.09515400   1.008000   ; qtot 137.587915
 4126         c3    137    bbb     C6   4126 -0.11337700  12.010000   ; qtot 137.474538
 4127         hc    137    bbb    H11   4127 0.09515400   1.008000   ; qtot 137.569692
 4128         hc    137    bbb    H12   4128 0.09515400   1.008000   ; qtot 137.664846
 4129         c3    137    bbb     C7   4129 0.21842400  12.010000   ; qtot 137.883270
 4130         h1    137    bbb    H13   4130 0.04500300   1.008000   ; qtot 137.928273
 4131         h1    137    bbb    H14   4131 0.04500300   1.008000   ; qtot 137.973276
 4132         c3    137    bbb     C8   4132 -0.06455200  12.010000   ; qtot 137.908724
 4133         h1    137    bbb    H15   4133 0.13554100   1.008000   ; qtot 138.044265
 4134         h1    137    bbb    H16   4134 0.13554100   1.008000   ; qtot 138.179806
 4135         c3    137    bbb     C9   4135 -0.06455200  12.010000   ; qtot 138.115254
 4136         h1    137    bbb    H17   4136 0.13554100   1.008000   ; qtot 138.250795
 4137         h1    137    bbb    H18   4137 0.13554100   1.008000   ; qtot 138.386336
 4138         os    137    bbb     O1   4138 -0.62587700  16.000000   ; qtot 137.760459
 4139         hn    137    bbb    H19   4139 0.23982500   1.008000   ; qtot 138.000284
; residue  138 bbb rtp bbb q 1.0
 4140         n4    138    bbb     N1   4140 0.03726400  14.010000   ; qtot 138.037548
 4141         c3    138    bbb     C1   4141 -0.07020100  12.010000   ; qtot 137.967347
 4142         hx    138    bbb     H1   4142 0.12219000   1.008000   ; qtot 138.089537
 4143         hx    138    bbb     H2   4143 0.12219000   1.008000   ; qtot 138.211727
 4144         c3    138    bbb     C2   4144 -0.07020100  12.010000   ; qtot 138.141526
 4145         hx    138    bbb     H3   4145 0.12219000   1.008000   ; qtot 138.263716
 4146         hx    138    bbb     H4   4146 0.12219000   1.008000   ; qtot 138.385906
 4147         c3    138    bbb     C3   4147 -0.39007700  12.010000   ; qtot 137.995829
 4148         hx    138    bbb     H5   4148 0.14940300   1.008000   ; qtot 138.145232
 4149         hx    138    bbb     H6   4149 0.14940300   1.008000   ; qtot 138.294635
 4150         c3    138    bbb     C4   4150 0.18057300  12.010000   ; qtot 138.475208
 4151         hc    138    bbb     H7   4151 0.01788900   1.008000   ; qtot 138.493097
 4152         hc    138    bbb     H8   4152 0.01788900   1.008000   ; qtot 138.510986
 4153         c3    138    bbb     C5   4153 -0.11337700  12.010000   ; qtot 138.397609
 4154         hc    138    bbb     H9   4154 0.09515400   1.008000   ; qtot 138.492763
 4155         hc    138    bbb    H10   4155 0.09515400   1.008000   ; qtot 138.587917
 4156         c3    138    bbb     C6   4156 -0.11337700  12.010000   ; qtot 138.474540
 4157         hc    138    bbb    H11   4157 0.09515400   1.008000   ; qtot 138.569694
 4158         hc    138    bbb    H12   4158 0.09515400   1.008000   ; qtot 138.664848
 4159         c3    138    bbb     C7   4159 0.21842400  12.010000   ; qtot 138.883272
 4160         h1    138    bbb    H13   4160 0.04500300   1.008000   ; qtot 138.928275
 4161         h1    138    bbb    H14   4161 0.04500300   1.008000   ; qtot 138.973278
 4162         c3    138    bbb     C8   4162 -0.06455200  12.010000   ; qtot 138.908726
 4163         h1    138    bbb    H15   4163 0.13554100   1.008000   ; qtot 139.044267
 4164         h1    138    bbb    H16   4164 0.13554100   1.008000   ; qtot 139.179808
 4165         c3    138    bbb     C9   4165 -0.06455200  12.010000   ; qtot 139.115256
 4166         h1    138    bbb    H17   4166 0.13554100   1.008000   ; qtot 139.250797
 4167         h1    138    bbb    H18   4167 0.13554100   1.008000   ; qtot 139.386338
 4168         os    138    bbb     O1   4168 -0.62587700  16.000000   ; qtot 138.760461
 4169         hn    138    bbb    H19   4169 0.23982500   1.008000   ; qtot 139.000286
; residue  139 bbb rtp bbb q 1.0
 4170         n4    139    bbb     N1   4170 0.03726400  14.010000   ; qtot 139.037550
 4171         c3    139    bbb     C1   4171 -0.07020100  12.010000   ; qtot 138.967349
 4172         hx    139    bbb     H1   4172 0.12219000   1.008000   ; qtot 139.089539
 4173         hx    139    bbb     H2   4173 0.12219000   1.008000   ; qtot 139.211729
 4174         c3    139    bbb     C2   4174 -0.07020100  12.010000   ; qtot 139.141528
 4175         hx    139    bbb     H3   4175 0.12219000   1.008000   ; qtot 139.263718
 4176         hx    139    bbb     H4   4176 0.12219000   1.008000   ; qtot 139.385908
 4177         c3    139    bbb     C3   4177 -0.39007700  12.010000   ; qtot 138.995831
 4178         hx    139    bbb     H5   4178 0.14940300   1.008000   ; qtot 139.145234
 4179         hx    139    bbb     H6   4179 0.14940300   1.008000   ; qtot 139.294637
 4180         c3    139    bbb     C4   4180 0.18057300  12.010000   ; qtot 139.475210
 4181         hc    139    bbb     H7   4181 0.01788900   1.008000   ; qtot 139.493099
 4182         hc    139    bbb     H8   4182 0.01788900   1.008000   ; qtot 139.510988
 4183         c3    139    bbb     C5   4183 -0.11337700  12.010000   ; qtot 139.397611
 4184         hc    139    bbb     H9   4184 0.09515400   1.008000   ; qtot 139.492765
 4185         hc    139    bbb    H10   4185 0.09515400   1.008000   ; qtot 139.587919
 4186         c3    139    bbb     C6   4186 -0.11337700  12.010000   ; qtot 139.474542
 4187         hc    139    bbb    H11   4187 0.09515400   1.008000   ; qtot 139.569696
 4188         hc    139    bbb    H12   4188 0.09515400   1.008000   ; qtot 139.664850
 4189         c3    139    bbb     C7   4189 0.21842400  12.010000   ; qtot 139.883274
 4190         h1    139    bbb    H13   4190 0.04500300   1.008000   ; qtot 139.928277
 4191         h1    139    bbb    H14   4191 0.04500300   1.008000   ; qtot 139.973280
 4192         c3    139    bbb     C8   4192 -0.06455200  12.010000   ; qtot 139.908728
 4193         h1    139    bbb    H15   4193 0.13554100   1.008000   ; qtot 140.044269
 4194         h1    139    bbb    H16   4194 0.13554100   1.008000   ; qtot 140.179810
 4195         c3    139    bbb     C9   4195 -0.06455200  12.010000   ; qtot 140.115258
 4196         h1    139    bbb    H17   4196 0.13554100   1.008000   ; qtot 140.250799
 4197         h1    139    bbb    H18   4197 0.13554100   1.008000   ; qtot 140.386340
 4198         os    139    bbb     O1   4198 -0.62587700  16.000000   ; qtot 139.760463
 4199         hn    139    bbb    H19   4199 0.23982500   1.008000   ; qtot 140.000288
; residue  140 bbb rtp bbb q 1.0
 4200         n4    140    bbb     N1   4200 0.03726400  14.010000   ; qtot 140.037552
 4201         c3    140    bbb     C1   4201 -0.07020100  12.010000   ; qtot 139.967351
 4202         hx    140    bbb     H1   4202 0.12219000   1.008000   ; qtot 140.089541
 4203         hx    140    bbb     H2   4203 0.12219000   1.008000   ; qtot 140.211731
 4204         c3    140    bbb     C2   4204 -0.07020100  12.010000   ; qtot 140.141530
 4205         hx    140    bbb     H3   4205 0.12219000   1.008000   ; qtot 140.263720
 4206         hx    140    bbb     H4   4206 0.12219000   1.008000   ; qtot 140.385910
 4207         c3    140    bbb     C3   4207 -0.39007700  12.010000   ; qtot 139.995833
 4208         hx    140    bbb     H5   4208 0.14940300   1.008000   ; qtot 140.145236
 4209         hx    140    bbb     H6   4209 0.14940300   1.008000   ; qtot 140.294639
 4210         c3    140    bbb     C4   4210 0.18057300  12.010000   ; qtot 140.475212
 4211         hc    140    bbb     H7   4211 0.01788900   1.008000   ; qtot 140.493101
 4212         hc    140    bbb     H8   4212 0.01788900   1.008000   ; qtot 140.510990
 4213         c3    140    bbb     C5   4213 -0.11337700  12.010000   ; qtot 140.397613
 4214         hc    140    bbb     H9   4214 0.09515400   1.008000   ; qtot 140.492767
 4215         hc    140    bbb    H10   4215 0.09515400   1.008000   ; qtot 140.587921
 4216         c3    140    bbb     C6   4216 -0.11337700  12.010000   ; qtot 140.474544
 4217         hc    140    bbb    H11   4217 0.09515400   1.008000   ; qtot 140.569698
 4218         hc    140    bbb    H12   4218 0.09515400   1.008000   ; qtot 140.664852
 4219         c3    140    bbb     C7   4219 0.21842400  12.010000   ; qtot 140.883276
 4220         h1    140    bbb    H13   4220 0.04500300   1.008000   ; qtot 140.928279
 4221         h1    140    bbb    H14   4221 0.04500300   1.008000   ; qtot 140.973282
 4222         c3    140    bbb     C8   4222 -0.06455200  12.010000   ; qtot 140.908730
 4223         h1    140    bbb    H15   4223 0.13554100   1.008000   ; qtot 141.044271
 4224         h1    140    bbb    H16   4224 0.13554100   1.008000   ; qtot 141.179812
 4225         c3    140    bbb     C9   4225 -0.06455200  12.010000   ; qtot 141.115260
 4226         h1    140    bbb    H17   4226 0.13554100   1.008000   ; qtot 141.250801
 4227         h1    140    bbb    H18   4227 0.13554100   1.008000   ; qtot 141.386342
 4228         os    140    bbb     O1   4228 -0.62587700  16.000000   ; qtot 140.760465
 4229         hn    140    bbb    H19   4229 0.23982500   1.008000   ; qtot 141.000290
; residue  141 bbb rtp bbb q 1.0
 4230         n4    141    bbb     N1   4230 0.03726400  14.010000   ; qtot 141.037554
 4231         c3    141    bbb     C1   4231 -0.07020100  12.010000   ; qtot 140.967353
 4232         hx    141    bbb     H1   4232 0.12219000   1.008000   ; qtot 141.089543
 4233         hx    141    bbb     H2   4233 0.12219000   1.008000   ; qtot 141.211733
 4234         c3    141    bbb     C2   4234 -0.07020100  12.010000   ; qtot 141.141532
 4235         hx    141    bbb     H3   4235 0.12219000   1.008000   ; qtot 141.263722
 4236         hx    141    bbb     H4   4236 0.12219000   1.008000   ; qtot 141.385912
 4237         c3    141    bbb     C3   4237 -0.39007700  12.010000   ; qtot 140.995835
 4238         hx    141    bbb     H5   4238 0.14940300   1.008000   ; qtot 141.145238
 4239         hx    141    bbb     H6   4239 0.14940300   1.008000   ; qtot 141.294641
 4240         c3    141    bbb     C4   4240 0.18057300  12.010000   ; qtot 141.475214
 4241         hc    141    bbb     H7   4241 0.01788900   1.008000   ; qtot 141.493103
 4242         hc    141    bbb     H8   4242 0.01788900   1.008000   ; qtot 141.510992
 4243         c3    141    bbb     C5   4243 -0.11337700  12.010000   ; qtot 141.397615
 4244         hc    141    bbb     H9   4244 0.09515400   1.008000   ; qtot 141.492769
 4245         hc    141    bbb    H10   4245 0.09515400   1.008000   ; qtot 141.587923
 4246         c3    141    bbb     C6   4246 -0.11337700  12.010000   ; qtot 141.474546
 4247         hc    141    bbb    H11   4247 0.09515400   1.008000   ; qtot 141.569700
 4248         hc    141    bbb    H12   4248 0.09515400   1.008000   ; qtot 141.664854
 4249         c3    141    bbb     C7   4249 0.21842400  12.010000   ; qtot 141.883278
 4250         h1    141    bbb    H13   4250 0.04500300   1.008000   ; qtot 141.928281
 4251         h1    141    bbb    H14   4251 0.04500300   1.008000   ; qtot 141.973284
 4252         c3    141    bbb     C8   4252 -0.06455200  12.010000   ; qtot 141.908732
 4253         h1    141    bbb    H15   4253 0.13554100   1.008000   ; qtot 142.044273
 4254         h1    141    bbb    H16   4254 0.13554100   1.008000   ; qtot 142.179814
 4255         c3    141    bbb     C9   4255 -0.06455200  12.010000   ; qtot 142.115262
 4256         h1    141    bbb    H17   4256 0.13554100   1.008000   ; qtot 142.250803
 4257         h1    141    bbb    H18   4257 0.13554100   1.008000   ; qtot 142.386344
 4258         os    141    bbb     O1   4258 -0.62587700  16.000000   ; qtot 141.760467
 4259         hn    141    bbb    H19   4259 0.23982500   1.008000   ; qtot 142.000292
; residue  142 bbb rtp bbb q 1.0
 4260         n4    142    bbb     N1   4260 0.03726400  14.010000   ; qtot 142.037556
 4261         c3    142    bbb     C1   4261 -0.07020100  12.010000   ; qtot 141.967355
 4262         hx    142    bbb     H1   4262 0.12219000   1.008000   ; qtot 142.089545
 4263         hx    142    bbb     H2   4263 0.12219000   1.008000   ; qtot 142.211735
 4264         c3    142    bbb     C2   4264 -0.07020100  12.010000   ; qtot 142.141534
 4265         hx    142    bbb     H3   4265 0.12219000   1.008000   ; qtot 142.263724
 4266         hx    142    bbb     H4   4266 0.12219000   1.008000   ; qtot 142.385914
 4267         c3    142    bbb     C3   4267 -0.39007700  12.010000   ; qtot 141.995837
 4268         hx    142    bbb     H5   4268 0.14940300   1.008000   ; qtot 142.145240
 4269         hx    142    bbb     H6   4269 0.14940300   1.008000   ; qtot 142.294643
 4270         c3    142    bbb     C4   4270 0.18057300  12.010000   ; qtot 142.475216
 4271         hc    142    bbb     H7   4271 0.01788900   1.008000   ; qtot 142.493105
 4272         hc    142    bbb     H8   4272 0.01788900   1.008000   ; qtot 142.510994
 4273         c3    142    bbb     C5   4273 -0.11337700  12.010000   ; qtot 142.397617
 4274         hc    142    bbb     H9   4274 0.09515400   1.008000   ; qtot 142.492771
 4275         hc    142    bbb    H10   4275 0.09515400   1.008000   ; qtot 142.587925
 4276         c3    142    bbb     C6   4276 -0.11337700  12.010000   ; qtot 142.474548
 4277         hc    142    bbb    H11   4277 0.09515400   1.008000   ; qtot 142.569702
 4278         hc    142    bbb    H12   4278 0.09515400   1.008000   ; qtot 142.664856
 4279         c3    142    bbb     C7   4279 0.21842400  12.010000   ; qtot 142.883280
 4280         h1    142    bbb    H13   4280 0.04500300   1.008000   ; qtot 142.928283
 4281         h1    142    bbb    H14   4281 0.04500300   1.008000   ; qtot 142.973286
 4282         c3    142    bbb     C8   4282 -0.06455200  12.010000   ; qtot 142.908734
 4283         h1    142    bbb    H15   4283 0.13554100   1.008000   ; qtot 143.044275
 4284         h1    142    bbb    H16   4284 0.13554100   1.008000   ; qtot 143.179816
 4285         c3    142    bbb     C9   4285 -0.06455200  12.010000   ; qtot 143.115264
 4286         h1    142    bbb    H17   4286 0.13554100   1.008000   ; qtot 143.250805
 4287         h1    142    bbb    H18   4287 0.13554100   1.008000   ; qtot 143.386346
 4288         os    142    bbb     O1   4288 -0.62587700  16.000000   ; qtot 142.760469
 4289         hn    142    bbb    H19   4289 0.23982500   1.008000   ; qtot 143.000294
; residue  143 bbb rtp bbb q 1.0
 4290         n4    143    bbb     N1   4290 0.03726400  14.010000   ; qtot 143.037558
 4291         c3    143    bbb     C1   4291 -0.07020100  12.010000   ; qtot 142.967357
 4292         hx    143    bbb     H1   4292 0.12219000   1.008000   ; qtot 143.089547
 4293         hx    143    bbb     H2   4293 0.12219000   1.008000   ; qtot 143.211737
 4294         c3    143    bbb     C2   4294 -0.07020100  12.010000   ; qtot 143.141536
 4295         hx    143    bbb     H3   4295 0.12219000   1.008000   ; qtot 143.263726
 4296         hx    143    bbb     H4   4296 0.12219000   1.008000   ; qtot 143.385916
 4297         c3    143    bbb     C3   4297 -0.39007700  12.010000   ; qtot 142.995839
 4298         hx    143    bbb     H5   4298 0.14940300   1.008000   ; qtot 143.145242
 4299         hx    143    bbb     H6   4299 0.14940300   1.008000   ; qtot 143.294645
 4300         c3    143    bbb     C4   4300 0.18057300  12.010000   ; qtot 143.475218
 4301         hc    143    bbb     H7   4301 0.01788900   1.008000   ; qtot 143.493107
 4302         hc    143    bbb     H8   4302 0.01788900   1.008000   ; qtot 143.510996
 4303         c3    143    bbb     C5   4303 -0.11337700  12.010000   ; qtot 143.397619
 4304         hc    143    bbb     H9   4304 0.09515400   1.008000   ; qtot 143.492773
 4305         hc    143    bbb    H10   4305 0.09515400   1.008000   ; qtot 143.587927
 4306         c3    143    bbb     C6   4306 -0.11337700  12.010000   ; qtot 143.474550
 4307         hc    143    bbb    H11   4307 0.09515400   1.008000   ; qtot 143.569704
 4308         hc    143    bbb    H12   4308 0.09515400   1.008000   ; qtot 143.664858
 4309         c3    143    bbb     C7   4309 0.21842400  12.010000   ; qtot 143.883282
 4310         h1    143    bbb    H13   4310 0.04500300   1.008000   ; qtot 143.928285
 4311         h1    143    bbb    H14   4311 0.04500300   1.008000   ; qtot 143.973288
 4312         c3    143    bbb     C8   4312 -0.06455200  12.010000   ; qtot 143.908736
 4313         h1    143    bbb    H15   4313 0.13554100   1.008000   ; qtot 144.044277
 4314         h1    143    bbb    H16   4314 0.13554100   1.008000   ; qtot 144.179818
 4315         c3    143    bbb     C9   4315 -0.06455200  12.010000   ; qtot 144.115266
 4316         h1    143    bbb    H17   4316 0.13554100   1.008000   ; qtot 144.250807
 4317         h1    143    bbb    H18   4317 0.13554100   1.008000   ; qtot 144.386348
 4318         os    143    bbb     O1   4318 -0.62587700  16.000000   ; qtot 143.760471
 4319         hn    143    bbb    H19   4319 0.23982500   1.008000   ; qtot 144.000296
; residue  144 bbb rtp bbb q 1.0
 4320         n4    144    bbb     N1   4320 0.03726400  14.010000   ; qtot 144.037560
 4321         c3    144    bbb     C1   4321 -0.07020100  12.010000   ; qtot 143.967359
 4322         hx    144    bbb     H1   4322 0.12219000   1.008000   ; qtot 144.089549
 4323         hx    144    bbb     H2   4323 0.12219000   1.008000   ; qtot 144.211739
 4324         c3    144    bbb     C2   4324 -0.07020100  12.010000   ; qtot 144.141538
 4325         hx    144    bbb     H3   4325 0.12219000   1.008000   ; qtot 144.263728
 4326         hx    144    bbb     H4   4326 0.12219000   1.008000   ; qtot 144.385918
 4327         c3    144    bbb     C3   4327 -0.39007700  12.010000   ; qtot 143.995841
 4328         hx    144    bbb     H5   4328 0.14940300   1.008000   ; qtot 144.145244
 4329         hx    144    bbb     H6   4329 0.14940300   1.008000   ; qtot 144.294647
 4330         c3    144    bbb     C4   4330 0.18057300  12.010000   ; qtot 144.475220
 4331         hc    144    bbb     H7   4331 0.01788900   1.008000   ; qtot 144.493109
 4332         hc    144    bbb     H8   4332 0.01788900   1.008000   ; qtot 144.510998
 4333         c3    144    bbb     C5   4333 -0.11337700  12.010000   ; qtot 144.397621
 4334         hc    144    bbb     H9   4334 0.09515400   1.008000   ; qtot 144.492775
 4335         hc    144    bbb    H10   4335 0.09515400   1.008000   ; qtot 144.587929
 4336         c3    144    bbb     C6   4336 -0.11337700  12.010000   ; qtot 144.474552
 4337         hc    144    bbb    H11   4337 0.09515400   1.008000   ; qtot 144.569706
 4338         hc    144    bbb    H12   4338 0.09515400   1.008000   ; qtot 144.664860
 4339         c3    144    bbb     C7   4339 0.21842400  12.010000   ; qtot 144.883284
 4340         h1    144    bbb    H13   4340 0.04500300   1.008000   ; qtot 144.928287
 4341         h1    144    bbb    H14   4341 0.04500300   1.008000   ; qtot 144.973290
 4342         c3    144    bbb     C8   4342 -0.06455200  12.010000   ; qtot 144.908738
 4343         h1    144    bbb    H15   4343 0.13554100   1.008000   ; qtot 145.044279
 4344         h1    144    bbb    H16   4344 0.13554100   1.008000   ; qtot 145.179820
 4345         c3    144    bbb     C9   4345 -0.06455200  12.010000   ; qtot 145.115268
 4346         h1    144    bbb    H17   4346 0.13554100   1.008000   ; qtot 145.250809
 4347         h1    144    bbb    H18   4347 0.13554100   1.008000   ; qtot 145.386350
 4348         os    144    bbb     O1   4348 -0.62587700  16.000000   ; qtot 144.760473
 4349         hn    144    bbb    H19   4349 0.23982500   1.008000   ; qtot 145.000298
; residue  145 bbb rtp bbb q 1.0
 4350         n4    145    bbb     N1   4350 0.03726400  14.010000   ; qtot 145.037562
 4351         c3    145    bbb     C1   4351 -0.07020100  12.010000   ; qtot 144.967361
 4352         hx    145    bbb     H1   4352 0.12219000   1.008000   ; qtot 145.089551
 4353         hx    145    bbb     H2   4353 0.12219000   1.008000   ; qtot 145.211741
 4354         c3    145    bbb     C2   4354 -0.07020100  12.010000   ; qtot 145.141540
 4355         hx    145    bbb     H3   4355 0.12219000   1.008000   ; qtot 145.263730
 4356         hx    145    bbb     H4   4356 0.12219000   1.008000   ; qtot 145.385920
 4357         c3    145    bbb     C3   4357 -0.39007700  12.010000   ; qtot 144.995843
 4358         hx    145    bbb     H5   4358 0.14940300   1.008000   ; qtot 145.145246
 4359         hx    145    bbb     H6   4359 0.14940300   1.008000   ; qtot 145.294649
 4360         c3    145    bbb     C4   4360 0.18057300  12.010000   ; qtot 145.475222
 4361         hc    145    bbb     H7   4361 0.01788900   1.008000   ; qtot 145.493111
 4362         hc    145    bbb     H8   4362 0.01788900   1.008000   ; qtot 145.511000
 4363         c3    145    bbb     C5   4363 -0.11337700  12.010000   ; qtot 145.397623
 4364         hc    145    bbb     H9   4364 0.09515400   1.008000   ; qtot 145.492777
 4365         hc    145    bbb    H10   4365 0.09515400   1.008000   ; qtot 145.587931
 4366         c3    145    bbb     C6   4366 -0.11337700  12.010000   ; qtot 145.474554
 4367         hc    145    bbb    H11   4367 0.09515400   1.008000   ; qtot 145.569708
 4368         hc    145    bbb    H12   4368 0.09515400   1.008000   ; qtot 145.664862
 4369         c3    145    bbb     C7   4369 0.21842400  12.010000   ; qtot 145.883286
 4370         h1    145    bbb    H13   4370 0.04500300   1.008000   ; qtot 145.928289
 4371         h1    145    bbb    H14   4371 0.04500300   1.008000   ; qtot 145.973292
 4372         c3    145    bbb     C8   4372 -0.06455200  12.010000   ; qtot 145.908740
 4373         h1    145    bbb    H15   4373 0.13554100   1.008000   ; qtot 146.044281
 4374         h1    145    bbb    H16   4374 0.13554100   1.008000   ; qtot 146.179822
 4375         c3    145    bbb     C9   4375 -0.06455200  12.010000   ; qtot 146.115270
 4376         h1    145    bbb    H17   4376 0.13554100   1.008000   ; qtot 146.250811
 4377         h1    145    bbb    H18   4377 0.13554100   1.008000   ; qtot 146.386352
 4378         os    145    bbb     O1   4378 -0.62587700  16.000000   ; qtot 145.760475
 4379         hn    145    bbb    H19   4379 0.23982500   1.008000   ; qtot 146.000300
; residue  146 bbb rtp bbb q 1.0
 4380         n4    146    bbb     N1   4380 0.03726400  14.010000   ; qtot 146.037564
 4381         c3    146    bbb     C1   4381 -0.07020100  12.010000   ; qtot 145.967363
 4382         hx    146    bbb     H1   4382 0.12219000   1.008000   ; qtot 146.089553
 4383         hx    146    bbb     H2   4383 0.12219000   1.008000   ; qtot 146.211743
 4384         c3    146    bbb     C2   4384 -0.07020100  12.010000   ; qtot 146.141542
 4385         hx    146    bbb     H3   4385 0.12219000   1.008000   ; qtot 146.263732
 4386         hx    146    bbb     H4   4386 0.12219000   1.008000   ; qtot 146.385922
 4387         c3    146    bbb     C3   4387 -0.39007700  12.010000   ; qtot 145.995845
 4388         hx    146    bbb     H5   4388 0.14940300   1.008000   ; qtot 146.145248
 4389         hx    146    bbb     H6   4389 0.14940300   1.008000   ; qtot 146.294651
 4390         c3    146    bbb     C4   4390 0.18057300  12.010000   ; qtot 146.475224
 4391         hc    146    bbb     H7   4391 0.01788900   1.008000   ; qtot 146.493113
 4392         hc    146    bbb     H8   4392 0.01788900   1.008000   ; qtot 146.511002
 4393         c3    146    bbb     C5   4393 -0.11337700  12.010000   ; qtot 146.397625
 4394         hc    146    bbb     H9   4394 0.09515400   1.008000   ; qtot 146.492779
 4395         hc    146    bbb    H10   4395 0.09515400   1.008000   ; qtot 146.587933
 4396         c3    146    bbb     C6   4396 -0.11337700  12.010000   ; qtot 146.474556
 4397         hc    146    bbb    H11   4397 0.09515400   1.008000   ; qtot 146.569710
 4398         hc    146    bbb    H12   4398 0.09515400   1.008000   ; qtot 146.664864
 4399         c3    146    bbb     C7   4399 0.21842400  12.010000   ; qtot 146.883288
 4400         h1    146    bbb    H13   4400 0.04500300   1.008000   ; qtot 146.928291
 4401         h1    146    bbb    H14   4401 0.04500300   1.008000   ; qtot 146.973294
 4402         c3    146    bbb     C8   4402 -0.06455200  12.010000   ; qtot 146.908742
 4403         h1    146    bbb    H15   4403 0.13554100   1.008000   ; qtot 147.044283
 4404         h1    146    bbb    H16   4404 0.13554100   1.008000   ; qtot 147.179824
 4405         c3    146    bbb     C9   4405 -0.06455200  12.010000   ; qtot 147.115272
 4406         h1    146    bbb    H17   4406 0.13554100   1.008000   ; qtot 147.250813
 4407         h1    146    bbb    H18   4407 0.13554100   1.008000   ; qtot 147.386354
 4408         os    146    bbb     O1   4408 -0.62587700  16.000000   ; qtot 146.760477
 4409         hn    146    bbb    H19   4409 0.23982500   1.008000   ; qtot 147.000302
; residue  147 bbb rtp bbb q 1.0
 4410         n4    147    bbb     N1   4410 0.03726400  14.010000   ; qtot 147.037566
 4411         c3    147    bbb     C1   4411 -0.07020100  12.010000   ; qtot 146.967365
 4412         hx    147    bbb     H1   4412 0.12219000   1.008000   ; qtot 147.089555
 4413         hx    147    bbb     H2   4413 0.12219000   1.008000   ; qtot 147.211745
 4414         c3    147    bbb     C2   4414 -0.07020100  12.010000   ; qtot 147.141544
 4415         hx    147    bbb     H3   4415 0.12219000   1.008000   ; qtot 147.263734
 4416         hx    147    bbb     H4   4416 0.12219000   1.008000   ; qtot 147.385924
 4417         c3    147    bbb     C3   4417 -0.39007700  12.010000   ; qtot 146.995847
 4418         hx    147    bbb     H5   4418 0.14940300   1.008000   ; qtot 147.145250
 4419         hx    147    bbb     H6   4419 0.14940300   1.008000   ; qtot 147.294653
 4420         c3    147    bbb     C4   4420 0.18057300  12.010000   ; qtot 147.475226
 4421         hc    147    bbb     H7   4421 0.01788900   1.008000   ; qtot 147.493115
 4422         hc    147    bbb     H8   4422 0.01788900   1.008000   ; qtot 147.511004
 4423         c3    147    bbb     C5   4423 -0.11337700  12.010000   ; qtot 147.397627
 4424         hc    147    bbb     H9   4424 0.09515400   1.008000   ; qtot 147.492781
 4425         hc    147    bbb    H10   4425 0.09515400   1.008000   ; qtot 147.587935
 4426         c3    147    bbb     C6   4426 -0.11337700  12.010000   ; qtot 147.474558
 4427         hc    147    bbb    H11   4427 0.09515400   1.008000   ; qtot 147.569712
 4428         hc    147    bbb    H12   4428 0.09515400   1.008000   ; qtot 147.664866
 4429         c3    147    bbb     C7   4429 0.21842400  12.010000   ; qtot 147.883290
 4430         h1    147    bbb    H13   4430 0.04500300   1.008000   ; qtot 147.928293
 4431         h1    147    bbb    H14   4431 0.04500300   1.008000   ; qtot 147.973296
 4432         c3    147    bbb     C8   4432 -0.06455200  12.010000   ; qtot 147.908744
 4433         h1    147    bbb    H15   4433 0.13554100   1.008000   ; qtot 148.044285
 4434         h1    147    bbb    H16   4434 0.13554100   1.008000   ; qtot 148.179826
 4435         c3    147    bbb     C9   4435 -0.06455200  12.010000   ; qtot 148.115274
 4436         h1    147    bbb    H17   4436 0.13554100   1.008000   ; qtot 148.250815
 4437         h1    147    bbb    H18   4437 0.13554100   1.008000   ; qtot 148.386356
 4438         os    147    bbb     O1   4438 -0.62587700  16.000000   ; qtot 147.760479
 4439         hn    147    bbb    H19   4439 0.23982500   1.008000   ; qtot 148.000304
; residue  148 bbb rtp bbb q 1.0
 4440         n4    148    bbb     N1   4440 0.03726400  14.010000   ; qtot 148.037568
 4441         c3    148    bbb     C1   4441 -0.07020100  12.010000   ; qtot 147.967367
 4442         hx    148    bbb     H1   4442 0.12219000   1.008000   ; qtot 148.089557
 4443         hx    148    bbb     H2   4443 0.12219000   1.008000   ; qtot 148.211747
 4444         c3    148    bbb     C2   4444 -0.07020100  12.010000   ; qtot 148.141546
 4445         hx    148    bbb     H3   4445 0.12219000   1.008000   ; qtot 148.263736
 4446         hx    148    bbb     H4   4446 0.12219000   1.008000   ; qtot 148.385926
 4447         c3    148    bbb     C3   4447 -0.39007700  12.010000   ; qtot 147.995849
 4448         hx    148    bbb     H5   4448 0.14940300   1.008000   ; qtot 148.145252
 4449         hx    148    bbb     H6   4449 0.14940300   1.008000   ; qtot 148.294655
 4450         c3    148    bbb     C4   4450 0.18057300  12.010000   ; qtot 148.475228
 4451         hc    148    bbb     H7   4451 0.01788900   1.008000   ; qtot 148.493117
 4452         hc    148    bbb     H8   4452 0.01788900   1.008000   ; qtot 148.511006
 4453         c3    148    bbb     C5   4453 -0.11337700  12.010000   ; qtot 148.397629
 4454         hc    148    bbb     H9   4454 0.09515400   1.008000   ; qtot 148.492783
 4455         hc    148    bbb    H10   4455 0.09515400   1.008000   ; qtot 148.587937
 4456         c3    148    bbb     C6   4456 -0.11337700  12.010000   ; qtot 148.474560
 4457         hc    148    bbb    H11   4457 0.09515400   1.008000   ; qtot 148.569714
 4458         hc    148    bbb    H12   4458 0.09515400   1.008000   ; qtot 148.664868
 4459         c3    148    bbb     C7   4459 0.21842400  12.010000   ; qtot 148.883292
 4460         h1    148    bbb    H13   4460 0.04500300   1.008000   ; qtot 148.928295
 4461         h1    148    bbb    H14   4461 0.04500300   1.008000   ; qtot 148.973298
 4462         c3    148    bbb     C8   4462 -0.06455200  12.010000   ; qtot 148.908746
 4463         h1    148    bbb    H15   4463 0.13554100   1.008000   ; qtot 149.044287
 4464         h1    148    bbb    H16   4464 0.13554100   1.008000   ; qtot 149.179828
 4465         c3    148    bbb     C9   4465 -0.06455200  12.010000   ; qtot 149.115276
 4466         h1    148    bbb    H17   4466 0.13554100   1.008000   ; qtot 149.250817
 4467         h1    148    bbb    H18   4467 0.13554100   1.008000   ; qtot 149.386358
 4468         os    148    bbb     O1   4468 -0.62587700  16.000000   ; qtot 148.760481
 4469         hn    148    bbb    H19   4469 0.23982500   1.008000   ; qtot 149.000306
; residue  149 bbb rtp bbb q 1.0
 4470         n4    149    bbb     N1   4470 0.03726400  14.010000   ; qtot 149.037570
 4471         c3    149    bbb     C1   4471 -0.07020100  12.010000   ; qtot 148.967369
 4472         hx    149    bbb     H1   4472 0.12219000   1.008000   ; qtot 149.089559
 4473         hx    149    bbb     H2   4473 0.12219000   1.008000   ; qtot 149.211749
 4474         c3    149    bbb     C2   4474 -0.07020100  12.010000   ; qtot 149.141548
 4475         hx    149    bbb     H3   4475 0.12219000   1.008000   ; qtot 149.263738
 4476         hx    149    bbb     H4   4476 0.12219000   1.008000   ; qtot 149.385928
 4477         c3    149    bbb     C3   4477 -0.39007700  12.010000   ; qtot 148.995851
 4478         hx    149    bbb     H5   4478 0.14940300   1.008000   ; qtot 149.145254
 4479         hx    149    bbb     H6   4479 0.14940300   1.008000   ; qtot 149.294657
 4480         c3    149    bbb     C4   4480 0.18057300  12.010000   ; qtot 149.475230
 4481         hc    149    bbb     H7   4481 0.01788900   1.008000   ; qtot 149.493119
 4482         hc    149    bbb     H8   4482 0.01788900   1.008000   ; qtot 149.511008
 4483         c3    149    bbb     C5   4483 -0.11337700  12.010000   ; qtot 149.397631
 4484         hc    149    bbb     H9   4484 0.09515400   1.008000   ; qtot 149.492785
 4485         hc    149    bbb    H10   4485 0.09515400   1.008000   ; qtot 149.587939
 4486         c3    149    bbb     C6   4486 -0.11337700  12.010000   ; qtot 149.474562
 4487         hc    149    bbb    H11   4487 0.09515400   1.008000   ; qtot 149.569716
 4488         hc    149    bbb    H12   4488 0.09515400   1.008000   ; qtot 149.664870
 4489         c3    149    bbb     C7   4489 0.21842400  12.010000   ; qtot 149.883294
 4490         h1    149    bbb    H13   4490 0.04500300   1.008000   ; qtot 149.928297
 4491         h1    149    bbb    H14   4491 0.04500300   1.008000   ; qtot 149.973300
 4492         c3    149    bbb     C8   4492 -0.06455200  12.010000   ; qtot 149.908748
 4493         h1    149    bbb    H15   4493 0.13554100   1.008000   ; qtot 150.044289
 4494         h1    149    bbb    H16   4494 0.13554100   1.008000   ; qtot 150.179830
 4495         c3    149    bbb     C9   4495 -0.06455200  12.010000   ; qtot 150.115278
 4496         h1    149    bbb    H17   4496 0.13554100   1.008000   ; qtot 150.250819
 4497         h1    149    bbb    H18   4497 0.13554100   1.008000   ; qtot 150.386360
 4498         os    149    bbb     O1   4498 -0.62587700  16.000000   ; qtot 149.760483
 4499         hn    149    bbb    H19   4499 0.23982500   1.008000   ; qtot 150.000308
; residue  150 bbb rtp bbb q 1.0
 4500         n4    150    bbb     N1   4500 0.03726400  14.010000   ; qtot 150.037572
 4501         c3    150    bbb     C1   4501 -0.07020100  12.010000   ; qtot 149.967371
 4502         hx    150    bbb     H1   4502 0.12219000   1.008000   ; qtot 150.089561
 4503         hx    150    bbb     H2   4503 0.12219000   1.008000   ; qtot 150.211751
 4504         c3    150    bbb     C2   4504 -0.07020100  12.010000   ; qtot 150.141550
 4505         hx    150    bbb     H3   4505 0.12219000   1.008000   ; qtot 150.263740
 4506         hx    150    bbb     H4   4506 0.12219000   1.008000   ; qtot 150.385930
 4507         c3    150    bbb     C3   4507 -0.39007700  12.010000   ; qtot 149.995853
 4508         hx    150    bbb     H5   4508 0.14940300   1.008000   ; qtot 150.145256
 4509         hx    150    bbb     H6   4509 0.14940300   1.008000   ; qtot 150.294659
 4510         c3    150    bbb     C4   4510 0.18057300  12.010000   ; qtot 150.475232
 4511         hc    150    bbb     H7   4511 0.01788900   1.008000   ; qtot 150.493121
 4512         hc    150    bbb     H8   4512 0.01788900   1.008000   ; qtot 150.511010
 4513         c3    150    bbb     C5   4513 -0.11337700  12.010000   ; qtot 150.397633
 4514         hc    150    bbb     H9   4514 0.09515400   1.008000   ; qtot 150.492787
 4515         hc    150    bbb    H10   4515 0.09515400   1.008000   ; qtot 150.587941
 4516         c3    150    bbb     C6   4516 -0.11337700  12.010000   ; qtot 150.474564
 4517         hc    150    bbb    H11   4517 0.09515400   1.008000   ; qtot 150.569718
 4518         hc    150    bbb    H12   4518 0.09515400   1.008000   ; qtot 150.664872
 4519         c3    150    bbb     C7   4519 0.21842400  12.010000   ; qtot 150.883296
 4520         h1    150    bbb    H13   4520 0.04500300   1.008000   ; qtot 150.928299
 4521         h1    150    bbb    H14   4521 0.04500300   1.008000   ; qtot 150.973302
 4522         c3    150    bbb     C8   4522 -0.06455200  12.010000   ; qtot 150.908750
 4523         h1    150    bbb    H15   4523 0.13554100   1.008000   ; qtot 151.044291
 4524         h1    150    bbb    H16   4524 0.13554100   1.008000   ; qtot 151.179832
 4525         c3    150    bbb     C9   4525 -0.06455200  12.010000   ; qtot 151.115280
 4526         h1    150    bbb    H17   4526 0.13554100   1.008000   ; qtot 151.250821
 4527         h1    150    bbb    H18   4527 0.13554100   1.008000   ; qtot 151.386362
 4528         os    150    bbb     O1   4528 -0.62587700  16.000000   ; qtot 150.760485
 4529         hn    150    bbb    H19   4529 0.23982500   1.008000   ; qtot 151.000310
; residue  151 bbb rtp bbb q 1.0
 4530         n4    151    bbb     N1   4530 0.03726400  14.010000   ; qtot 151.037574
 4531         c3    151    bbb     C1   4531 -0.07020100  12.010000   ; qtot 150.967373
 4532         hx    151    bbb     H1   4532 0.12219000   1.008000   ; qtot 151.089563
 4533         hx    151    bbb     H2   4533 0.12219000   1.008000   ; qtot 151.211753
 4534         c3    151    bbb     C2   4534 -0.07020100  12.010000   ; qtot 151.141552
 4535         hx    151    bbb     H3   4535 0.12219000   1.008000   ; qtot 151.263742
 4536         hx    151    bbb     H4   4536 0.12219000   1.008000   ; qtot 151.385932
 4537         c3    151    bbb     C3   4537 -0.39007700  12.010000   ; qtot 150.995855
 4538         hx    151    bbb     H5   4538 0.14940300   1.008000   ; qtot 151.145258
 4539         hx    151    bbb     H6   4539 0.14940300   1.008000   ; qtot 151.294661
 4540         c3    151    bbb     C4   4540 0.18057300  12.010000   ; qtot 151.475234
 4541         hc    151    bbb     H7   4541 0.01788900   1.008000   ; qtot 151.493123
 4542         hc    151    bbb     H8   4542 0.01788900   1.008000   ; qtot 151.511012
 4543         c3    151    bbb     C5   4543 -0.11337700  12.010000   ; qtot 151.397635
 4544         hc    151    bbb     H9   4544 0.09515400   1.008000   ; qtot 151.492789
 4545         hc    151    bbb    H10   4545 0.09515400   1.008000   ; qtot 151.587943
 4546         c3    151    bbb     C6   4546 -0.11337700  12.010000   ; qtot 151.474566
 4547         hc    151    bbb    H11   4547 0.09515400   1.008000   ; qtot 151.569720
 4548         hc    151    bbb    H12   4548 0.09515400   1.008000   ; qtot 151.664874
 4549         c3    151    bbb     C7   4549 0.21842400  12.010000   ; qtot 151.883298
 4550         h1    151    bbb    H13   4550 0.04500300   1.008000   ; qtot 151.928301
 4551         h1    151    bbb    H14   4551 0.04500300   1.008000   ; qtot 151.973304
 4552         c3    151    bbb     C8   4552 -0.06455200  12.010000   ; qtot 151.908752
 4553         h1    151    bbb    H15   4553 0.13554100   1.008000   ; qtot 152.044293
 4554         h1    151    bbb    H16   4554 0.13554100   1.008000   ; qtot 152.179834
 4555         c3    151    bbb     C9   4555 -0.06455200  12.010000   ; qtot 152.115282
 4556         h1    151    bbb    H17   4556 0.13554100   1.008000   ; qtot 152.250823
 4557         h1    151    bbb    H18   4557 0.13554100   1.008000   ; qtot 152.386364
 4558         os    151    bbb     O1   4558 -0.62587700  16.000000   ; qtot 151.760487
 4559         hn    151    bbb    H19   4559 0.23982500   1.008000   ; qtot 152.000312
; residue  152 bbb rtp bbb q 1.0
 4560         n4    152    bbb     N1   4560 0.03726400  14.010000   ; qtot 152.037576
 4561         c3    152    bbb     C1   4561 -0.07020100  12.010000   ; qtot 151.967375
 4562         hx    152    bbb     H1   4562 0.12219000   1.008000   ; qtot 152.089565
 4563         hx    152    bbb     H2   4563 0.12219000   1.008000   ; qtot 152.211755
 4564         c3    152    bbb     C2   4564 -0.07020100  12.010000   ; qtot 152.141554
 4565         hx    152    bbb     H3   4565 0.12219000   1.008000   ; qtot 152.263744
 4566         hx    152    bbb     H4   4566 0.12219000   1.008000   ; qtot 152.385934
 4567         c3    152    bbb     C3   4567 -0.39007700  12.010000   ; qtot 151.995857
 4568         hx    152    bbb     H5   4568 0.14940300   1.008000   ; qtot 152.145260
 4569         hx    152    bbb     H6   4569 0.14940300   1.008000   ; qtot 152.294663
 4570         c3    152    bbb     C4   4570 0.18057300  12.010000   ; qtot 152.475236
 4571         hc    152    bbb     H7   4571 0.01788900   1.008000   ; qtot 152.493125
 4572         hc    152    bbb     H8   4572 0.01788900   1.008000   ; qtot 152.511014
 4573         c3    152    bbb     C5   4573 -0.11337700  12.010000   ; qtot 152.397637
 4574         hc    152    bbb     H9   4574 0.09515400   1.008000   ; qtot 152.492791
 4575         hc    152    bbb    H10   4575 0.09515400   1.008000   ; qtot 152.587945
 4576         c3    152    bbb     C6   4576 -0.11337700  12.010000   ; qtot 152.474568
 4577         hc    152    bbb    H11   4577 0.09515400   1.008000   ; qtot 152.569722
 4578         hc    152    bbb    H12   4578 0.09515400   1.008000   ; qtot 152.664876
 4579         c3    152    bbb     C7   4579 0.21842400  12.010000   ; qtot 152.883300
 4580         h1    152    bbb    H13   4580 0.04500300   1.008000   ; qtot 152.928303
 4581         h1    152    bbb    H14   4581 0.04500300   1.008000   ; qtot 152.973306
 4582         c3    152    bbb     C8   4582 -0.06455200  12.010000   ; qtot 152.908754
 4583         h1    152    bbb    H15   4583 0.13554100   1.008000   ; qtot 153.044295
 4584         h1    152    bbb    H16   4584 0.13554100   1.008000   ; qtot 153.179836
 4585         c3    152    bbb     C9   4585 -0.06455200  12.010000   ; qtot 153.115284
 4586         h1    152    bbb    H17   4586 0.13554100   1.008000   ; qtot 153.250825
 4587         h1    152    bbb    H18   4587 0.13554100   1.008000   ; qtot 153.386366
 4588         os    152    bbb     O1   4588 -0.62587700  16.000000   ; qtot 152.760489
 4589         hn    152    bbb    H19   4589 0.23982500   1.008000   ; qtot 153.000314
; residue  153 bbb rtp bbb q 1.0
 4590         n4    153    bbb     N1   4590 0.03726400  14.010000   ; qtot 153.037578
 4591         c3    153    bbb     C1   4591 -0.07020100  12.010000   ; qtot 152.967377
 4592         hx    153    bbb     H1   4592 0.12219000   1.008000   ; qtot 153.089567
 4593         hx    153    bbb     H2   4593 0.12219000   1.008000   ; qtot 153.211757
 4594         c3    153    bbb     C2   4594 -0.07020100  12.010000   ; qtot 153.141556
 4595         hx    153    bbb     H3   4595 0.12219000   1.008000   ; qtot 153.263746
 4596         hx    153    bbb     H4   4596 0.12219000   1.008000   ; qtot 153.385936
 4597         c3    153    bbb     C3   4597 -0.39007700  12.010000   ; qtot 152.995859
 4598         hx    153    bbb     H5   4598 0.14940300   1.008000   ; qtot 153.145262
 4599         hx    153    bbb     H6   4599 0.14940300   1.008000   ; qtot 153.294665
 4600         c3    153    bbb     C4   4600 0.18057300  12.010000   ; qtot 153.475238
 4601         hc    153    bbb     H7   4601 0.01788900   1.008000   ; qtot 153.493127
 4602         hc    153    bbb     H8   4602 0.01788900   1.008000   ; qtot 153.511016
 4603         c3    153    bbb     C5   4603 -0.11337700  12.010000   ; qtot 153.397639
 4604         hc    153    bbb     H9   4604 0.09515400   1.008000   ; qtot 153.492793
 4605         hc    153    bbb    H10   4605 0.09515400   1.008000   ; qtot 153.587947
 4606         c3    153    bbb     C6   4606 -0.11337700  12.010000   ; qtot 153.474570
 4607         hc    153    bbb    H11   4607 0.09515400   1.008000   ; qtot 153.569724
 4608         hc    153    bbb    H12   4608 0.09515400   1.008000   ; qtot 153.664878
 4609         c3    153    bbb     C7   4609 0.21842400  12.010000   ; qtot 153.883302
 4610         h1    153    bbb    H13   4610 0.04500300   1.008000   ; qtot 153.928305
 4611         h1    153    bbb    H14   4611 0.04500300   1.008000   ; qtot 153.973308
 4612         c3    153    bbb     C8   4612 -0.06455200  12.010000   ; qtot 153.908756
 4613         h1    153    bbb    H15   4613 0.13554100   1.008000   ; qtot 154.044297
 4614         h1    153    bbb    H16   4614 0.13554100   1.008000   ; qtot 154.179838
 4615         c3    153    bbb     C9   4615 -0.06455200  12.010000   ; qtot 154.115286
 4616         h1    153    bbb    H17   4616 0.13554100   1.008000   ; qtot 154.250827
 4617         h1    153    bbb    H18   4617 0.13554100   1.008000   ; qtot 154.386368
 4618         os    153    bbb     O1   4618 -0.62587700  16.000000   ; qtot 153.760491
 4619         hn    153    bbb    H19   4619 0.23982500   1.008000   ; qtot 154.000316
; residue  154 bbb rtp bbb q 1.0
 4620         n4    154    bbb     N1   4620 0.03726400  14.010000   ; qtot 154.037580
 4621         c3    154    bbb     C1   4621 -0.07020100  12.010000   ; qtot 153.967379
 4622         hx    154    bbb     H1   4622 0.12219000   1.008000   ; qtot 154.089569
 4623         hx    154    bbb     H2   4623 0.12219000   1.008000   ; qtot 154.211759
 4624         c3    154    bbb     C2   4624 -0.07020100  12.010000   ; qtot 154.141558
 4625         hx    154    bbb     H3   4625 0.12219000   1.008000   ; qtot 154.263748
 4626         hx    154    bbb     H4   4626 0.12219000   1.008000   ; qtot 154.385938
 4627         c3    154    bbb     C3   4627 -0.39007700  12.010000   ; qtot 153.995861
 4628         hx    154    bbb     H5   4628 0.14940300   1.008000   ; qtot 154.145264
 4629         hx    154    bbb     H6   4629 0.14940300   1.008000   ; qtot 154.294667
 4630         c3    154    bbb     C4   4630 0.18057300  12.010000   ; qtot 154.475240
 4631         hc    154    bbb     H7   4631 0.01788900   1.008000   ; qtot 154.493129
 4632         hc    154    bbb     H8   4632 0.01788900   1.008000   ; qtot 154.511018
 4633         c3    154    bbb     C5   4633 -0.11337700  12.010000   ; qtot 154.397641
 4634         hc    154    bbb     H9   4634 0.09515400   1.008000   ; qtot 154.492795
 4635         hc    154    bbb    H10   4635 0.09515400   1.008000   ; qtot 154.587949
 4636         c3    154    bbb     C6   4636 -0.11337700  12.010000   ; qtot 154.474572
 4637         hc    154    bbb    H11   4637 0.09515400   1.008000   ; qtot 154.569726
 4638         hc    154    bbb    H12   4638 0.09515400   1.008000   ; qtot 154.664880
 4639         c3    154    bbb     C7   4639 0.21842400  12.010000   ; qtot 154.883304
 4640         h1    154    bbb    H13   4640 0.04500300   1.008000   ; qtot 154.928307
 4641         h1    154    bbb    H14   4641 0.04500300   1.008000   ; qtot 154.973310
 4642         c3    154    bbb     C8   4642 -0.06455200  12.010000   ; qtot 154.908758
 4643         h1    154    bbb    H15   4643 0.13554100   1.008000   ; qtot 155.044299
 4644         h1    154    bbb    H16   4644 0.13554100   1.008000   ; qtot 155.179840
 4645         c3    154    bbb     C9   4645 -0.06455200  12.010000   ; qtot 155.115288
 4646         h1    154    bbb    H17   4646 0.13554100   1.008000   ; qtot 155.250829
 4647         h1    154    bbb    H18   4647 0.13554100   1.008000   ; qtot 155.386370
 4648         os    154    bbb     O1   4648 -0.62587700  16.000000   ; qtot 154.760493
 4649         hn    154    bbb    H19   4649 0.23982500   1.008000   ; qtot 155.000318
; residue  155 bbb rtp bbb q 1.0
 4650         n4    155    bbb     N1   4650 0.03726400  14.010000   ; qtot 155.037582
 4651         c3    155    bbb     C1   4651 -0.07020100  12.010000   ; qtot 154.967381
 4652         hx    155    bbb     H1   4652 0.12219000   1.008000   ; qtot 155.089571
 4653         hx    155    bbb     H2   4653 0.12219000   1.008000   ; qtot 155.211761
 4654         c3    155    bbb     C2   4654 -0.07020100  12.010000   ; qtot 155.141560
 4655         hx    155    bbb     H3   4655 0.12219000   1.008000   ; qtot 155.263750
 4656         hx    155    bbb     H4   4656 0.12219000   1.008000   ; qtot 155.385940
 4657         c3    155    bbb     C3   4657 -0.39007700  12.010000   ; qtot 154.995863
 4658         hx    155    bbb     H5   4658 0.14940300   1.008000   ; qtot 155.145266
 4659         hx    155    bbb     H6   4659 0.14940300   1.008000   ; qtot 155.294669
 4660         c3    155    bbb     C4   4660 0.18057300  12.010000   ; qtot 155.475242
 4661         hc    155    bbb     H7   4661 0.01788900   1.008000   ; qtot 155.493131
 4662         hc    155    bbb     H8   4662 0.01788900   1.008000   ; qtot 155.511020
 4663         c3    155    bbb     C5   4663 -0.11337700  12.010000   ; qtot 155.397643
 4664         hc    155    bbb     H9   4664 0.09515400   1.008000   ; qtot 155.492797
 4665         hc    155    bbb    H10   4665 0.09515400   1.008000   ; qtot 155.587951
 4666         c3    155    bbb     C6   4666 -0.11337700  12.010000   ; qtot 155.474574
 4667         hc    155    bbb    H11   4667 0.09515400   1.008000   ; qtot 155.569728
 4668         hc    155    bbb    H12   4668 0.09515400   1.008000   ; qtot 155.664882
 4669         c3    155    bbb     C7   4669 0.21842400  12.010000   ; qtot 155.883306
 4670         h1    155    bbb    H13   4670 0.04500300   1.008000   ; qtot 155.928309
 4671         h1    155    bbb    H14   4671 0.04500300   1.008000   ; qtot 155.973312
 4672         c3    155    bbb     C8   4672 -0.06455200  12.010000   ; qtot 155.908760
 4673         h1    155    bbb    H15   4673 0.13554100   1.008000   ; qtot 156.044301
 4674         h1    155    bbb    H16   4674 0.13554100   1.008000   ; qtot 156.179842
 4675         c3    155    bbb     C9   4675 -0.06455200  12.010000   ; qtot 156.115290
 4676         h1    155    bbb    H17   4676 0.13554100   1.008000   ; qtot 156.250831
 4677         h1    155    bbb    H18   4677 0.13554100   1.008000   ; qtot 156.386372
 4678         os    155    bbb     O1   4678 -0.62587700  16.000000   ; qtot 155.760495
 4679         hn    155    bbb    H19   4679 0.23982500   1.008000   ; qtot 156.000320
; residue  156 bbb rtp bbb q 1.0
 4680         n4    156    bbb     N1   4680 0.03726400  14.010000   ; qtot 156.037584
 4681         c3    156    bbb     C1   4681 -0.07020100  12.010000   ; qtot 155.967383
 4682         hx    156    bbb     H1   4682 0.12219000   1.008000   ; qtot 156.089573
 4683         hx    156    bbb     H2   4683 0.12219000   1.008000   ; qtot 156.211763
 4684         c3    156    bbb     C2   4684 -0.07020100  12.010000   ; qtot 156.141562
 4685         hx    156    bbb     H3   4685 0.12219000   1.008000   ; qtot 156.263752
 4686         hx    156    bbb     H4   4686 0.12219000   1.008000   ; qtot 156.385942
 4687         c3    156    bbb     C3   4687 -0.39007700  12.010000   ; qtot 155.995865
 4688         hx    156    bbb     H5   4688 0.14940300   1.008000   ; qtot 156.145268
 4689         hx    156    bbb     H6   4689 0.14940300   1.008000   ; qtot 156.294671
 4690         c3    156    bbb     C4   4690 0.18057300  12.010000   ; qtot 156.475244
 4691         hc    156    bbb     H7   4691 0.01788900   1.008000   ; qtot 156.493133
 4692         hc    156    bbb     H8   4692 0.01788900   1.008000   ; qtot 156.511022
 4693         c3    156    bbb     C5   4693 -0.11337700  12.010000   ; qtot 156.397645
 4694         hc    156    bbb     H9   4694 0.09515400   1.008000   ; qtot 156.492799
 4695         hc    156    bbb    H10   4695 0.09515400   1.008000   ; qtot 156.587953
 4696         c3    156    bbb     C6   4696 -0.11337700  12.010000   ; qtot 156.474576
 4697         hc    156    bbb    H11   4697 0.09515400   1.008000   ; qtot 156.569730
 4698         hc    156    bbb    H12   4698 0.09515400   1.008000   ; qtot 156.664884
 4699         c3    156    bbb     C7   4699 0.21842400  12.010000   ; qtot 156.883308
 4700         h1    156    bbb    H13   4700 0.04500300   1.008000   ; qtot 156.928311
 4701         h1    156    bbb    H14   4701 0.04500300   1.008000   ; qtot 156.973314
 4702         c3    156    bbb     C8   4702 -0.06455200  12.010000   ; qtot 156.908762
 4703         h1    156    bbb    H15   4703 0.13554100   1.008000   ; qtot 157.044303
 4704         h1    156    bbb    H16   4704 0.13554100   1.008000   ; qtot 157.179844
 4705         c3    156    bbb     C9   4705 -0.06455200  12.010000   ; qtot 157.115292
 4706         h1    156    bbb    H17   4706 0.13554100   1.008000   ; qtot 157.250833
 4707         h1    156    bbb    H18   4707 0.13554100   1.008000   ; qtot 157.386374
 4708         os    156    bbb     O1   4708 -0.62587700  16.000000   ; qtot 156.760497
 4709         hn    156    bbb    H19   4709 0.23982500   1.008000   ; qtot 157.000322
; residue  157 bbb rtp bbb q 1.0
 4710         n4    157    bbb     N1   4710 0.03726400  14.010000   ; qtot 157.037586
 4711         c3    157    bbb     C1   4711 -0.07020100  12.010000   ; qtot 156.967385
 4712         hx    157    bbb     H1   4712 0.12219000   1.008000   ; qtot 157.089575
 4713         hx    157    bbb     H2   4713 0.12219000   1.008000   ; qtot 157.211765
 4714         c3    157    bbb     C2   4714 -0.07020100  12.010000   ; qtot 157.141564
 4715         hx    157    bbb     H3   4715 0.12219000   1.008000   ; qtot 157.263754
 4716         hx    157    bbb     H4   4716 0.12219000   1.008000   ; qtot 157.385944
 4717         c3    157    bbb     C3   4717 -0.39007700  12.010000   ; qtot 156.995867
 4718         hx    157    bbb     H5   4718 0.14940300   1.008000   ; qtot 157.145270
 4719         hx    157    bbb     H6   4719 0.14940300   1.008000   ; qtot 157.294673
 4720         c3    157    bbb     C4   4720 0.18057300  12.010000   ; qtot 157.475246
 4721         hc    157    bbb     H7   4721 0.01788900   1.008000   ; qtot 157.493135
 4722         hc    157    bbb     H8   4722 0.01788900   1.008000   ; qtot 157.511024
 4723         c3    157    bbb     C5   4723 -0.11337700  12.010000   ; qtot 157.397647
 4724         hc    157    bbb     H9   4724 0.09515400   1.008000   ; qtot 157.492801
 4725         hc    157    bbb    H10   4725 0.09515400   1.008000   ; qtot 157.587955
 4726         c3    157    bbb     C6   4726 -0.11337700  12.010000   ; qtot 157.474578
 4727         hc    157    bbb    H11   4727 0.09515400   1.008000   ; qtot 157.569732
 4728         hc    157    bbb    H12   4728 0.09515400   1.008000   ; qtot 157.664886
 4729         c3    157    bbb     C7   4729 0.21842400  12.010000   ; qtot 157.883310
 4730         h1    157    bbb    H13   4730 0.04500300   1.008000   ; qtot 157.928313
 4731         h1    157    bbb    H14   4731 0.04500300   1.008000   ; qtot 157.973316
 4732         c3    157    bbb     C8   4732 -0.06455200  12.010000   ; qtot 157.908764
 4733         h1    157    bbb    H15   4733 0.13554100   1.008000   ; qtot 158.044305
 4734         h1    157    bbb    H16   4734 0.13554100   1.008000   ; qtot 158.179846
 4735         c3    157    bbb     C9   4735 -0.06455200  12.010000   ; qtot 158.115294
 4736         h1    157    bbb    H17   4736 0.13554100   1.008000   ; qtot 158.250835
 4737         h1    157    bbb    H18   4737 0.13554100   1.008000   ; qtot 158.386376
 4738         os    157    bbb     O1   4738 -0.62587700  16.000000   ; qtot 157.760499
 4739         hn    157    bbb    H19   4739 0.23982500   1.008000   ; qtot 158.000324
; residue  158 bbb rtp bbb q 1.0
 4740         n4    158    bbb     N1   4740 0.03726400  14.010000   ; qtot 158.037588
 4741         c3    158    bbb     C1   4741 -0.07020100  12.010000   ; qtot 157.967387
 4742         hx    158    bbb     H1   4742 0.12219000   1.008000   ; qtot 158.089577
 4743         hx    158    bbb     H2   4743 0.12219000   1.008000   ; qtot 158.211767
 4744         c3    158    bbb     C2   4744 -0.07020100  12.010000   ; qtot 158.141566
 4745         hx    158    bbb     H3   4745 0.12219000   1.008000   ; qtot 158.263756
 4746         hx    158    bbb     H4   4746 0.12219000   1.008000   ; qtot 158.385946
 4747         c3    158    bbb     C3   4747 -0.39007700  12.010000   ; qtot 157.995869
 4748         hx    158    bbb     H5   4748 0.14940300   1.008000   ; qtot 158.145272
 4749         hx    158    bbb     H6   4749 0.14940300   1.008000   ; qtot 158.294675
 4750         c3    158    bbb     C4   4750 0.18057300  12.010000   ; qtot 158.475248
 4751         hc    158    bbb     H7   4751 0.01788900   1.008000   ; qtot 158.493137
 4752         hc    158    bbb     H8   4752 0.01788900   1.008000   ; qtot 158.511026
 4753         c3    158    bbb     C5   4753 -0.11337700  12.010000   ; qtot 158.397649
 4754         hc    158    bbb     H9   4754 0.09515400   1.008000   ; qtot 158.492803
 4755         hc    158    bbb    H10   4755 0.09515400   1.008000   ; qtot 158.587957
 4756         c3    158    bbb     C6   4756 -0.11337700  12.010000   ; qtot 158.474580
 4757         hc    158    bbb    H11   4757 0.09515400   1.008000   ; qtot 158.569734
 4758         hc    158    bbb    H12   4758 0.09515400   1.008000   ; qtot 158.664888
 4759         c3    158    bbb     C7   4759 0.21842400  12.010000   ; qtot 158.883312
 4760         h1    158    bbb    H13   4760 0.04500300   1.008000   ; qtot 158.928315
 4761         h1    158    bbb    H14   4761 0.04500300   1.008000   ; qtot 158.973318
 4762         c3    158    bbb     C8   4762 -0.06455200  12.010000   ; qtot 158.908766
 4763         h1    158    bbb    H15   4763 0.13554100   1.008000   ; qtot 159.044307
 4764         h1    158    bbb    H16   4764 0.13554100   1.008000   ; qtot 159.179848
 4765         c3    158    bbb     C9   4765 -0.06455200  12.010000   ; qtot 159.115296
 4766         h1    158    bbb    H17   4766 0.13554100   1.008000   ; qtot 159.250837
 4767         h1    158    bbb    H18   4767 0.13554100   1.008000   ; qtot 159.386378
 4768         os    158    bbb     O1   4768 -0.62587700  16.000000   ; qtot 158.760501
 4769         hn    158    bbb    H19   4769 0.23982500   1.008000   ; qtot 159.000326
; residue  159 bbb rtp bbb q 1.0
 4770         n4    159    bbb     N1   4770 0.03726400  14.010000   ; qtot 159.037590
 4771         c3    159    bbb     C1   4771 -0.07020100  12.010000   ; qtot 158.967389
 4772         hx    159    bbb     H1   4772 0.12219000   1.008000   ; qtot 159.089579
 4773         hx    159    bbb     H2   4773 0.12219000   1.008000   ; qtot 159.211769
 4774         c3    159    bbb     C2   4774 -0.07020100  12.010000   ; qtot 159.141568
 4775         hx    159    bbb     H3   4775 0.12219000   1.008000   ; qtot 159.263758
 4776         hx    159    bbb     H4   4776 0.12219000   1.008000   ; qtot 159.385948
 4777         c3    159    bbb     C3   4777 -0.39007700  12.010000   ; qtot 158.995871
 4778         hx    159    bbb     H5   4778 0.14940300   1.008000   ; qtot 159.145274
 4779         hx    159    bbb     H6   4779 0.14940300   1.008000   ; qtot 159.294677
 4780         c3    159    bbb     C4   4780 0.18057300  12.010000   ; qtot 159.475250
 4781         hc    159    bbb     H7   4781 0.01788900   1.008000   ; qtot 159.493139
 4782         hc    159    bbb     H8   4782 0.01788900   1.008000   ; qtot 159.511028
 4783         c3    159    bbb     C5   4783 -0.11337700  12.010000   ; qtot 159.397651
 4784         hc    159    bbb     H9   4784 0.09515400   1.008000   ; qtot 159.492805
 4785         hc    159    bbb    H10   4785 0.09515400   1.008000   ; qtot 159.587959
 4786         c3    159    bbb     C6   4786 -0.11337700  12.010000   ; qtot 159.474582
 4787         hc    159    bbb    H11   4787 0.09515400   1.008000   ; qtot 159.569736
 4788         hc    159    bbb    H12   4788 0.09515400   1.008000   ; qtot 159.664890
 4789         c3    159    bbb     C7   4789 0.21842400  12.010000   ; qtot 159.883314
 4790         h1    159    bbb    H13   4790 0.04500300   1.008000   ; qtot 159.928317
 4791         h1    159    bbb    H14   4791 0.04500300   1.008000   ; qtot 159.973320
 4792         c3    159    bbb     C8   4792 -0.06455200  12.010000   ; qtot 159.908768
 4793         h1    159    bbb    H15   4793 0.13554100   1.008000   ; qtot 160.044309
 4794         h1    159    bbb    H16   4794 0.13554100   1.008000   ; qtot 160.179850
 4795         c3    159    bbb     C9   4795 -0.06455200  12.010000   ; qtot 160.115298
 4796         h1    159    bbb    H17   4796 0.13554100   1.008000   ; qtot 160.250839
 4797         h1    159    bbb    H18   4797 0.13554100   1.008000   ; qtot 160.386380
 4798         os    159    bbb     O1   4798 -0.62587700  16.000000   ; qtot 159.760503
 4799         hn    159    bbb    H19   4799 0.23982500   1.008000   ; qtot 160.000328
; residue  160 bbb rtp bbb q 1.0
 4800         n4    160    bbb     N1   4800 0.03726400  14.010000   ; qtot 160.037592
 4801         c3    160    bbb     C1   4801 -0.07020100  12.010000   ; qtot 159.967391
 4802         hx    160    bbb     H1   4802 0.12219000   1.008000   ; qtot 160.089581
 4803         hx    160    bbb     H2   4803 0.12219000   1.008000   ; qtot 160.211771
 4804         c3    160    bbb     C2   4804 -0.07020100  12.010000   ; qtot 160.141570
 4805         hx    160    bbb     H3   4805 0.12219000   1.008000   ; qtot 160.263760
 4806         hx    160    bbb     H4   4806 0.12219000   1.008000   ; qtot 160.385950
 4807         c3    160    bbb     C3   4807 -0.39007700  12.010000   ; qtot 159.995873
 4808         hx    160    bbb     H5   4808 0.14940300   1.008000   ; qtot 160.145276
 4809         hx    160    bbb     H6   4809 0.14940300   1.008000   ; qtot 160.294679
 4810         c3    160    bbb     C4   4810 0.18057300  12.010000   ; qtot 160.475252
 4811         hc    160    bbb     H7   4811 0.01788900   1.008000   ; qtot 160.493141
 4812         hc    160    bbb     H8   4812 0.01788900   1.008000   ; qtot 160.511030
 4813         c3    160    bbb     C5   4813 -0.11337700  12.010000   ; qtot 160.397653
 4814         hc    160    bbb     H9   4814 0.09515400   1.008000   ; qtot 160.492807
 4815         hc    160    bbb    H10   4815 0.09515400   1.008000   ; qtot 160.587961
 4816         c3    160    bbb     C6   4816 -0.11337700  12.010000   ; qtot 160.474584
 4817         hc    160    bbb    H11   4817 0.09515400   1.008000   ; qtot 160.569738
 4818         hc    160    bbb    H12   4818 0.09515400   1.008000   ; qtot 160.664892
 4819         c3    160    bbb     C7   4819 0.21842400  12.010000   ; qtot 160.883316
 4820         h1    160    bbb    H13   4820 0.04500300   1.008000   ; qtot 160.928319
 4821         h1    160    bbb    H14   4821 0.04500300   1.008000   ; qtot 160.973322
 4822         c3    160    bbb     C8   4822 -0.06455200  12.010000   ; qtot 160.908770
 4823         h1    160    bbb    H15   4823 0.13554100   1.008000   ; qtot 161.044311
 4824         h1    160    bbb    H16   4824 0.13554100   1.008000   ; qtot 161.179852
 4825         c3    160    bbb     C9   4825 -0.06455200  12.010000   ; qtot 161.115300
 4826         h1    160    bbb    H17   4826 0.13554100   1.008000   ; qtot 161.250841
 4827         h1    160    bbb    H18   4827 0.13554100   1.008000   ; qtot 161.386382
 4828         os    160    bbb     O1   4828 -0.62587700  16.000000   ; qtot 160.760505
 4829         hn    160    bbb    H19   4829 0.23982500   1.008000   ; qtot 161.000330
; residue  161 bbb rtp bbb q 1.0
 4830         n4    161    bbb     N1   4830 0.03726400  14.010000   ; qtot 161.037594
 4831         c3    161    bbb     C1   4831 -0.07020100  12.010000   ; qtot 160.967393
 4832         hx    161    bbb     H1   4832 0.12219000   1.008000   ; qtot 161.089583
 4833         hx    161    bbb     H2   4833 0.12219000   1.008000   ; qtot 161.211773
 4834         c3    161    bbb     C2   4834 -0.07020100  12.010000   ; qtot 161.141572
 4835         hx    161    bbb     H3   4835 0.12219000   1.008000   ; qtot 161.263762
 4836         hx    161    bbb     H4   4836 0.12219000   1.008000   ; qtot 161.385952
 4837         c3    161    bbb     C3   4837 -0.39007700  12.010000   ; qtot 160.995875
 4838         hx    161    bbb     H5   4838 0.14940300   1.008000   ; qtot 161.145278
 4839         hx    161    bbb     H6   4839 0.14940300   1.008000   ; qtot 161.294681
 4840         c3    161    bbb     C4   4840 0.18057300  12.010000   ; qtot 161.475254
 4841         hc    161    bbb     H7   4841 0.01788900   1.008000   ; qtot 161.493143
 4842         hc    161    bbb     H8   4842 0.01788900   1.008000   ; qtot 161.511032
 4843         c3    161    bbb     C5   4843 -0.11337700  12.010000   ; qtot 161.397655
 4844         hc    161    bbb     H9   4844 0.09515400   1.008000   ; qtot 161.492809
 4845         hc    161    bbb    H10   4845 0.09515400   1.008000   ; qtot 161.587963
 4846         c3    161    bbb     C6   4846 -0.11337700  12.010000   ; qtot 161.474586
 4847         hc    161    bbb    H11   4847 0.09515400   1.008000   ; qtot 161.569740
 4848         hc    161    bbb    H12   4848 0.09515400   1.008000   ; qtot 161.664894
 4849         c3    161    bbb     C7   4849 0.21842400  12.010000   ; qtot 161.883318
 4850         h1    161    bbb    H13   4850 0.04500300   1.008000   ; qtot 161.928321
 4851         h1    161    bbb    H14   4851 0.04500300   1.008000   ; qtot 161.973324
 4852         c3    161    bbb     C8   4852 -0.06455200  12.010000   ; qtot 161.908772
 4853         h1    161    bbb    H15   4853 0.13554100   1.008000   ; qtot 162.044313
 4854         h1    161    bbb    H16   4854 0.13554100   1.008000   ; qtot 162.179854
 4855         c3    161    bbb     C9   4855 -0.06455200  12.010000   ; qtot 162.115302
 4856         h1    161    bbb    H17   4856 0.13554100   1.008000   ; qtot 162.250843
 4857         h1    161    bbb    H18   4857 0.13554100   1.008000   ; qtot 162.386384
 4858         os    161    bbb     O1   4858 -0.62587700  16.000000   ; qtot 161.760507
 4859         hn    161    bbb    H19   4859 0.23982500   1.008000   ; qtot 162.000332
; residue  162 bbb rtp bbb q 1.0
 4860         n4    162    bbb     N1   4860 0.03726400  14.010000   ; qtot 162.037596
 4861         c3    162    bbb     C1   4861 -0.07020100  12.010000   ; qtot 161.967395
 4862         hx    162    bbb     H1   4862 0.12219000   1.008000   ; qtot 162.089585
 4863         hx    162    bbb     H2   4863 0.12219000   1.008000   ; qtot 162.211775
 4864         c3    162    bbb     C2   4864 -0.07020100  12.010000   ; qtot 162.141574
 4865         hx    162    bbb     H3   4865 0.12219000   1.008000   ; qtot 162.263764
 4866         hx    162    bbb     H4   4866 0.12219000   1.008000   ; qtot 162.385954
 4867         c3    162    bbb     C3   4867 -0.39007700  12.010000   ; qtot 161.995877
 4868         hx    162    bbb     H5   4868 0.14940300   1.008000   ; qtot 162.145280
 4869         hx    162    bbb     H6   4869 0.14940300   1.008000   ; qtot 162.294683
 4870         c3    162    bbb     C4   4870 0.18057300  12.010000   ; qtot 162.475256
 4871         hc    162    bbb     H7   4871 0.01788900   1.008000   ; qtot 162.493145
 4872         hc    162    bbb     H8   4872 0.01788900   1.008000   ; qtot 162.511034
 4873         c3    162    bbb     C5   4873 -0.11337700  12.010000   ; qtot 162.397657
 4874         hc    162    bbb     H9   4874 0.09515400   1.008000   ; qtot 162.492811
 4875         hc    162    bbb    H10   4875 0.09515400   1.008000   ; qtot 162.587965
 4876         c3    162    bbb     C6   4876 -0.11337700  12.010000   ; qtot 162.474588
 4877         hc    162    bbb    H11   4877 0.09515400   1.008000   ; qtot 162.569742
 4878         hc    162    bbb    H12   4878 0.09515400   1.008000   ; qtot 162.664896
 4879         c3    162    bbb     C7   4879 0.21842400  12.010000   ; qtot 162.883320
 4880         h1    162    bbb    H13   4880 0.04500300   1.008000   ; qtot 162.928323
 4881         h1    162    bbb    H14   4881 0.04500300   1.008000   ; qtot 162.973326
 4882         c3    162    bbb     C8   4882 -0.06455200  12.010000   ; qtot 162.908774
 4883         h1    162    bbb    H15   4883 0.13554100   1.008000   ; qtot 163.044315
 4884         h1    162    bbb    H16   4884 0.13554100   1.008000   ; qtot 163.179856
 4885         c3    162    bbb     C9   4885 -0.06455200  12.010000   ; qtot 163.115304
 4886         h1    162    bbb    H17   4886 0.13554100   1.008000   ; qtot 163.250845
 4887         h1    162    bbb    H18   4887 0.13554100   1.008000   ; qtot 163.386386
 4888         os    162    bbb     O1   4888 -0.62587700  16.000000   ; qtot 162.760509
 4889         hn    162    bbb    H19   4889 0.23982500   1.008000   ; qtot 163.000334
; residue  163 bbb rtp bbb q 1.0
 4890         n4    163    bbb     N1   4890 0.03726400  14.010000   ; qtot 163.037598
 4891         c3    163    bbb     C1   4891 -0.07020100  12.010000   ; qtot 162.967397
 4892         hx    163    bbb     H1   4892 0.12219000   1.008000   ; qtot 163.089587
 4893         hx    163    bbb     H2   4893 0.12219000   1.008000   ; qtot 163.211777
 4894         c3    163    bbb     C2   4894 -0.07020100  12.010000   ; qtot 163.141576
 4895         hx    163    bbb     H3   4895 0.12219000   1.008000   ; qtot 163.263766
 4896         hx    163    bbb     H4   4896 0.12219000   1.008000   ; qtot 163.385956
 4897         c3    163    bbb     C3   4897 -0.39007700  12.010000   ; qtot 162.995879
 4898         hx    163    bbb     H5   4898 0.14940300   1.008000   ; qtot 163.145282
 4899         hx    163    bbb     H6   4899 0.14940300   1.008000   ; qtot 163.294685
 4900         c3    163    bbb     C4   4900 0.18057300  12.010000   ; qtot 163.475258
 4901         hc    163    bbb     H7   4901 0.01788900   1.008000   ; qtot 163.493147
 4902         hc    163    bbb     H8   4902 0.01788900   1.008000   ; qtot 163.511036
 4903         c3    163    bbb     C5   4903 -0.11337700  12.010000   ; qtot 163.397659
 4904         hc    163    bbb     H9   4904 0.09515400   1.008000   ; qtot 163.492813
 4905         hc    163    bbb    H10   4905 0.09515400   1.008000   ; qtot 163.587967
 4906         c3    163    bbb     C6   4906 -0.11337700  12.010000   ; qtot 163.474590
 4907         hc    163    bbb    H11   4907 0.09515400   1.008000   ; qtot 163.569744
 4908         hc    163    bbb    H12   4908 0.09515400   1.008000   ; qtot 163.664898
 4909         c3    163    bbb     C7   4909 0.21842400  12.010000   ; qtot 163.883322
 4910         h1    163    bbb    H13   4910 0.04500300   1.008000   ; qtot 163.928325
 4911         h1    163    bbb    H14   4911 0.04500300   1.008000   ; qtot 163.973328
 4912         c3    163    bbb     C8   4912 -0.06455200  12.010000   ; qtot 163.908776
 4913         h1    163    bbb    H15   4913 0.13554100   1.008000   ; qtot 164.044317
 4914         h1    163    bbb    H16   4914 0.13554100   1.008000   ; qtot 164.179858
 4915         c3    163    bbb     C9   4915 -0.06455200  12.010000   ; qtot 164.115306
 4916         h1    163    bbb    H17   4916 0.13554100   1.008000   ; qtot 164.250847
 4917         h1    163    bbb    H18   4917 0.13554100   1.008000   ; qtot 164.386388
 4918         os    163    bbb     O1   4918 -0.62587700  16.000000   ; qtot 163.760511
 4919         hn    163    bbb    H19   4919 0.23982500   1.008000   ; qtot 164.000336
; residue  164 bbb rtp bbb q 1.0
 4920         n4    164    bbb     N1   4920 0.03726400  14.010000   ; qtot 164.037600
 4921         c3    164    bbb     C1   4921 -0.07020100  12.010000   ; qtot 163.967399
 4922         hx    164    bbb     H1   4922 0.12219000   1.008000   ; qtot 164.089589
 4923         hx    164    bbb     H2   4923 0.12219000   1.008000   ; qtot 164.211779
 4924         c3    164    bbb     C2   4924 -0.07020100  12.010000   ; qtot 164.141578
 4925         hx    164    bbb     H3   4925 0.12219000   1.008000   ; qtot 164.263768
 4926         hx    164    bbb     H4   4926 0.12219000   1.008000   ; qtot 164.385958
 4927         c3    164    bbb     C3   4927 -0.39007700  12.010000   ; qtot 163.995881
 4928         hx    164    bbb     H5   4928 0.14940300   1.008000   ; qtot 164.145284
 4929         hx    164    bbb     H6   4929 0.14940300   1.008000   ; qtot 164.294687
 4930         c3    164    bbb     C4   4930 0.18057300  12.010000   ; qtot 164.475260
 4931         hc    164    bbb     H7   4931 0.01788900   1.008000   ; qtot 164.493149
 4932         hc    164    bbb     H8   4932 0.01788900   1.008000   ; qtot 164.511038
 4933         c3    164    bbb     C5   4933 -0.11337700  12.010000   ; qtot 164.397661
 4934         hc    164    bbb     H9   4934 0.09515400   1.008000   ; qtot 164.492815
 4935         hc    164    bbb    H10   4935 0.09515400   1.008000   ; qtot 164.587969
 4936         c3    164    bbb     C6   4936 -0.11337700  12.010000   ; qtot 164.474592
 4937         hc    164    bbb    H11   4937 0.09515400   1.008000   ; qtot 164.569746
 4938         hc    164    bbb    H12   4938 0.09515400   1.008000   ; qtot 164.664900
 4939         c3    164    bbb     C7   4939 0.21842400  12.010000   ; qtot 164.883324
 4940         h1    164    bbb    H13   4940 0.04500300   1.008000   ; qtot 164.928327
 4941         h1    164    bbb    H14   4941 0.04500300   1.008000   ; qtot 164.973330
 4942         c3    164    bbb     C8   4942 -0.06455200  12.010000   ; qtot 164.908778
 4943         h1    164    bbb    H15   4943 0.13554100   1.008000   ; qtot 165.044319
 4944         h1    164    bbb    H16   4944 0.13554100   1.008000   ; qtot 165.179860
 4945         c3    164    bbb     C9   4945 -0.06455200  12.010000   ; qtot 165.115308
 4946         h1    164    bbb    H17   4946 0.13554100   1.008000   ; qtot 165.250849
 4947         h1    164    bbb    H18   4947 0.13554100   1.008000   ; qtot 165.386390
 4948         os    164    bbb     O1   4948 -0.62587700  16.000000   ; qtot 164.760513
 4949         hn    164    bbb    H19   4949 0.23982500   1.008000   ; qtot 165.000338
; residue  165 bbb rtp bbb q 1.0
 4950         n4    165    bbb     N1   4950 0.03726400  14.010000   ; qtot 165.037602
 4951         c3    165    bbb     C1   4951 -0.07020100  12.010000   ; qtot 164.967401
 4952         hx    165    bbb     H1   4952 0.12219000   1.008000   ; qtot 165.089591
 4953         hx    165    bbb     H2   4953 0.12219000   1.008000   ; qtot 165.211781
 4954         c3    165    bbb     C2   4954 -0.07020100  12.010000   ; qtot 165.141580
 4955         hx    165    bbb     H3   4955 0.12219000   1.008000   ; qtot 165.263770
 4956         hx    165    bbb     H4   4956 0.12219000   1.008000   ; qtot 165.385960
 4957         c3    165    bbb     C3   4957 -0.39007700  12.010000   ; qtot 164.995883
 4958         hx    165    bbb     H5   4958 0.14940300   1.008000   ; qtot 165.145286
 4959         hx    165    bbb     H6   4959 0.14940300   1.008000   ; qtot 165.294689
 4960         c3    165    bbb     C4   4960 0.18057300  12.010000   ; qtot 165.475262
 4961         hc    165    bbb     H7   4961 0.01788900   1.008000   ; qtot 165.493151
 4962         hc    165    bbb     H8   4962 0.01788900   1.008000   ; qtot 165.511040
 4963         c3    165    bbb     C5   4963 -0.11337700  12.010000   ; qtot 165.397663
 4964         hc    165    bbb     H9   4964 0.09515400   1.008000   ; qtot 165.492817
 4965         hc    165    bbb    H10   4965 0.09515400   1.008000   ; qtot 165.587971
 4966         c3    165    bbb     C6   4966 -0.11337700  12.010000   ; qtot 165.474594
 4967         hc    165    bbb    H11   4967 0.09515400   1.008000   ; qtot 165.569748
 4968         hc    165    bbb    H12   4968 0.09515400   1.008000   ; qtot 165.664902
 4969         c3    165    bbb     C7   4969 0.21842400  12.010000   ; qtot 165.883326
 4970         h1    165    bbb    H13   4970 0.04500300   1.008000   ; qtot 165.928329
 4971         h1    165    bbb    H14   4971 0.04500300   1.008000   ; qtot 165.973332
 4972         c3    165    bbb     C8   4972 -0.06455200  12.010000   ; qtot 165.908780
 4973         h1    165    bbb    H15   4973 0.13554100   1.008000   ; qtot 166.044321
 4974         h1    165    bbb    H16   4974 0.13554100   1.008000   ; qtot 166.179862
 4975         c3    165    bbb     C9   4975 -0.06455200  12.010000   ; qtot 166.115310
 4976         h1    165    bbb    H17   4976 0.13554100   1.008000   ; qtot 166.250851
 4977         h1    165    bbb    H18   4977 0.13554100   1.008000   ; qtot 166.386392
 4978         os    165    bbb     O1   4978 -0.62587700  16.000000   ; qtot 165.760515
 4979         hn    165    bbb    H19   4979 0.23982500   1.008000   ; qtot 166.000340
; residue  166 bbb rtp bbb q 1.0
 4980         n4    166    bbb     N1   4980 0.03726400  14.010000   ; qtot 166.037604
 4981         c3    166    bbb     C1   4981 -0.07020100  12.010000   ; qtot 165.967403
 4982         hx    166    bbb     H1   4982 0.12219000   1.008000   ; qtot 166.089593
 4983         hx    166    bbb     H2   4983 0.12219000   1.008000   ; qtot 166.211783
 4984         c3    166    bbb     C2   4984 -0.07020100  12.010000   ; qtot 166.141582
 4985         hx    166    bbb     H3   4985 0.12219000   1.008000   ; qtot 166.263772
 4986         hx    166    bbb     H4   4986 0.12219000   1.008000   ; qtot 166.385962
 4987         c3    166    bbb     C3   4987 -0.39007700  12.010000   ; qtot 165.995885
 4988         hx    166    bbb     H5   4988 0.14940300   1.008000   ; qtot 166.145288
 4989         hx    166    bbb     H6   4989 0.14940300   1.008000   ; qtot 166.294691
 4990         c3    166    bbb     C4   4990 0.18057300  12.010000   ; qtot 166.475264
 4991         hc    166    bbb     H7   4991 0.01788900   1.008000   ; qtot 166.493153
 4992         hc    166    bbb     H8   4992 0.01788900   1.008000   ; qtot 166.511042
 4993         c3    166    bbb     C5   4993 -0.11337700  12.010000   ; qtot 166.397665
 4994         hc    166    bbb     H9   4994 0.09515400   1.008000   ; qtot 166.492819
 4995         hc    166    bbb    H10   4995 0.09515400   1.008000   ; qtot 166.587973
 4996         c3    166    bbb     C6   4996 -0.11337700  12.010000   ; qtot 166.474596
 4997         hc    166    bbb    H11   4997 0.09515400   1.008000   ; qtot 166.569750
 4998         hc    166    bbb    H12   4998 0.09515400   1.008000   ; qtot 166.664904
 4999         c3    166    bbb     C7   4999 0.21842400  12.010000   ; qtot 166.883328
 5000         h1    166    bbb    H13   5000 0.04500300   1.008000   ; qtot 166.928331
 5001         h1    166    bbb    H14   5001 0.04500300   1.008000   ; qtot 166.973334
 5002         c3    166    bbb     C8   5002 -0.06455200  12.010000   ; qtot 166.908782
 5003         h1    166    bbb    H15   5003 0.13554100   1.008000   ; qtot 167.044323
 5004         h1    166    bbb    H16   5004 0.13554100   1.008000   ; qtot 167.179864
 5005         c3    166    bbb     C9   5005 -0.06455200  12.010000   ; qtot 167.115312
 5006         h1    166    bbb    H17   5006 0.13554100   1.008000   ; qtot 167.250853
 5007         h1    166    bbb    H18   5007 0.13554100   1.008000   ; qtot 167.386394
 5008         os    166    bbb     O1   5008 -0.62587700  16.000000   ; qtot 166.760517
 5009         hn    166    bbb    H19   5009 0.23982500   1.008000   ; qtot 167.000342
; residue  167 bbb rtp bbb q 1.0
 5010         n4    167    bbb     N1   5010 0.03726400  14.010000   ; qtot 167.037606
 5011         c3    167    bbb     C1   5011 -0.07020100  12.010000   ; qtot 166.967405
 5012         hx    167    bbb     H1   5012 0.12219000   1.008000   ; qtot 167.089595
 5013         hx    167    bbb     H2   5013 0.12219000   1.008000   ; qtot 167.211785
 5014         c3    167    bbb     C2   5014 -0.07020100  12.010000   ; qtot 167.141584
 5015         hx    167    bbb     H3   5015 0.12219000   1.008000   ; qtot 167.263774
 5016         hx    167    bbb     H4   5016 0.12219000   1.008000   ; qtot 167.385964
 5017         c3    167    bbb     C3   5017 -0.39007700  12.010000   ; qtot 166.995887
 5018         hx    167    bbb     H5   5018 0.14940300   1.008000   ; qtot 167.145290
 5019         hx    167    bbb     H6   5019 0.14940300   1.008000   ; qtot 167.294693
 5020         c3    167    bbb     C4   5020 0.18057300  12.010000   ; qtot 167.475266
 5021         hc    167    bbb     H7   5021 0.01788900   1.008000   ; qtot 167.493155
 5022         hc    167    bbb     H8   5022 0.01788900   1.008000   ; qtot 167.511044
 5023         c3    167    bbb     C5   5023 -0.11337700  12.010000   ; qtot 167.397667
 5024         hc    167    bbb     H9   5024 0.09515400   1.008000   ; qtot 167.492821
 5025         hc    167    bbb    H10   5025 0.09515400   1.008000   ; qtot 167.587975
 5026         c3    167    bbb     C6   5026 -0.11337700  12.010000   ; qtot 167.474598
 5027         hc    167    bbb    H11   5027 0.09515400   1.008000   ; qtot 167.569752
 5028         hc    167    bbb    H12   5028 0.09515400   1.008000   ; qtot 167.664906
 5029         c3    167    bbb     C7   5029 0.21842400  12.010000   ; qtot 167.883330
 5030         h1    167    bbb    H13   5030 0.04500300   1.008000   ; qtot 167.928333
 5031         h1    167    bbb    H14   5031 0.04500300   1.008000   ; qtot 167.973336
 5032         c3    167    bbb     C8   5032 -0.06455200  12.010000   ; qtot 167.908784
 5033         h1    167    bbb    H15   5033 0.13554100   1.008000   ; qtot 168.044325
 5034         h1    167    bbb    H16   5034 0.13554100   1.008000   ; qtot 168.179866
 5035         c3    167    bbb     C9   5035 -0.06455200  12.010000   ; qtot 168.115314
 5036         h1    167    bbb    H17   5036 0.13554100   1.008000   ; qtot 168.250855
 5037         h1    167    bbb    H18   5037 0.13554100   1.008000   ; qtot 168.386396
 5038         os    167    bbb     O1   5038 -0.62587700  16.000000   ; qtot 167.760519
 5039         hn    167    bbb    H19   5039 0.23982500   1.008000   ; qtot 168.000344
; residue  168 bbb rtp bbb q 1.0
 5040         n4    168    bbb     N1   5040 0.03726400  14.010000   ; qtot 168.037608
 5041         c3    168    bbb     C1   5041 -0.07020100  12.010000   ; qtot 167.967407
 5042         hx    168    bbb     H1   5042 0.12219000   1.008000   ; qtot 168.089597
 5043         hx    168    bbb     H2   5043 0.12219000   1.008000   ; qtot 168.211787
 5044         c3    168    bbb     C2   5044 -0.07020100  12.010000   ; qtot 168.141586
 5045         hx    168    bbb     H3   5045 0.12219000   1.008000   ; qtot 168.263776
 5046         hx    168    bbb     H4   5046 0.12219000   1.008000   ; qtot 168.385966
 5047         c3    168    bbb     C3   5047 -0.39007700  12.010000   ; qtot 167.995889
 5048         hx    168    bbb     H5   5048 0.14940300   1.008000   ; qtot 168.145292
 5049         hx    168    bbb     H6   5049 0.14940300   1.008000   ; qtot 168.294695
 5050         c3    168    bbb     C4   5050 0.18057300  12.010000   ; qtot 168.475268
 5051         hc    168    bbb     H7   5051 0.01788900   1.008000   ; qtot 168.493157
 5052         hc    168    bbb     H8   5052 0.01788900   1.008000   ; qtot 168.511046
 5053         c3    168    bbb     C5   5053 -0.11337700  12.010000   ; qtot 168.397669
 5054         hc    168    bbb     H9   5054 0.09515400   1.008000   ; qtot 168.492823
 5055         hc    168    bbb    H10   5055 0.09515400   1.008000   ; qtot 168.587977
 5056         c3    168    bbb     C6   5056 -0.11337700  12.010000   ; qtot 168.474600
 5057         hc    168    bbb    H11   5057 0.09515400   1.008000   ; qtot 168.569754
 5058         hc    168    bbb    H12   5058 0.09515400   1.008000   ; qtot 168.664908
 5059         c3    168    bbb     C7   5059 0.21842400  12.010000   ; qtot 168.883332
 5060         h1    168    bbb    H13   5060 0.04500300   1.008000   ; qtot 168.928335
 5061         h1    168    bbb    H14   5061 0.04500300   1.008000   ; qtot 168.973338
 5062         c3    168    bbb     C8   5062 -0.06455200  12.010000   ; qtot 168.908786
 5063         h1    168    bbb    H15   5063 0.13554100   1.008000   ; qtot 169.044327
 5064         h1    168    bbb    H16   5064 0.13554100   1.008000   ; qtot 169.179868
 5065         c3    168    bbb     C9   5065 -0.06455200  12.010000   ; qtot 169.115316
 5066         h1    168    bbb    H17   5066 0.13554100   1.008000   ; qtot 169.250857
 5067         h1    168    bbb    H18   5067 0.13554100   1.008000   ; qtot 169.386398
 5068         os    168    bbb     O1   5068 -0.62587700  16.000000   ; qtot 168.760521
 5069         hn    168    bbb    H19   5069 0.23982500   1.008000   ; qtot 169.000346
; residue  169 bbb rtp bbb q 1.0
 5070         n4    169    bbb     N1   5070 0.03726400  14.010000   ; qtot 169.037610
 5071         c3    169    bbb     C1   5071 -0.07020100  12.010000   ; qtot 168.967409
 5072         hx    169    bbb     H1   5072 0.12219000   1.008000   ; qtot 169.089599
 5073         hx    169    bbb     H2   5073 0.12219000   1.008000   ; qtot 169.211789
 5074         c3    169    bbb     C2   5074 -0.07020100  12.010000   ; qtot 169.141588
 5075         hx    169    bbb     H3   5075 0.12219000   1.008000   ; qtot 169.263778
 5076         hx    169    bbb     H4   5076 0.12219000   1.008000   ; qtot 169.385968
 5077         c3    169    bbb     C3   5077 -0.39007700  12.010000   ; qtot 168.995891
 5078         hx    169    bbb     H5   5078 0.14940300   1.008000   ; qtot 169.145294
 5079         hx    169    bbb     H6   5079 0.14940300   1.008000   ; qtot 169.294697
 5080         c3    169    bbb     C4   5080 0.18057300  12.010000   ; qtot 169.475270
 5081         hc    169    bbb     H7   5081 0.01788900   1.008000   ; qtot 169.493159
 5082         hc    169    bbb     H8   5082 0.01788900   1.008000   ; qtot 169.511048
 5083         c3    169    bbb     C5   5083 -0.11337700  12.010000   ; qtot 169.397671
 5084         hc    169    bbb     H9   5084 0.09515400   1.008000   ; qtot 169.492825
 5085         hc    169    bbb    H10   5085 0.09515400   1.008000   ; qtot 169.587979
 5086         c3    169    bbb     C6   5086 -0.11337700  12.010000   ; qtot 169.474602
 5087         hc    169    bbb    H11   5087 0.09515400   1.008000   ; qtot 169.569756
 5088         hc    169    bbb    H12   5088 0.09515400   1.008000   ; qtot 169.664910
 5089         c3    169    bbb     C7   5089 0.21842400  12.010000   ; qtot 169.883334
 5090         h1    169    bbb    H13   5090 0.04500300   1.008000   ; qtot 169.928337
 5091         h1    169    bbb    H14   5091 0.04500300   1.008000   ; qtot 169.973340
 5092         c3    169    bbb     C8   5092 -0.06455200  12.010000   ; qtot 169.908788
 5093         h1    169    bbb    H15   5093 0.13554100   1.008000   ; qtot 170.044329
 5094         h1    169    bbb    H16   5094 0.13554100   1.008000   ; qtot 170.179870
 5095         c3    169    bbb     C9   5095 -0.06455200  12.010000   ; qtot 170.115318
 5096         h1    169    bbb    H17   5096 0.13554100   1.008000   ; qtot 170.250859
 5097         h1    169    bbb    H18   5097 0.13554100   1.008000   ; qtot 170.386400
 5098         os    169    bbb     O1   5098 -0.62587700  16.000000   ; qtot 169.760523
 5099         hn    169    bbb    H19   5099 0.23982500   1.008000   ; qtot 170.000348
; residue  170 bbb rtp bbb q 1.0
 5100         n4    170    bbb     N1   5100 0.03726400  14.010000   ; qtot 170.037612
 5101         c3    170    bbb     C1   5101 -0.07020100  12.010000   ; qtot 169.967411
 5102         hx    170    bbb     H1   5102 0.12219000   1.008000   ; qtot 170.089601
 5103         hx    170    bbb     H2   5103 0.12219000   1.008000   ; qtot 170.211791
 5104         c3    170    bbb     C2   5104 -0.07020100  12.010000   ; qtot 170.141590
 5105         hx    170    bbb     H3   5105 0.12219000   1.008000   ; qtot 170.263780
 5106         hx    170    bbb     H4   5106 0.12219000   1.008000   ; qtot 170.385970
 5107         c3    170    bbb     C3   5107 -0.39007700  12.010000   ; qtot 169.995893
 5108         hx    170    bbb     H5   5108 0.14940300   1.008000   ; qtot 170.145296
 5109         hx    170    bbb     H6   5109 0.14940300   1.008000   ; qtot 170.294699
 5110         c3    170    bbb     C4   5110 0.18057300  12.010000   ; qtot 170.475272
 5111         hc    170    bbb     H7   5111 0.01788900   1.008000   ; qtot 170.493161
 5112         hc    170    bbb     H8   5112 0.01788900   1.008000   ; qtot 170.511050
 5113         c3    170    bbb     C5   5113 -0.11337700  12.010000   ; qtot 170.397673
 5114         hc    170    bbb     H9   5114 0.09515400   1.008000   ; qtot 170.492827
 5115         hc    170    bbb    H10   5115 0.09515400   1.008000   ; qtot 170.587981
 5116         c3    170    bbb     C6   5116 -0.11337700  12.010000   ; qtot 170.474604
 5117         hc    170    bbb    H11   5117 0.09515400   1.008000   ; qtot 170.569758
 5118         hc    170    bbb    H12   5118 0.09515400   1.008000   ; qtot 170.664912
 5119         c3    170    bbb     C7   5119 0.21842400  12.010000   ; qtot 170.883336
 5120         h1    170    bbb    H13   5120 0.04500300   1.008000   ; qtot 170.928339
 5121         h1    170    bbb    H14   5121 0.04500300   1.008000   ; qtot 170.973342
 5122         c3    170    bbb     C8   5122 -0.06455200  12.010000   ; qtot 170.908790
 5123         h1    170    bbb    H15   5123 0.13554100   1.008000   ; qtot 171.044331
 5124         h1    170    bbb    H16   5124 0.13554100   1.008000   ; qtot 171.179872
 5125         c3    170    bbb     C9   5125 -0.06455200  12.010000   ; qtot 171.115320
 5126         h1    170    bbb    H17   5126 0.13554100   1.008000   ; qtot 171.250861
 5127         h1    170    bbb    H18   5127 0.13554100   1.008000   ; qtot 171.386402
 5128         os    170    bbb     O1   5128 -0.62587700  16.000000   ; qtot 170.760525
 5129         hn    170    bbb    H19   5129 0.23982500   1.008000   ; qtot 171.000350
; residue  171 bbb rtp bbb q 1.0
 5130         n4    171    bbb     N1   5130 0.03726400  14.010000   ; qtot 171.037614
 5131         c3    171    bbb     C1   5131 -0.07020100  12.010000   ; qtot 170.967413
 5132         hx    171    bbb     H1   5132 0.12219000   1.008000   ; qtot 171.089603
 5133         hx    171    bbb     H2   5133 0.12219000   1.008000   ; qtot 171.211793
 5134         c3    171    bbb     C2   5134 -0.07020100  12.010000   ; qtot 171.141592
 5135         hx    171    bbb     H3   5135 0.12219000   1.008000   ; qtot 171.263782
 5136         hx    171    bbb     H4   5136 0.12219000   1.008000   ; qtot 171.385972
 5137         c3    171    bbb     C3   5137 -0.39007700  12.010000   ; qtot 170.995895
 5138         hx    171    bbb     H5   5138 0.14940300   1.008000   ; qtot 171.145298
 5139         hx    171    bbb     H6   5139 0.14940300   1.008000   ; qtot 171.294701
 5140         c3    171    bbb     C4   5140 0.18057300  12.010000   ; qtot 171.475274
 5141         hc    171    bbb     H7   5141 0.01788900   1.008000   ; qtot 171.493163
 5142         hc    171    bbb     H8   5142 0.01788900   1.008000   ; qtot 171.511052
 5143         c3    171    bbb     C5   5143 -0.11337700  12.010000   ; qtot 171.397675
 5144         hc    171    bbb     H9   5144 0.09515400   1.008000   ; qtot 171.492829
 5145         hc    171    bbb    H10   5145 0.09515400   1.008000   ; qtot 171.587983
 5146         c3    171    bbb     C6   5146 -0.11337700  12.010000   ; qtot 171.474606
 5147         hc    171    bbb    H11   5147 0.09515400   1.008000   ; qtot 171.569760
 5148         hc    171    bbb    H12   5148 0.09515400   1.008000   ; qtot 171.664914
 5149         c3    171    bbb     C7   5149 0.21842400  12.010000   ; qtot 171.883338
 5150         h1    171    bbb    H13   5150 0.04500300   1.008000   ; qtot 171.928341
 5151         h1    171    bbb    H14   5151 0.04500300   1.008000   ; qtot 171.973344
 5152         c3    171    bbb     C8   5152 -0.06455200  12.010000   ; qtot 171.908792
 5153         h1    171    bbb    H15   5153 0.13554100   1.008000   ; qtot 172.044333
 5154         h1    171    bbb    H16   5154 0.13554100   1.008000   ; qtot 172.179874
 5155         c3    171    bbb     C9   5155 -0.06455200  12.010000   ; qtot 172.115322
 5156         h1    171    bbb    H17   5156 0.13554100   1.008000   ; qtot 172.250863
 5157         h1    171    bbb    H18   5157 0.13554100   1.008000   ; qtot 172.386404
 5158         os    171    bbb     O1   5158 -0.62587700  16.000000   ; qtot 171.760526
 5159         hn    171    bbb    H19   5159 0.23982500   1.008000   ; qtot 172.000351
; residue  172 bbb rtp bbb q 1.0
 5160         n4    172    bbb     N1   5160 0.03726400  14.010000   ; qtot 172.037615
 5161         c3    172    bbb     C1   5161 -0.07020100  12.010000   ; qtot 171.967415
 5162         hx    172    bbb     H1   5162 0.12219000   1.008000   ; qtot 172.089605
 5163         hx    172    bbb     H2   5163 0.12219000   1.008000   ; qtot 172.211795
 5164         c3    172    bbb     C2   5164 -0.07020100  12.010000   ; qtot 172.141594
 5165         hx    172    bbb     H3   5165 0.12219000   1.008000   ; qtot 172.263784
 5166         hx    172    bbb     H4   5166 0.12219000   1.008000   ; qtot 172.385974
 5167         c3    172    bbb     C3   5167 -0.39007700  12.010000   ; qtot 171.995897
 5168         hx    172    bbb     H5   5168 0.14940300   1.008000   ; qtot 172.145300
 5169         hx    172    bbb     H6   5169 0.14940300   1.008000   ; qtot 172.294703
 5170         c3    172    bbb     C4   5170 0.18057300  12.010000   ; qtot 172.475276
 5171         hc    172    bbb     H7   5171 0.01788900   1.008000   ; qtot 172.493165
 5172         hc    172    bbb     H8   5172 0.01788900   1.008000   ; qtot 172.511054
 5173         c3    172    bbb     C5   5173 -0.11337700  12.010000   ; qtot 172.397677
 5174         hc    172    bbb     H9   5174 0.09515400   1.008000   ; qtot 172.492831
 5175         hc    172    bbb    H10   5175 0.09515400   1.008000   ; qtot 172.587985
 5176         c3    172    bbb     C6   5176 -0.11337700  12.010000   ; qtot 172.474608
 5177         hc    172    bbb    H11   5177 0.09515400   1.008000   ; qtot 172.569762
 5178         hc    172    bbb    H12   5178 0.09515400   1.008000   ; qtot 172.664915
 5179         c3    172    bbb     C7   5179 0.21842400  12.010000   ; qtot 172.883340
 5180         h1    172    bbb    H13   5180 0.04500300   1.008000   ; qtot 172.928343
 5181         h1    172    bbb    H14   5181 0.04500300   1.008000   ; qtot 172.973346
 5182         c3    172    bbb     C8   5182 -0.06455200  12.010000   ; qtot 172.908794
 5183         h1    172    bbb    H15   5183 0.13554100   1.008000   ; qtot 173.044334
 5184         h1    172    bbb    H16   5184 0.13554100   1.008000   ; qtot 173.179875
 5185         c3    172    bbb     C9   5185 -0.06455200  12.010000   ; qtot 173.115323
 5186         h1    172    bbb    H17   5186 0.13554100   1.008000   ; qtot 173.250864
 5187         h1    172    bbb    H18   5187 0.13554100   1.008000   ; qtot 173.386405
 5188         os    172    bbb     O1   5188 -0.62587700  16.000000   ; qtot 172.760528
 5189         hn    172    bbb    H19   5189 0.23982500   1.008000   ; qtot 173.000353
; residue  173 bbb rtp bbb q 1.0
 5190         n4    173    bbb     N1   5190 0.03726400  14.010000   ; qtot 173.037617
 5191         c3    173    bbb     C1   5191 -0.07020100  12.010000   ; qtot 172.967416
 5192         hx    173    bbb     H1   5192 0.12219000   1.008000   ; qtot 173.089606
 5193         hx    173    bbb     H2   5193 0.12219000   1.008000   ; qtot 173.211796
 5194         c3    173    bbb     C2   5194 -0.07020100  12.010000   ; qtot 173.141595
 5195         hx    173    bbb     H3   5195 0.12219000   1.008000   ; qtot 173.263785
 5196         hx    173    bbb     H4   5196 0.12219000   1.008000   ; qtot 173.385975
 5197         c3    173    bbb     C3   5197 -0.39007700  12.010000   ; qtot 172.995898
 5198         hx    173    bbb     H5   5198 0.14940300   1.008000   ; qtot 173.145301
 5199         hx    173    bbb     H6   5199 0.14940300   1.008000   ; qtot 173.294704
 5200         c3    173    bbb     C4   5200 0.18057300  12.010000   ; qtot 173.475277
 5201         hc    173    bbb     H7   5201 0.01788900   1.008000   ; qtot 173.493166
 5202         hc    173    bbb     H8   5202 0.01788900   1.008000   ; qtot 173.511055
 5203         c3    173    bbb     C5   5203 -0.11337700  12.010000   ; qtot 173.397678
 5204         hc    173    bbb     H9   5204 0.09515400   1.008000   ; qtot 173.492832
 5205         hc    173    bbb    H10   5205 0.09515400   1.008000   ; qtot 173.587986
 5206         c3    173    bbb     C6   5206 -0.11337700  12.010000   ; qtot 173.474609
 5207         hc    173    bbb    H11   5207 0.09515400   1.008000   ; qtot 173.569763
 5208         hc    173    bbb    H12   5208 0.09515400   1.008000   ; qtot 173.664917
 5209         c3    173    bbb     C7   5209 0.21842400  12.010000   ; qtot 173.883341
 5210         h1    173    bbb    H13   5210 0.04500300   1.008000   ; qtot 173.928344
 5211         h1    173    bbb    H14   5211 0.04500300   1.008000   ; qtot 173.973347
 5212         c3    173    bbb     C8   5212 -0.06455200  12.010000   ; qtot 173.908795
 5213         h1    173    bbb    H15   5213 0.13554100   1.008000   ; qtot 174.044336
 5214         h1    173    bbb    H16   5214 0.13554100   1.008000   ; qtot 174.179877
 5215         c3    173    bbb     C9   5215 -0.06455200  12.010000   ; qtot 174.115325
 5216         h1    173    bbb    H17   5216 0.13554100   1.008000   ; qtot 174.250866
 5217         h1    173    bbb    H18   5217 0.13554100   1.008000   ; qtot 174.386407
 5218         os    173    bbb     O1   5218 -0.62587700  16.000000   ; qtot 173.760530
 5219         hn    173    bbb    H19   5219 0.23982500   1.008000   ; qtot 174.000355
; residue  174 bbb rtp bbb q 1.0
 5220         n4    174    bbb     N1   5220 0.03726400  14.010000   ; qtot 174.037619
 5221         c3    174    bbb     C1   5221 -0.07020100  12.010000   ; qtot 173.967418
 5222         hx    174    bbb     H1   5222 0.12219000   1.008000   ; qtot 174.089608
 5223         hx    174    bbb     H2   5223 0.12219000   1.008000   ; qtot 174.211798
 5224         c3    174    bbb     C2   5224 -0.07020100  12.010000   ; qtot 174.141597
 5225         hx    174    bbb     H3   5225 0.12219000   1.008000   ; qtot 174.263787
 5226         hx    174    bbb     H4   5226 0.12219000   1.008000   ; qtot 174.385977
 5227         c3    174    bbb     C3   5227 -0.39007700  12.010000   ; qtot 173.995900
 5228         hx    174    bbb     H5   5228 0.14940300   1.008000   ; qtot 174.145303
 5229         hx    174    bbb     H6   5229 0.14940300   1.008000   ; qtot 174.294706
 5230         c3    174    bbb     C4   5230 0.18057300  12.010000   ; qtot 174.475279
 5231         hc    174    bbb     H7   5231 0.01788900   1.008000   ; qtot 174.493168
 5232         hc    174    bbb     H8   5232 0.01788900   1.008000   ; qtot 174.511057
 5233         c3    174    bbb     C5   5233 -0.11337700  12.010000   ; qtot 174.397680
 5234         hc    174    bbb     H9   5234 0.09515400   1.008000   ; qtot 174.492834
 5235         hc    174    bbb    H10   5235 0.09515400   1.008000   ; qtot 174.587988
 5236         c3    174    bbb     C6   5236 -0.11337700  12.010000   ; qtot 174.474611
 5237         hc    174    bbb    H11   5237 0.09515400   1.008000   ; qtot 174.569765
 5238         hc    174    bbb    H12   5238 0.09515400   1.008000   ; qtot 174.664919
 5239         c3    174    bbb     C7   5239 0.21842400  12.010000   ; qtot 174.883343
 5240         h1    174    bbb    H13   5240 0.04500300   1.008000   ; qtot 174.928346
 5241         h1    174    bbb    H14   5241 0.04500300   1.008000   ; qtot 174.973349
 5242         c3    174    bbb     C8   5242 -0.06455200  12.010000   ; qtot 174.908797
 5243         h1    174    bbb    H15   5243 0.13554100   1.008000   ; qtot 175.044338
 5244         h1    174    bbb    H16   5244 0.13554100   1.008000   ; qtot 175.179879
 5245         c3    174    bbb     C9   5245 -0.06455200  12.010000   ; qtot 175.115327
 5246         h1    174    bbb    H17   5246 0.13554100   1.008000   ; qtot 175.250868
 5247         h1    174    bbb    H18   5247 0.13554100   1.008000   ; qtot 175.386409
 5248         os    174    bbb     O1   5248 -0.62587700  16.000000   ; qtot 174.760532
 5249         hn    174    bbb    H19   5249 0.23982500   1.008000   ; qtot 175.000357
; residue  175 bbb rtp bbb q 1.0
 5250         n4    175    bbb     N1   5250 0.03726400  14.010000   ; qtot 175.037621
 5251         c3    175    bbb     C1   5251 -0.07020100  12.010000   ; qtot 174.967420
 5252         hx    175    bbb     H1   5252 0.12219000   1.008000   ; qtot 175.089610
 5253         hx    175    bbb     H2   5253 0.12219000   1.008000   ; qtot 175.211800
 5254         c3    175    bbb     C2   5254 -0.07020100  12.010000   ; qtot 175.141599
 5255         hx    175    bbb     H3   5255 0.12219000   1.008000   ; qtot 175.263789
 5256         hx    175    bbb     H4   5256 0.12219000   1.008000   ; qtot 175.385979
 5257         c3    175    bbb     C3   5257 -0.39007700  12.010000   ; qtot 174.995902
 5258         hx    175    bbb     H5   5258 0.14940300   1.008000   ; qtot 175.145305
 5259         hx    175    bbb     H6   5259 0.14940300   1.008000   ; qtot 175.294708
 5260         c3    175    bbb     C4   5260 0.18057300  12.010000   ; qtot 175.475281
 5261         hc    175    bbb     H7   5261 0.01788900   1.008000   ; qtot 175.493170
 5262         hc    175    bbb     H8   5262 0.01788900   1.008000   ; qtot 175.511059
 5263         c3    175    bbb     C5   5263 -0.11337700  12.010000   ; qtot 175.397682
 5264         hc    175    bbb     H9   5264 0.09515400   1.008000   ; qtot 175.492836
 5265         hc    175    bbb    H10   5265 0.09515400   1.008000   ; qtot 175.587990
 5266         c3    175    bbb     C6   5266 -0.11337700  12.010000   ; qtot 175.474613
 5267         hc    175    bbb    H11   5267 0.09515400   1.008000   ; qtot 175.569767
 5268         hc    175    bbb    H12   5268 0.09515400   1.008000   ; qtot 175.664921
 5269         c3    175    bbb     C7   5269 0.21842400  12.010000   ; qtot 175.883345
 5270         h1    175    bbb    H13   5270 0.04500300   1.008000   ; qtot 175.928348
 5271         h1    175    bbb    H14   5271 0.04500300   1.008000   ; qtot 175.973351
 5272         c3    175    bbb     C8   5272 -0.06455200  12.010000   ; qtot 175.908799
 5273         h1    175    bbb    H15   5273 0.13554100   1.008000   ; qtot 176.044340
 5274         h1    175    bbb    H16   5274 0.13554100   1.008000   ; qtot 176.179881
 5275         c3    175    bbb     C9   5275 -0.06455200  12.010000   ; qtot 176.115329
 5276         h1    175    bbb    H17   5276 0.13554100   1.008000   ; qtot 176.250870
 5277         h1    175    bbb    H18   5277 0.13554100   1.008000   ; qtot 176.386411
 5278         os    175    bbb     O1   5278 -0.62587700  16.000000   ; qtot 175.760534
 5279         hn    175    bbb    H19   5279 0.23982500   1.008000   ; qtot 176.000359
; residue  176 bbb rtp bbb q 1.0
 5280         n4    176    bbb     N1   5280 0.03726400  14.010000   ; qtot 176.037623
 5281         c3    176    bbb     C1   5281 -0.07020100  12.010000   ; qtot 175.967422
 5282         hx    176    bbb     H1   5282 0.12219000   1.008000   ; qtot 176.089612
 5283         hx    176    bbb     H2   5283 0.12219000   1.008000   ; qtot 176.211802
 5284         c3    176    bbb     C2   5284 -0.07020100  12.010000   ; qtot 176.141601
 5285         hx    176    bbb     H3   5285 0.12219000   1.008000   ; qtot 176.263791
 5286         hx    176    bbb     H4   5286 0.12219000   1.008000   ; qtot 176.385981
 5287         c3    176    bbb     C3   5287 -0.39007700  12.010000   ; qtot 175.995904
 5288         hx    176    bbb     H5   5288 0.14940300   1.008000   ; qtot 176.145307
 5289         hx    176    bbb     H6   5289 0.14940300   1.008000   ; qtot 176.294710
 5290         c3    176    bbb     C4   5290 0.18057300  12.010000   ; qtot 176.475283
 5291         hc    176    bbb     H7   5291 0.01788900   1.008000   ; qtot 176.493172
 5292         hc    176    bbb     H8   5292 0.01788900   1.008000   ; qtot 176.511061
 5293         c3    176    bbb     C5   5293 -0.11337700  12.010000   ; qtot 176.397684
 5294         hc    176    bbb     H9   5294 0.09515400   1.008000   ; qtot 176.492838
 5295         hc    176    bbb    H10   5295 0.09515400   1.008000   ; qtot 176.587992
 5296         c3    176    bbb     C6   5296 -0.11337700  12.010000   ; qtot 176.474615
 5297         hc    176    bbb    H11   5297 0.09515400   1.008000   ; qtot 176.569769
 5298         hc    176    bbb    H12   5298 0.09515400   1.008000   ; qtot 176.664923
 5299         c3    176    bbb     C7   5299 0.21842400  12.010000   ; qtot 176.883347
 5300         h1    176    bbb    H13   5300 0.04500300   1.008000   ; qtot 176.928350
 5301         h1    176    bbb    H14   5301 0.04500300   1.008000   ; qtot 176.973353
 5302         c3    176    bbb     C8   5302 -0.06455200  12.010000   ; qtot 176.908801
 5303         h1    176    bbb    H15   5303 0.13554100   1.008000   ; qtot 177.044342
 5304         h1    176    bbb    H16   5304 0.13554100   1.008000   ; qtot 177.179883
 5305         c3    176    bbb     C9   5305 -0.06455200  12.010000   ; qtot 177.115331
 5306         h1    176    bbb    H17   5306 0.13554100   1.008000   ; qtot 177.250872
 5307         h1    176    bbb    H18   5307 0.13554100   1.008000   ; qtot 177.386413
 5308         os    176    bbb     O1   5308 -0.62587700  16.000000   ; qtot 176.760536
 5309         hn    176    bbb    H19   5309 0.23982500   1.008000   ; qtot 177.000361
; residue  177 bbb rtp bbb q 1.0
 5310         n4    177    bbb     N1   5310 0.03726400  14.010000   ; qtot 177.037625
 5311         c3    177    bbb     C1   5311 -0.07020100  12.010000   ; qtot 176.967424
 5312         hx    177    bbb     H1   5312 0.12219000   1.008000   ; qtot 177.089614
 5313         hx    177    bbb     H2   5313 0.12219000   1.008000   ; qtot 177.211804
 5314         c3    177    bbb     C2   5314 -0.07020100  12.010000   ; qtot 177.141603
 5315         hx    177    bbb     H3   5315 0.12219000   1.008000   ; qtot 177.263793
 5316         hx    177    bbb     H4   5316 0.12219000   1.008000   ; qtot 177.385983
 5317         c3    177    bbb     C3   5317 -0.39007700  12.010000   ; qtot 176.995906
 5318         hx    177    bbb     H5   5318 0.14940300   1.008000   ; qtot 177.145309
 5319         hx    177    bbb     H6   5319 0.14940300   1.008000   ; qtot 177.294712
 5320         c3    177    bbb     C4   5320 0.18057300  12.010000   ; qtot 177.475285
 5321         hc    177    bbb     H7   5321 0.01788900   1.008000   ; qtot 177.493174
 5322         hc    177    bbb     H8   5322 0.01788900   1.008000   ; qtot 177.511063
 5323         c3    177    bbb     C5   5323 -0.11337700  12.010000   ; qtot 177.397686
 5324         hc    177    bbb     H9   5324 0.09515400   1.008000   ; qtot 177.492840
 5325         hc    177    bbb    H10   5325 0.09515400   1.008000   ; qtot 177.587994
 5326         c3    177    bbb     C6   5326 -0.11337700  12.010000   ; qtot 177.474617
 5327         hc    177    bbb    H11   5327 0.09515400   1.008000   ; qtot 177.569771
 5328         hc    177    bbb    H12   5328 0.09515400   1.008000   ; qtot 177.664925
 5329         c3    177    bbb     C7   5329 0.21842400  12.010000   ; qtot 177.883349
 5330         h1    177    bbb    H13   5330 0.04500300   1.008000   ; qtot 177.928352
 5331         h1    177    bbb    H14   5331 0.04500300   1.008000   ; qtot 177.973355
 5332         c3    177    bbb     C8   5332 -0.06455200  12.010000   ; qtot 177.908803
 5333         h1    177    bbb    H15   5333 0.13554100   1.008000   ; qtot 178.044344
 5334         h1    177    bbb    H16   5334 0.13554100   1.008000   ; qtot 178.179885
 5335         c3    177    bbb     C9   5335 -0.06455200  12.010000   ; qtot 178.115333
 5336         h1    177    bbb    H17   5336 0.13554100   1.008000   ; qtot 178.250874
 5337         h1    177    bbb    H18   5337 0.13554100   1.008000   ; qtot 178.386415
 5338         os    177    bbb     O1   5338 -0.62587700  16.000000   ; qtot 177.760538
 5339         hn    177    bbb    H19   5339 0.23982500   1.008000   ; qtot 178.000363
; residue  178 bbb rtp bbb q 1.0
 5340         n4    178    bbb     N1   5340 0.03726400  14.010000   ; qtot 178.037627
 5341         c3    178    bbb     C1   5341 -0.07020100  12.010000   ; qtot 177.967426
 5342         hx    178    bbb     H1   5342 0.12219000   1.008000   ; qtot 178.089616
 5343         hx    178    bbb     H2   5343 0.12219000   1.008000   ; qtot 178.211806
 5344         c3    178    bbb     C2   5344 -0.07020100  12.010000   ; qtot 178.141605
 5345         hx    178    bbb     H3   5345 0.12219000   1.008000   ; qtot 178.263795
 5346         hx    178    bbb     H4   5346 0.12219000   1.008000   ; qtot 178.385985
 5347         c3    178    bbb     C3   5347 -0.39007700  12.010000   ; qtot 177.995908
 5348         hx    178    bbb     H5   5348 0.14940300   1.008000   ; qtot 178.145311
 5349         hx    178    bbb     H6   5349 0.14940300   1.008000   ; qtot 178.294714
 5350         c3    178    bbb     C4   5350 0.18057300  12.010000   ; qtot 178.475287
 5351         hc    178    bbb     H7   5351 0.01788900   1.008000   ; qtot 178.493176
 5352         hc    178    bbb     H8   5352 0.01788900   1.008000   ; qtot 178.511065
 5353         c3    178    bbb     C5   5353 -0.11337700  12.010000   ; qtot 178.397688
 5354         hc    178    bbb     H9   5354 0.09515400   1.008000   ; qtot 178.492842
 5355         hc    178    bbb    H10   5355 0.09515400   1.008000   ; qtot 178.587996
 5356         c3    178    bbb     C6   5356 -0.11337700  12.010000   ; qtot 178.474619
 5357         hc    178    bbb    H11   5357 0.09515400   1.008000   ; qtot 178.569773
 5358         hc    178    bbb    H12   5358 0.09515400   1.008000   ; qtot 178.664927
 5359         c3    178    bbb     C7   5359 0.21842400  12.010000   ; qtot 178.883351
 5360         h1    178    bbb    H13   5360 0.04500300   1.008000   ; qtot 178.928354
 5361         h1    178    bbb    H14   5361 0.04500300   1.008000   ; qtot 178.973357
 5362         c3    178    bbb     C8   5362 -0.06455200  12.010000   ; qtot 178.908805
 5363         h1    178    bbb    H15   5363 0.13554100   1.008000   ; qtot 179.044346
 5364         h1    178    bbb    H16   5364 0.13554100   1.008000   ; qtot 179.179887
 5365         c3    178    bbb     C9   5365 -0.06455200  12.010000   ; qtot 179.115335
 5366         h1    178    bbb    H17   5366 0.13554100   1.008000   ; qtot 179.250876
 5367         h1    178    bbb    H18   5367 0.13554100   1.008000   ; qtot 179.386417
 5368         os    178    bbb     O1   5368 -0.62587700  16.000000   ; qtot 178.760540
 5369         hn    178    bbb    H19   5369 0.23982500   1.008000   ; qtot 179.000365
; residue  179 bbb rtp bbb q 1.0
 5370         n4    179    bbb     N1   5370 0.03726400  14.010000   ; qtot 179.037629
 5371         c3    179    bbb     C1   5371 -0.07020100  12.010000   ; qtot 178.967428
 5372         hx    179    bbb     H1   5372 0.12219000   1.008000   ; qtot 179.089618
 5373         hx    179    bbb     H2   5373 0.12219000   1.008000   ; qtot 179.211808
 5374         c3    179    bbb     C2   5374 -0.07020100  12.010000   ; qtot 179.141607
 5375         hx    179    bbb     H3   5375 0.12219000   1.008000   ; qtot 179.263797
 5376         hx    179    bbb     H4   5376 0.12219000   1.008000   ; qtot 179.385987
 5377         c3    179    bbb     C3   5377 -0.39007700  12.010000   ; qtot 178.995910
 5378         hx    179    bbb     H5   5378 0.14940300   1.008000   ; qtot 179.145313
 5379         hx    179    bbb     H6   5379 0.14940300   1.008000   ; qtot 179.294716
 5380         c3    179    bbb     C4   5380 0.18057300  12.010000   ; qtot 179.475289
 5381         hc    179    bbb     H7   5381 0.01788900   1.008000   ; qtot 179.493178
 5382         hc    179    bbb     H8   5382 0.01788900   1.008000   ; qtot 179.511067
 5383         c3    179    bbb     C5   5383 -0.11337700  12.010000   ; qtot 179.397690
 5384         hc    179    bbb     H9   5384 0.09515400   1.008000   ; qtot 179.492844
 5385         hc    179    bbb    H10   5385 0.09515400   1.008000   ; qtot 179.587998
 5386         c3    179    bbb     C6   5386 -0.11337700  12.010000   ; qtot 179.474621
 5387         hc    179    bbb    H11   5387 0.09515400   1.008000   ; qtot 179.569775
 5388         hc    179    bbb    H12   5388 0.09515400   1.008000   ; qtot 179.664929
 5389         c3    179    bbb     C7   5389 0.21842400  12.010000   ; qtot 179.883353
 5390         h1    179    bbb    H13   5390 0.04500300   1.008000   ; qtot 179.928356
 5391         h1    179    bbb    H14   5391 0.04500300   1.008000   ; qtot 179.973359
 5392         c3    179    bbb     C8   5392 -0.06455200  12.010000   ; qtot 179.908807
 5393         h1    179    bbb    H15   5393 0.13554100   1.008000   ; qtot 180.044348
 5394         h1    179    bbb    H16   5394 0.13554100   1.008000   ; qtot 180.179889
 5395         c3    179    bbb     C9   5395 -0.06455200  12.010000   ; qtot 180.115337
 5396         h1    179    bbb    H17   5396 0.13554100   1.008000   ; qtot 180.250878
 5397         h1    179    bbb    H18   5397 0.13554100   1.008000   ; qtot 180.386419
 5398         os    179    bbb     O1   5398 -0.62587700  16.000000   ; qtot 179.760542
 5399         hn    179    bbb    H19   5399 0.23982500   1.008000   ; qtot 180.000367
; residue  180 bbb rtp bbb q 1.0
 5400         n4    180    bbb     N1   5400 0.03726400  14.010000   ; qtot 180.037631
 5401         c3    180    bbb     C1   5401 -0.07020100  12.010000   ; qtot 179.967430
 5402         hx    180    bbb     H1   5402 0.12219000   1.008000   ; qtot 180.089620
 5403         hx    180    bbb     H2   5403 0.12219000   1.008000   ; qtot 180.211810
 5404         c3    180    bbb     C2   5404 -0.07020100  12.010000   ; qtot 180.141609
 5405         hx    180    bbb     H3   5405 0.12219000   1.008000   ; qtot 180.263799
 5406         hx    180    bbb     H4   5406 0.12219000   1.008000   ; qtot 180.385989
 5407         c3    180    bbb     C3   5407 -0.39007700  12.010000   ; qtot 179.995912
 5408         hx    180    bbb     H5   5408 0.14940300   1.008000   ; qtot 180.145315
 5409         hx    180    bbb     H6   5409 0.14940300   1.008000   ; qtot 180.294718
 5410         c3    180    bbb     C4   5410 0.18057300  12.010000   ; qtot 180.475291
 5411         hc    180    bbb     H7   5411 0.01788900   1.008000   ; qtot 180.493180
 5412         hc    180    bbb     H8   5412 0.01788900   1.008000   ; qtot 180.511069
 5413         c3    180    bbb     C5   5413 -0.11337700  12.010000   ; qtot 180.397692
 5414         hc    180    bbb     H9   5414 0.09515400   1.008000   ; qtot 180.492846
 5415         hc    180    bbb    H10   5415 0.09515400   1.008000   ; qtot 180.588000
 5416         c3    180    bbb     C6   5416 -0.11337700  12.010000   ; qtot 180.474623
 5417         hc    180    bbb    H11   5417 0.09515400   1.008000   ; qtot 180.569777
 5418         hc    180    bbb    H12   5418 0.09515400   1.008000   ; qtot 180.664931
 5419         c3    180    bbb     C7   5419 0.21842400  12.010000   ; qtot 180.883355
 5420         h1    180    bbb    H13   5420 0.04500300   1.008000   ; qtot 180.928358
 5421         h1    180    bbb    H14   5421 0.04500300   1.008000   ; qtot 180.973361
 5422         c3    180    bbb     C8   5422 -0.06455200  12.010000   ; qtot 180.908809
 5423         h1    180    bbb    H15   5423 0.13554100   1.008000   ; qtot 181.044350
 5424         h1    180    bbb    H16   5424 0.13554100   1.008000   ; qtot 181.179891
 5425         c3    180    bbb     C9   5425 -0.06455200  12.010000   ; qtot 181.115339
 5426         h1    180    bbb    H17   5426 0.13554100   1.008000   ; qtot 181.250880
 5427         h1    180    bbb    H18   5427 0.13554100   1.008000   ; qtot 181.386421
 5428         os    180    bbb     O1   5428 -0.62587700  16.000000   ; qtot 180.760544
 5429         hn    180    bbb    H19   5429 0.23982500   1.008000   ; qtot 181.000369
; residue  181 bbb rtp bbb q 1.0
 5430         n4    181    bbb     N1   5430 0.03726400  14.010000   ; qtot 181.037633
 5431         c3    181    bbb     C1   5431 -0.07020100  12.010000   ; qtot 180.967432
 5432         hx    181    bbb     H1   5432 0.12219000   1.008000   ; qtot 181.089622
 5433         hx    181    bbb     H2   5433 0.12219000   1.008000   ; qtot 181.211812
 5434         c3    181    bbb     C2   5434 -0.07020100  12.010000   ; qtot 181.141611
 5435         hx    181    bbb     H3   5435 0.12219000   1.008000   ; qtot 181.263801
 5436         hx    181    bbb     H4   5436 0.12219000   1.008000   ; qtot 181.385991
 5437         c3    181    bbb     C3   5437 -0.39007700  12.010000   ; qtot 180.995914
 5438         hx    181    bbb     H5   5438 0.14940300   1.008000   ; qtot 181.145317
 5439         hx    181    bbb     H6   5439 0.14940300   1.008000   ; qtot 181.294720
 5440         c3    181    bbb     C4   5440 0.18057300  12.010000   ; qtot 181.475293
 5441         hc    181    bbb     H7   5441 0.01788900   1.008000   ; qtot 181.493182
 5442         hc    181    bbb     H8   5442 0.01788900   1.008000   ; qtot 181.511071
 5443         c3    181    bbb     C5   5443 -0.11337700  12.010000   ; qtot 181.397694
 5444         hc    181    bbb     H9   5444 0.09515400   1.008000   ; qtot 181.492848
 5445         hc    181    bbb    H10   5445 0.09515400   1.008000   ; qtot 181.588002
 5446         c3    181    bbb     C6   5446 -0.11337700  12.010000   ; qtot 181.474625
 5447         hc    181    bbb    H11   5447 0.09515400   1.008000   ; qtot 181.569779
 5448         hc    181    bbb    H12   5448 0.09515400   1.008000   ; qtot 181.664933
 5449         c3    181    bbb     C7   5449 0.21842400  12.010000   ; qtot 181.883357
 5450         h1    181    bbb    H13   5450 0.04500300   1.008000   ; qtot 181.928360
 5451         h1    181    bbb    H14   5451 0.04500300   1.008000   ; qtot 181.973363
 5452         c3    181    bbb     C8   5452 -0.06455200  12.010000   ; qtot 181.908811
 5453         h1    181    bbb    H15   5453 0.13554100   1.008000   ; qtot 182.044352
 5454         h1    181    bbb    H16   5454 0.13554100   1.008000   ; qtot 182.179893
 5455         c3    181    bbb     C9   5455 -0.06455200  12.010000   ; qtot 182.115341
 5456         h1    181    bbb    H17   5456 0.13554100   1.008000   ; qtot 182.250882
 5457         h1    181    bbb    H18   5457 0.13554100   1.008000   ; qtot 182.386423
 5458         os    181    bbb     O1   5458 -0.62587700  16.000000   ; qtot 181.760546
 5459         hn    181    bbb    H19   5459 0.23982500   1.008000   ; qtot 182.000371
; residue  182 bbb rtp bbb q 1.0
 5460         n4    182    bbb     N1   5460 0.03726400  14.010000   ; qtot 182.037635
 5461         c3    182    bbb     C1   5461 -0.07020100  12.010000   ; qtot 181.967434
 5462         hx    182    bbb     H1   5462 0.12219000   1.008000   ; qtot 182.089624
 5463         hx    182    bbb     H2   5463 0.12219000   1.008000   ; qtot 182.211814
 5464         c3    182    bbb     C2   5464 -0.07020100  12.010000   ; qtot 182.141613
 5465         hx    182    bbb     H3   5465 0.12219000   1.008000   ; qtot 182.263803
 5466         hx    182    bbb     H4   5466 0.12219000   1.008000   ; qtot 182.385993
 5467         c3    182    bbb     C3   5467 -0.39007700  12.010000   ; qtot 181.995916
 5468         hx    182    bbb     H5   5468 0.14940300   1.008000   ; qtot 182.145319
 5469         hx    182    bbb     H6   5469 0.14940300   1.008000   ; qtot 182.294722
 5470         c3    182    bbb     C4   5470 0.18057300  12.010000   ; qtot 182.475295
 5471         hc    182    bbb     H7   5471 0.01788900   1.008000   ; qtot 182.493184
 5472         hc    182    bbb     H8   5472 0.01788900   1.008000   ; qtot 182.511073
 5473         c3    182    bbb     C5   5473 -0.11337700  12.010000   ; qtot 182.397696
 5474         hc    182    bbb     H9   5474 0.09515400   1.008000   ; qtot 182.492850
 5475         hc    182    bbb    H10   5475 0.09515400   1.008000   ; qtot 182.588004
 5476         c3    182    bbb     C6   5476 -0.11337700  12.010000   ; qtot 182.474627
 5477         hc    182    bbb    H11   5477 0.09515400   1.008000   ; qtot 182.569781
 5478         hc    182    bbb    H12   5478 0.09515400   1.008000   ; qtot 182.664935
 5479         c3    182    bbb     C7   5479 0.21842400  12.010000   ; qtot 182.883359
 5480         h1    182    bbb    H13   5480 0.04500300   1.008000   ; qtot 182.928362
 5481         h1    182    bbb    H14   5481 0.04500300   1.008000   ; qtot 182.973365
 5482         c3    182    bbb     C8   5482 -0.06455200  12.010000   ; qtot 182.908813
 5483         h1    182    bbb    H15   5483 0.13554100   1.008000   ; qtot 183.044354
 5484         h1    182    bbb    H16   5484 0.13554100   1.008000   ; qtot 183.179895
 5485         c3    182    bbb     C9   5485 -0.06455200  12.010000   ; qtot 183.115343
 5486         h1    182    bbb    H17   5486 0.13554100   1.008000   ; qtot 183.250884
 5487         h1    182    bbb    H18   5487 0.13554100   1.008000   ; qtot 183.386425
 5488         os    182    bbb     O1   5488 -0.62587700  16.000000   ; qtot 182.760548
 5489         hn    182    bbb    H19   5489 0.23982500   1.008000   ; qtot 183.000373
; residue  183 bbb rtp bbb q 1.0
 5490         n4    183    bbb     N1   5490 0.03726400  14.010000   ; qtot 183.037637
 5491         c3    183    bbb     C1   5491 -0.07020100  12.010000   ; qtot 182.967436
 5492         hx    183    bbb     H1   5492 0.12219000   1.008000   ; qtot 183.089626
 5493         hx    183    bbb     H2   5493 0.12219000   1.008000   ; qtot 183.211816
 5494         c3    183    bbb     C2   5494 -0.07020100  12.010000   ; qtot 183.141615
 5495         hx    183    bbb     H3   5495 0.12219000   1.008000   ; qtot 183.263805
 5496         hx    183    bbb     H4   5496 0.12219000   1.008000   ; qtot 183.385995
 5497         c3    183    bbb     C3   5497 -0.39007700  12.010000   ; qtot 182.995918
 5498         hx    183    bbb     H5   5498 0.14940300   1.008000   ; qtot 183.145321
 5499         hx    183    bbb     H6   5499 0.14940300   1.008000   ; qtot 183.294724
 5500         c3    183    bbb     C4   5500 0.18057300  12.010000   ; qtot 183.475297
 5501         hc    183    bbb     H7   5501 0.01788900   1.008000   ; qtot 183.493186
 5502         hc    183    bbb     H8   5502 0.01788900   1.008000   ; qtot 183.511075
 5503         c3    183    bbb     C5   5503 -0.11337700  12.010000   ; qtot 183.397698
 5504         hc    183    bbb     H9   5504 0.09515400   1.008000   ; qtot 183.492852
 5505         hc    183    bbb    H10   5505 0.09515400   1.008000   ; qtot 183.588006
 5506         c3    183    bbb     C6   5506 -0.11337700  12.010000   ; qtot 183.474629
 5507         hc    183    bbb    H11   5507 0.09515400   1.008000   ; qtot 183.569783
 5508         hc    183    bbb    H12   5508 0.09515400   1.008000   ; qtot 183.664937
 5509         c3    183    bbb     C7   5509 0.21842400  12.010000   ; qtot 183.883361
 5510         h1    183    bbb    H13   5510 0.04500300   1.008000   ; qtot 183.928364
 5511         h1    183    bbb    H14   5511 0.04500300   1.008000   ; qtot 183.973367
 5512         c3    183    bbb     C8   5512 -0.06455200  12.010000   ; qtot 183.908815
 5513         h1    183    bbb    H15   5513 0.13554100   1.008000   ; qtot 184.044356
 5514         h1    183    bbb    H16   5514 0.13554100   1.008000   ; qtot 184.179897
 5515         c3    183    bbb     C9   5515 -0.06455200  12.010000   ; qtot 184.115345
 5516         h1    183    bbb    H17   5516 0.13554100   1.008000   ; qtot 184.250886
 5517         h1    183    bbb    H18   5517 0.13554100   1.008000   ; qtot 184.386427
 5518         os    183    bbb     O1   5518 -0.62587700  16.000000   ; qtot 183.760550
 5519         hn    183    bbb    H19   5519 0.23982500   1.008000   ; qtot 184.000375
; residue  184 bbb rtp bbb q 1.0
 5520         n4    184    bbb     N1   5520 0.03726400  14.010000   ; qtot 184.037639
 5521         c3    184    bbb     C1   5521 -0.07020100  12.010000   ; qtot 183.967438
 5522         hx    184    bbb     H1   5522 0.12219000   1.008000   ; qtot 184.089628
 5523         hx    184    bbb     H2   5523 0.12219000   1.008000   ; qtot 184.211818
 5524         c3    184    bbb     C2   5524 -0.07020100  12.010000   ; qtot 184.141617
 5525         hx    184    bbb     H3   5525 0.12219000   1.008000   ; qtot 184.263807
 5526         hx    184    bbb     H4   5526 0.12219000   1.008000   ; qtot 184.385997
 5527         c3    184    bbb     C3   5527 -0.39007700  12.010000   ; qtot 183.995920
 5528         hx    184    bbb     H5   5528 0.14940300   1.008000   ; qtot 184.145323
 5529         hx    184    bbb     H6   5529 0.14940300   1.008000   ; qtot 184.294726
 5530         c3    184    bbb     C4   5530 0.18057300  12.010000   ; qtot 184.475299
 5531         hc    184    bbb     H7   5531 0.01788900   1.008000   ; qtot 184.493188
 5532         hc    184    bbb     H8   5532 0.01788900   1.008000   ; qtot 184.511077
 5533         c3    184    bbb     C5   5533 -0.11337700  12.010000   ; qtot 184.397700
 5534         hc    184    bbb     H9   5534 0.09515400   1.008000   ; qtot 184.492854
 5535         hc    184    bbb    H10   5535 0.09515400   1.008000   ; qtot 184.588008
 5536         c3    184    bbb     C6   5536 -0.11337700  12.010000   ; qtot 184.474631
 5537         hc    184    bbb    H11   5537 0.09515400   1.008000   ; qtot 184.569785
 5538         hc    184    bbb    H12   5538 0.09515400   1.008000   ; qtot 184.664939
 5539         c3    184    bbb     C7   5539 0.21842400  12.010000   ; qtot 184.883363
 5540         h1    184    bbb    H13   5540 0.04500300   1.008000   ; qtot 184.928366
 5541         h1    184    bbb    H14   5541 0.04500300   1.008000   ; qtot 184.973369
 5542         c3    184    bbb     C8   5542 -0.06455200  12.010000   ; qtot 184.908817
 5543         h1    184    bbb    H15   5543 0.13554100   1.008000   ; qtot 185.044358
 5544         h1    184    bbb    H16   5544 0.13554100   1.008000   ; qtot 185.179899
 5545         c3    184    bbb     C9   5545 -0.06455200  12.010000   ; qtot 185.115347
 5546         h1    184    bbb    H17   5546 0.13554100   1.008000   ; qtot 185.250888
 5547         h1    184    bbb    H18   5547 0.13554100   1.008000   ; qtot 185.386429
 5548         os    184    bbb     O1   5548 -0.62587700  16.000000   ; qtot 184.760552
 5549         hn    184    bbb    H19   5549 0.23982500   1.008000   ; qtot 185.000377
; residue  185 bbb rtp bbb q 1.0
 5550         n4    185    bbb     N1   5550 0.03726400  14.010000   ; qtot 185.037641
 5551         c3    185    bbb     C1   5551 -0.07020100  12.010000   ; qtot 184.967440
 5552         hx    185    bbb     H1   5552 0.12219000   1.008000   ; qtot 185.089630
 5553         hx    185    bbb     H2   5553 0.12219000   1.008000   ; qtot 185.211820
 5554         c3    185    bbb     C2   5554 -0.07020100  12.010000   ; qtot 185.141619
 5555         hx    185    bbb     H3   5555 0.12219000   1.008000   ; qtot 185.263809
 5556         hx    185    bbb     H4   5556 0.12219000   1.008000   ; qtot 185.385999
 5557         c3    185    bbb     C3   5557 -0.39007700  12.010000   ; qtot 184.995922
 5558         hx    185    bbb     H5   5558 0.14940300   1.008000   ; qtot 185.145325
 5559         hx    185    bbb     H6   5559 0.14940300   1.008000   ; qtot 185.294728
 5560         c3    185    bbb     C4   5560 0.18057300  12.010000   ; qtot 185.475301
 5561         hc    185    bbb     H7   5561 0.01788900   1.008000   ; qtot 185.493190
 5562         hc    185    bbb     H8   5562 0.01788900   1.008000   ; qtot 185.511079
 5563         c3    185    bbb     C5   5563 -0.11337700  12.010000   ; qtot 185.397702
 5564         hc    185    bbb     H9   5564 0.09515400   1.008000   ; qtot 185.492856
 5565         hc    185    bbb    H10   5565 0.09515400   1.008000   ; qtot 185.588010
 5566         c3    185    bbb     C6   5566 -0.11337700  12.010000   ; qtot 185.474633
 5567         hc    185    bbb    H11   5567 0.09515400   1.008000   ; qtot 185.569787
 5568         hc    185    bbb    H12   5568 0.09515400   1.008000   ; qtot 185.664941
 5569         c3    185    bbb     C7   5569 0.21842400  12.010000   ; qtot 185.883365
 5570         h1    185    bbb    H13   5570 0.04500300   1.008000   ; qtot 185.928368
 5571         h1    185    bbb    H14   5571 0.04500300   1.008000   ; qtot 185.973371
 5572         c3    185    bbb     C8   5572 -0.06455200  12.010000   ; qtot 185.908819
 5573         h1    185    bbb    H15   5573 0.13554100   1.008000   ; qtot 186.044360
 5574         h1    185    bbb    H16   5574 0.13554100   1.008000   ; qtot 186.179901
 5575         c3    185    bbb     C9   5575 -0.06455200  12.010000   ; qtot 186.115349
 5576         h1    185    bbb    H17   5576 0.13554100   1.008000   ; qtot 186.250890
 5577         h1    185    bbb    H18   5577 0.13554100   1.008000   ; qtot 186.386431
 5578         os    185    bbb     O1   5578 -0.62587700  16.000000   ; qtot 185.760554
 5579         hn    185    bbb    H19   5579 0.23982500   1.008000   ; qtot 186.000379
; residue  186 bbb rtp bbb q 1.0
 5580         n4    186    bbb     N1   5580 0.03726400  14.010000   ; qtot 186.037643
 5581         c3    186    bbb     C1   5581 -0.07020100  12.010000   ; qtot 185.967442
 5582         hx    186    bbb     H1   5582 0.12219000   1.008000   ; qtot 186.089632
 5583         hx    186    bbb     H2   5583 0.12219000   1.008000   ; qtot 186.211822
 5584         c3    186    bbb     C2   5584 -0.07020100  12.010000   ; qtot 186.141621
 5585         hx    186    bbb     H3   5585 0.12219000   1.008000   ; qtot 186.263811
 5586         hx    186    bbb     H4   5586 0.12219000   1.008000   ; qtot 186.386001
 5587         c3    186    bbb     C3   5587 -0.39007700  12.010000   ; qtot 185.995924
 5588         hx    186    bbb     H5   5588 0.14940300   1.008000   ; qtot 186.145327
 5589         hx    186    bbb     H6   5589 0.14940300   1.008000   ; qtot 186.294730
 5590         c3    186    bbb     C4   5590 0.18057300  12.010000   ; qtot 186.475303
 5591         hc    186    bbb     H7   5591 0.01788900   1.008000   ; qtot 186.493192
 5592         hc    186    bbb     H8   5592 0.01788900   1.008000   ; qtot 186.511081
 5593         c3    186    bbb     C5   5593 -0.11337700  12.010000   ; qtot 186.397704
 5594         hc    186    bbb     H9   5594 0.09515400   1.008000   ; qtot 186.492858
 5595         hc    186    bbb    H10   5595 0.09515400   1.008000   ; qtot 186.588012
 5596         c3    186    bbb     C6   5596 -0.11337700  12.010000   ; qtot 186.474635
 5597         hc    186    bbb    H11   5597 0.09515400   1.008000   ; qtot 186.569789
 5598         hc    186    bbb    H12   5598 0.09515400   1.008000   ; qtot 186.664943
 5599         c3    186    bbb     C7   5599 0.21842400  12.010000   ; qtot 186.883367
 5600         h1    186    bbb    H13   5600 0.04500300   1.008000   ; qtot 186.928370
 5601         h1    186    bbb    H14   5601 0.04500300   1.008000   ; qtot 186.973373
 5602         c3    186    bbb     C8   5602 -0.06455200  12.010000   ; qtot 186.908821
 5603         h1    186    bbb    H15   5603 0.13554100   1.008000   ; qtot 187.044362
 5604         h1    186    bbb    H16   5604 0.13554100   1.008000   ; qtot 187.179903
 5605         c3    186    bbb     C9   5605 -0.06455200  12.010000   ; qtot 187.115351
 5606         h1    186    bbb    H17   5606 0.13554100   1.008000   ; qtot 187.250892
 5607         h1    186    bbb    H18   5607 0.13554100   1.008000   ; qtot 187.386433
 5608         os    186    bbb     O1   5608 -0.62587700  16.000000   ; qtot 186.760556
 5609         hn    186    bbb    H19   5609 0.23982500   1.008000   ; qtot 187.000381
; residue  187 bbb rtp bbb q 1.0
 5610         n4    187    bbb     N1   5610 0.03726400  14.010000   ; qtot 187.037645
 5611         c3    187    bbb     C1   5611 -0.07020100  12.010000   ; qtot 186.967444
 5612         hx    187    bbb     H1   5612 0.12219000   1.008000   ; qtot 187.089634
 5613         hx    187    bbb     H2   5613 0.12219000   1.008000   ; qtot 187.211824
 5614         c3    187    bbb     C2   5614 -0.07020100  12.010000   ; qtot 187.141623
 5615         hx    187    bbb     H3   5615 0.12219000   1.008000   ; qtot 187.263813
 5616         hx    187    bbb     H4   5616 0.12219000   1.008000   ; qtot 187.386003
 5617         c3    187    bbb     C3   5617 -0.39007700  12.010000   ; qtot 186.995926
 5618         hx    187    bbb     H5   5618 0.14940300   1.008000   ; qtot 187.145329
 5619         hx    187    bbb     H6   5619 0.14940300   1.008000   ; qtot 187.294732
 5620         c3    187    bbb     C4   5620 0.18057300  12.010000   ; qtot 187.475305
 5621         hc    187    bbb     H7   5621 0.01788900   1.008000   ; qtot 187.493194
 5622         hc    187    bbb     H8   5622 0.01788900   1.008000   ; qtot 187.511083
 5623         c3    187    bbb     C5   5623 -0.11337700  12.010000   ; qtot 187.397706
 5624         hc    187    bbb     H9   5624 0.09515400   1.008000   ; qtot 187.492860
 5625         hc    187    bbb    H10   5625 0.09515400   1.008000   ; qtot 187.588014
 5626         c3    187    bbb     C6   5626 -0.11337700  12.010000   ; qtot 187.474637
 5627         hc    187    bbb    H11   5627 0.09515400   1.008000   ; qtot 187.569791
 5628         hc    187    bbb    H12   5628 0.09515400   1.008000   ; qtot 187.664945
 5629         c3    187    bbb     C7   5629 0.21842400  12.010000   ; qtot 187.883369
 5630         h1    187    bbb    H13   5630 0.04500300   1.008000   ; qtot 187.928372
 5631         h1    187    bbb    H14   5631 0.04500300   1.008000   ; qtot 187.973375
 5632         c3    187    bbb     C8   5632 -0.06455200  12.010000   ; qtot 187.908823
 5633         h1    187    bbb    H15   5633 0.13554100   1.008000   ; qtot 188.044364
 5634         h1    187    bbb    H16   5634 0.13554100   1.008000   ; qtot 188.179905
 5635         c3    187    bbb     C9   5635 -0.06455200  12.010000   ; qtot 188.115353
 5636         h1    187    bbb    H17   5636 0.13554100   1.008000   ; qtot 188.250894
 5637         h1    187    bbb    H18   5637 0.13554100   1.008000   ; qtot 188.386435
 5638         os    187    bbb     O1   5638 -0.62587700  16.000000   ; qtot 187.760558
 5639         hn    187    bbb    H19   5639 0.23982500   1.008000   ; qtot 188.000383
; residue  188 bbb rtp bbb q 1.0
 5640         n4    188    bbb     N1   5640 0.03726400  14.010000   ; qtot 188.037647
 5641         c3    188    bbb     C1   5641 -0.07020100  12.010000   ; qtot 187.967446
 5642         hx    188    bbb     H1   5642 0.12219000   1.008000   ; qtot 188.089636
 5643         hx    188    bbb     H2   5643 0.12219000   1.008000   ; qtot 188.211826
 5644         c3    188    bbb     C2   5644 -0.07020100  12.010000   ; qtot 188.141625
 5645         hx    188    bbb     H3   5645 0.12219000   1.008000   ; qtot 188.263815
 5646         hx    188    bbb     H4   5646 0.12219000   1.008000   ; qtot 188.386005
 5647         c3    188    bbb     C3   5647 -0.39007700  12.010000   ; qtot 187.995928
 5648         hx    188    bbb     H5   5648 0.14940300   1.008000   ; qtot 188.145331
 5649         hx    188    bbb     H6   5649 0.14940300   1.008000   ; qtot 188.294734
 5650         c3    188    bbb     C4   5650 0.18057300  12.010000   ; qtot 188.475307
 5651         hc    188    bbb     H7   5651 0.01788900   1.008000   ; qtot 188.493196
 5652         hc    188    bbb     H8   5652 0.01788900   1.008000   ; qtot 188.511085
 5653         c3    188    bbb     C5   5653 -0.11337700  12.010000   ; qtot 188.397708
 5654         hc    188    bbb     H9   5654 0.09515400   1.008000   ; qtot 188.492862
 5655         hc    188    bbb    H10   5655 0.09515400   1.008000   ; qtot 188.588016
 5656         c3    188    bbb     C6   5656 -0.11337700  12.010000   ; qtot 188.474639
 5657         hc    188    bbb    H11   5657 0.09515400   1.008000   ; qtot 188.569793
 5658         hc    188    bbb    H12   5658 0.09515400   1.008000   ; qtot 188.664947
 5659         c3    188    bbb     C7   5659 0.21842400  12.010000   ; qtot 188.883371
 5660         h1    188    bbb    H13   5660 0.04500300   1.008000   ; qtot 188.928374
 5661         h1    188    bbb    H14   5661 0.04500300   1.008000   ; qtot 188.973377
 5662         c3    188    bbb     C8   5662 -0.06455200  12.010000   ; qtot 188.908825
 5663         h1    188    bbb    H15   5663 0.13554100   1.008000   ; qtot 189.044366
 5664         h1    188    bbb    H16   5664 0.13554100   1.008000   ; qtot 189.179907
 5665         c3    188    bbb     C9   5665 -0.06455200  12.010000   ; qtot 189.115355
 5666         h1    188    bbb    H17   5666 0.13554100   1.008000   ; qtot 189.250896
 5667         h1    188    bbb    H18   5667 0.13554100   1.008000   ; qtot 189.386437
 5668         os    188    bbb     O1   5668 -0.62587700  16.000000   ; qtot 188.760560
 5669         hn    188    bbb    H19   5669 0.23982500   1.008000   ; qtot 189.000385
; residue  189 bbb rtp bbb q 1.0
 5670         n4    189    bbb     N1   5670 0.03726400  14.010000   ; qtot 189.037649
 5671         c3    189    bbb     C1   5671 -0.07020100  12.010000   ; qtot 188.967448
 5672         hx    189    bbb     H1   5672 0.12219000   1.008000   ; qtot 189.089638
 5673         hx    189    bbb     H2   5673 0.12219000   1.008000   ; qtot 189.211828
 5674         c3    189    bbb     C2   5674 -0.07020100  12.010000   ; qtot 189.141627
 5675         hx    189    bbb     H3   5675 0.12219000   1.008000   ; qtot 189.263817
 5676         hx    189    bbb     H4   5676 0.12219000   1.008000   ; qtot 189.386007
 5677         c3    189    bbb     C3   5677 -0.39007700  12.010000   ; qtot 188.995930
 5678         hx    189    bbb     H5   5678 0.14940300   1.008000   ; qtot 189.145333
 5679         hx    189    bbb     H6   5679 0.14940300   1.008000   ; qtot 189.294736
 5680         c3    189    bbb     C4   5680 0.18057300  12.010000   ; qtot 189.475309
 5681         hc    189    bbb     H7   5681 0.01788900   1.008000   ; qtot 189.493198
 5682         hc    189    bbb     H8   5682 0.01788900   1.008000   ; qtot 189.511087
 5683         c3    189    bbb     C5   5683 -0.11337700  12.010000   ; qtot 189.397710
 5684         hc    189    bbb     H9   5684 0.09515400   1.008000   ; qtot 189.492864
 5685         hc    189    bbb    H10   5685 0.09515400   1.008000   ; qtot 189.588018
 5686         c3    189    bbb     C6   5686 -0.11337700  12.010000   ; qtot 189.474641
 5687         hc    189    bbb    H11   5687 0.09515400   1.008000   ; qtot 189.569795
 5688         hc    189    bbb    H12   5688 0.09515400   1.008000   ; qtot 189.664949
 5689         c3    189    bbb     C7   5689 0.21842400  12.010000   ; qtot 189.883373
 5690         h1    189    bbb    H13   5690 0.04500300   1.008000   ; qtot 189.928376
 5691         h1    189    bbb    H14   5691 0.04500300   1.008000   ; qtot 189.973379
 5692         c3    189    bbb     C8   5692 -0.06455200  12.010000   ; qtot 189.908827
 5693         h1    189    bbb    H15   5693 0.13554100   1.008000   ; qtot 190.044368
 5694         h1    189    bbb    H16   5694 0.13554100   1.008000   ; qtot 190.179909
 5695         c3    189    bbb     C9   5695 -0.06455200  12.010000   ; qtot 190.115357
 5696         h1    189    bbb    H17   5696 0.13554100   1.008000   ; qtot 190.250898
 5697         h1    189    bbb    H18   5697 0.13554100   1.008000   ; qtot 190.386439
 5698         os    189    bbb     O1   5698 -0.62587700  16.000000   ; qtot 189.760562
 5699         hn    189    bbb    H19   5699 0.23982500   1.008000   ; qtot 190.000387
; residue  190 bbb rtp bbb q 1.0
 5700         n4    190    bbb     N1   5700 0.03726400  14.010000   ; qtot 190.037651
 5701         c3    190    bbb     C1   5701 -0.07020100  12.010000   ; qtot 189.967450
 5702         hx    190    bbb     H1   5702 0.12219000   1.008000   ; qtot 190.089640
 5703         hx    190    bbb     H2   5703 0.12219000   1.008000   ; qtot 190.211830
 5704         c3    190    bbb     C2   5704 -0.07020100  12.010000   ; qtot 190.141629
 5705         hx    190    bbb     H3   5705 0.12219000   1.008000   ; qtot 190.263819
 5706         hx    190    bbb     H4   5706 0.12219000   1.008000   ; qtot 190.386009
 5707         c3    190    bbb     C3   5707 -0.39007700  12.010000   ; qtot 189.995932
 5708         hx    190    bbb     H5   5708 0.14940300   1.008000   ; qtot 190.145335
 5709         hx    190    bbb     H6   5709 0.14940300   1.008000   ; qtot 190.294738
 5710         c3    190    bbb     C4   5710 0.18057300  12.010000   ; qtot 190.475311
 5711         hc    190    bbb     H7   5711 0.01788900   1.008000   ; qtot 190.493200
 5712         hc    190    bbb     H8   5712 0.01788900   1.008000   ; qtot 190.511089
 5713         c3    190    bbb     C5   5713 -0.11337700  12.010000   ; qtot 190.397712
 5714         hc    190    bbb     H9   5714 0.09515400   1.008000   ; qtot 190.492866
 5715         hc    190    bbb    H10   5715 0.09515400   1.008000   ; qtot 190.588020
 5716         c3    190    bbb     C6   5716 -0.11337700  12.010000   ; qtot 190.474643
 5717         hc    190    bbb    H11   5717 0.09515400   1.008000   ; qtot 190.569797
 5718         hc    190    bbb    H12   5718 0.09515400   1.008000   ; qtot 190.664951
 5719         c3    190    bbb     C7   5719 0.21842400  12.010000   ; qtot 190.883375
 5720         h1    190    bbb    H13   5720 0.04500300   1.008000   ; qtot 190.928378
 5721         h1    190    bbb    H14   5721 0.04500300   1.008000   ; qtot 190.973381
 5722         c3    190    bbb     C8   5722 -0.06455200  12.010000   ; qtot 190.908829
 5723         h1    190    bbb    H15   5723 0.13554100   1.008000   ; qtot 191.044370
 5724         h1    190    bbb    H16   5724 0.13554100   1.008000   ; qtot 191.179911
 5725         c3    190    bbb     C9   5725 -0.06455200  12.010000   ; qtot 191.115359
 5726         h1    190    bbb    H17   5726 0.13554100   1.008000   ; qtot 191.250900
 5727         h1    190    bbb    H18   5727 0.13554100   1.008000   ; qtot 191.386441
 5728         os    190    bbb     O1   5728 -0.62587700  16.000000   ; qtot 190.760564
 5729         hn    190    bbb    H19   5729 0.23982500   1.008000   ; qtot 191.000389
; residue  191 bbb rtp bbb q 1.0
 5730         n4    191    bbb     N1   5730 0.03726400  14.010000   ; qtot 191.037653
 5731         c3    191    bbb     C1   5731 -0.07020100  12.010000   ; qtot 190.967452
 5732         hx    191    bbb     H1   5732 0.12219000   1.008000   ; qtot 191.089642
 5733         hx    191    bbb     H2   5733 0.12219000   1.008000   ; qtot 191.211832
 5734         c3    191    bbb     C2   5734 -0.07020100  12.010000   ; qtot 191.141631
 5735         hx    191    bbb     H3   5735 0.12219000   1.008000   ; qtot 191.263821
 5736         hx    191    bbb     H4   5736 0.12219000   1.008000   ; qtot 191.386011
 5737         c3    191    bbb     C3   5737 -0.39007700  12.010000   ; qtot 190.995934
 5738         hx    191    bbb     H5   5738 0.14940300   1.008000   ; qtot 191.145337
 5739         hx    191    bbb     H6   5739 0.14940300   1.008000   ; qtot 191.294740
 5740         c3    191    bbb     C4   5740 0.18057300  12.010000   ; qtot 191.475313
 5741         hc    191    bbb     H7   5741 0.01788900   1.008000   ; qtot 191.493202
 5742         hc    191    bbb     H8   5742 0.01788900   1.008000   ; qtot 191.511091
 5743         c3    191    bbb     C5   5743 -0.11337700  12.010000   ; qtot 191.397714
 5744         hc    191    bbb     H9   5744 0.09515400   1.008000   ; qtot 191.492868
 5745         hc    191    bbb    H10   5745 0.09515400   1.008000   ; qtot 191.588022
 5746         c3    191    bbb     C6   5746 -0.11337700  12.010000   ; qtot 191.474645
 5747         hc    191    bbb    H11   5747 0.09515400   1.008000   ; qtot 191.569799
 5748         hc    191    bbb    H12   5748 0.09515400   1.008000   ; qtot 191.664953
 5749         c3    191    bbb     C7   5749 0.21842400  12.010000   ; qtot 191.883377
 5750         h1    191    bbb    H13   5750 0.04500300   1.008000   ; qtot 191.928380
 5751         h1    191    bbb    H14   5751 0.04500300   1.008000   ; qtot 191.973383
 5752         c3    191    bbb     C8   5752 -0.06455200  12.010000   ; qtot 191.908831
 5753         h1    191    bbb    H15   5753 0.13554100   1.008000   ; qtot 192.044372
 5754         h1    191    bbb    H16   5754 0.13554100   1.008000   ; qtot 192.179913
 5755         c3    191    bbb     C9   5755 -0.06455200  12.010000   ; qtot 192.115361
 5756         h1    191    bbb    H17   5756 0.13554100   1.008000   ; qtot 192.250902
 5757         h1    191    bbb    H18   5757 0.13554100   1.008000   ; qtot 192.386443
 5758         os    191    bbb     O1   5758 -0.62587700  16.000000   ; qtot 191.760566
 5759         hn    191    bbb    H19   5759 0.23982500   1.008000   ; qtot 192.000391
; residue  192 bbb rtp bbb q 1.0
 5760         n4    192    bbb     N1   5760 0.03726400  14.010000   ; qtot 192.037655
 5761         c3    192    bbb     C1   5761 -0.07020100  12.010000   ; qtot 191.967454
 5762         hx    192    bbb     H1   5762 0.12219000   1.008000   ; qtot 192.089644
 5763         hx    192    bbb     H2   5763 0.12219000   1.008000   ; qtot 192.211834
 5764         c3    192    bbb     C2   5764 -0.07020100  12.010000   ; qtot 192.141633
 5765         hx    192    bbb     H3   5765 0.12219000   1.008000   ; qtot 192.263823
 5766         hx    192    bbb     H4   5766 0.12219000   1.008000   ; qtot 192.386013
 5767         c3    192    bbb     C3   5767 -0.39007700  12.010000   ; qtot 191.995936
 5768         hx    192    bbb     H5   5768 0.14940300   1.008000   ; qtot 192.145339
 5769         hx    192    bbb     H6   5769 0.14940300   1.008000   ; qtot 192.294742
 5770         c3    192    bbb     C4   5770 0.18057300  12.010000   ; qtot 192.475315
 5771         hc    192    bbb     H7   5771 0.01788900   1.008000   ; qtot 192.493204
 5772         hc    192    bbb     H8   5772 0.01788900   1.008000   ; qtot 192.511093
 5773         c3    192    bbb     C5   5773 -0.11337700  12.010000   ; qtot 192.397716
 5774         hc    192    bbb     H9   5774 0.09515400   1.008000   ; qtot 192.492870
 5775         hc    192    bbb    H10   5775 0.09515400   1.008000   ; qtot 192.588024
 5776         c3    192    bbb     C6   5776 -0.11337700  12.010000   ; qtot 192.474647
 5777         hc    192    bbb    H11   5777 0.09515400   1.008000   ; qtot 192.569801
 5778         hc    192    bbb    H12   5778 0.09515400   1.008000   ; qtot 192.664955
 5779         c3    192    bbb     C7   5779 0.21842400  12.010000   ; qtot 192.883379
 5780         h1    192    bbb    H13   5780 0.04500300   1.008000   ; qtot 192.928382
 5781         h1    192    bbb    H14   5781 0.04500300   1.008000   ; qtot 192.973385
 5782         c3    192    bbb     C8   5782 -0.06455200  12.010000   ; qtot 192.908833
 5783         h1    192    bbb    H15   5783 0.13554100   1.008000   ; qtot 193.044374
 5784         h1    192    bbb    H16   5784 0.13554100   1.008000   ; qtot 193.179915
 5785         c3    192    bbb     C9   5785 -0.06455200  12.010000   ; qtot 193.115363
 5786         h1    192    bbb    H17   5786 0.13554100   1.008000   ; qtot 193.250904
 5787         h1    192    bbb    H18   5787 0.13554100   1.008000   ; qtot 193.386445
 5788         os    192    bbb     O1   5788 -0.62587700  16.000000   ; qtot 192.760568
 5789         hn    192    bbb    H19   5789 0.23982500   1.008000   ; qtot 193.000393
; residue  193 bbb rtp bbb q 1.0
 5790         n4    193    bbb     N1   5790 0.03726400  14.010000   ; qtot 193.037657
 5791         c3    193    bbb     C1   5791 -0.07020100  12.010000   ; qtot 192.967456
 5792         hx    193    bbb     H1   5792 0.12219000   1.008000   ; qtot 193.089646
 5793         hx    193    bbb     H2   5793 0.12219000   1.008000   ; qtot 193.211836
 5794         c3    193    bbb     C2   5794 -0.07020100  12.010000   ; qtot 193.141635
 5795         hx    193    bbb     H3   5795 0.12219000   1.008000   ; qtot 193.263825
 5796         hx    193    bbb     H4   5796 0.12219000   1.008000   ; qtot 193.386015
 5797         c3    193    bbb     C3   5797 -0.39007700  12.010000   ; qtot 192.995938
 5798         hx    193    bbb     H5   5798 0.14940300   1.008000   ; qtot 193.145341
 5799         hx    193    bbb     H6   5799 0.14940300   1.008000   ; qtot 193.294744
 5800         c3    193    bbb     C4   5800 0.18057300  12.010000   ; qtot 193.475317
 5801         hc    193    bbb     H7   5801 0.01788900   1.008000   ; qtot 193.493206
 5802         hc    193    bbb     H8   5802 0.01788900   1.008000   ; qtot 193.511095
 5803         c3    193    bbb     C5   5803 -0.11337700  12.010000   ; qtot 193.397718
 5804         hc    193    bbb     H9   5804 0.09515400   1.008000   ; qtot 193.492872
 5805         hc    193    bbb    H10   5805 0.09515400   1.008000   ; qtot 193.588026
 5806         c3    193    bbb     C6   5806 -0.11337700  12.010000   ; qtot 193.474649
 5807         hc    193    bbb    H11   5807 0.09515400   1.008000   ; qtot 193.569803
 5808         hc    193    bbb    H12   5808 0.09515400   1.008000   ; qtot 193.664957
 5809         c3    193    bbb     C7   5809 0.21842400  12.010000   ; qtot 193.883381
 5810         h1    193    bbb    H13   5810 0.04500300   1.008000   ; qtot 193.928384
 5811         h1    193    bbb    H14   5811 0.04500300   1.008000   ; qtot 193.973387
 5812         c3    193    bbb     C8   5812 -0.06455200  12.010000   ; qtot 193.908835
 5813         h1    193    bbb    H15   5813 0.13554100   1.008000   ; qtot 194.044376
 5814         h1    193    bbb    H16   5814 0.13554100   1.008000   ; qtot 194.179917
 5815         c3    193    bbb     C9   5815 -0.06455200  12.010000   ; qtot 194.115365
 5816         h1    193    bbb    H17   5816 0.13554100   1.008000   ; qtot 194.250906
 5817         h1    193    bbb    H18   5817 0.13554100   1.008000   ; qtot 194.386447
 5818         os    193    bbb     O1   5818 -0.62587700  16.000000   ; qtot 193.760570
 5819         hn    193    bbb    H19   5819 0.23982500   1.008000   ; qtot 194.000395
; residue  194 bbb rtp bbb q 1.0
 5820         n4    194    bbb     N1   5820 0.03726400  14.010000   ; qtot 194.037659
 5821         c3    194    bbb     C1   5821 -0.07020100  12.010000   ; qtot 193.967458
 5822         hx    194    bbb     H1   5822 0.12219000   1.008000   ; qtot 194.089648
 5823         hx    194    bbb     H2   5823 0.12219000   1.008000   ; qtot 194.211838
 5824         c3    194    bbb     C2   5824 -0.07020100  12.010000   ; qtot 194.141637
 5825         hx    194    bbb     H3   5825 0.12219000   1.008000   ; qtot 194.263827
 5826         hx    194    bbb     H4   5826 0.12219000   1.008000   ; qtot 194.386017
 5827         c3    194    bbb     C3   5827 -0.39007700  12.010000   ; qtot 193.995940
 5828         hx    194    bbb     H5   5828 0.14940300   1.008000   ; qtot 194.145343
 5829         hx    194    bbb     H6   5829 0.14940300   1.008000   ; qtot 194.294746
 5830         c3    194    bbb     C4   5830 0.18057300  12.010000   ; qtot 194.475319
 5831         hc    194    bbb     H7   5831 0.01788900   1.008000   ; qtot 194.493208
 5832         hc    194    bbb     H8   5832 0.01788900   1.008000   ; qtot 194.511097
 5833         c3    194    bbb     C5   5833 -0.11337700  12.010000   ; qtot 194.397720
 5834         hc    194    bbb     H9   5834 0.09515400   1.008000   ; qtot 194.492874
 5835         hc    194    bbb    H10   5835 0.09515400   1.008000   ; qtot 194.588028
 5836         c3    194    bbb     C6   5836 -0.11337700  12.010000   ; qtot 194.474651
 5837         hc    194    bbb    H11   5837 0.09515400   1.008000   ; qtot 194.569805
 5838         hc    194    bbb    H12   5838 0.09515400   1.008000   ; qtot 194.664959
 5839         c3    194    bbb     C7   5839 0.21842400  12.010000   ; qtot 194.883383
 5840         h1    194    bbb    H13   5840 0.04500300   1.008000   ; qtot 194.928386
 5841         h1    194    bbb    H14   5841 0.04500300   1.008000   ; qtot 194.973389
 5842         c3    194    bbb     C8   5842 -0.06455200  12.010000   ; qtot 194.908837
 5843         h1    194    bbb    H15   5843 0.13554100   1.008000   ; qtot 195.044378
 5844         h1    194    bbb    H16   5844 0.13554100   1.008000   ; qtot 195.179919
 5845         c3    194    bbb     C9   5845 -0.06455200  12.010000   ; qtot 195.115367
 5846         h1    194    bbb    H17   5846 0.13554100   1.008000   ; qtot 195.250908
 5847         h1    194    bbb    H18   5847 0.13554100   1.008000   ; qtot 195.386449
 5848         os    194    bbb     O1   5848 -0.62587700  16.000000   ; qtot 194.760572
 5849         hn    194    bbb    H19   5849 0.23982500   1.008000   ; qtot 195.000397
; residue  195 bbb rtp bbb q 1.0
 5850         n4    195    bbb     N1   5850 0.03726400  14.010000   ; qtot 195.037661
 5851         c3    195    bbb     C1   5851 -0.07020100  12.010000   ; qtot 194.967460
 5852         hx    195    bbb     H1   5852 0.12219000   1.008000   ; qtot 195.089650
 5853         hx    195    bbb     H2   5853 0.12219000   1.008000   ; qtot 195.211840
 5854         c3    195    bbb     C2   5854 -0.07020100  12.010000   ; qtot 195.141639
 5855         hx    195    bbb     H3   5855 0.12219000   1.008000   ; qtot 195.263829
 5856         hx    195    bbb     H4   5856 0.12219000   1.008000   ; qtot 195.386019
 5857         c3    195    bbb     C3   5857 -0.39007700  12.010000   ; qtot 194.995942
 5858         hx    195    bbb     H5   5858 0.14940300   1.008000   ; qtot 195.145345
 5859         hx    195    bbb     H6   5859 0.14940300   1.008000   ; qtot 195.294748
 5860         c3    195    bbb     C4   5860 0.18057300  12.010000   ; qtot 195.475321
 5861         hc    195    bbb     H7   5861 0.01788900   1.008000   ; qtot 195.493210
 5862         hc    195    bbb     H8   5862 0.01788900   1.008000   ; qtot 195.511099
 5863         c3    195    bbb     C5   5863 -0.11337700  12.010000   ; qtot 195.397722
 5864         hc    195    bbb     H9   5864 0.09515400   1.008000   ; qtot 195.492876
 5865         hc    195    bbb    H10   5865 0.09515400   1.008000   ; qtot 195.588030
 5866         c3    195    bbb     C6   5866 -0.11337700  12.010000   ; qtot 195.474653
 5867         hc    195    bbb    H11   5867 0.09515400   1.008000   ; qtot 195.569807
 5868         hc    195    bbb    H12   5868 0.09515400   1.008000   ; qtot 195.664961
 5869         c3    195    bbb     C7   5869 0.21842400  12.010000   ; qtot 195.883385
 5870         h1    195    bbb    H13   5870 0.04500300   1.008000   ; qtot 195.928388
 5871         h1    195    bbb    H14   5871 0.04500300   1.008000   ; qtot 195.973391
 5872         c3    195    bbb     C8   5872 -0.06455200  12.010000   ; qtot 195.908839
 5873         h1    195    bbb    H15   5873 0.13554100   1.008000   ; qtot 196.044380
 5874         h1    195    bbb    H16   5874 0.13554100   1.008000   ; qtot 196.179921
 5875         c3    195    bbb     C9   5875 -0.06455200  12.010000   ; qtot 196.115369
 5876         h1    195    bbb    H17   5876 0.13554100   1.008000   ; qtot 196.250910
 5877         h1    195    bbb    H18   5877 0.13554100   1.008000   ; qtot 196.386451
 5878         os    195    bbb     O1   5878 -0.62587700  16.000000   ; qtot 195.760574
 5879         hn    195    bbb    H19   5879 0.23982500   1.008000   ; qtot 196.000399
; residue  196 bbb rtp bbb q 1.0
 5880         n4    196    bbb     N1   5880 0.03726400  14.010000   ; qtot 196.037663
 5881         c3    196    bbb     C1   5881 -0.07020100  12.010000   ; qtot 195.967462
 5882         hx    196    bbb     H1   5882 0.12219000   1.008000   ; qtot 196.089652
 5883         hx    196    bbb     H2   5883 0.12219000   1.008000   ; qtot 196.211842
 5884         c3    196    bbb     C2   5884 -0.07020100  12.010000   ; qtot 196.141641
 5885         hx    196    bbb     H3   5885 0.12219000   1.008000   ; qtot 196.263831
 5886         hx    196    bbb     H4   5886 0.12219000   1.008000   ; qtot 196.386021
 5887         c3    196    bbb     C3   5887 -0.39007700  12.010000   ; qtot 195.995944
 5888         hx    196    bbb     H5   5888 0.14940300   1.008000   ; qtot 196.145347
 5889         hx    196    bbb     H6   5889 0.14940300   1.008000   ; qtot 196.294750
 5890         c3    196    bbb     C4   5890 0.18057300  12.010000   ; qtot 196.475323
 5891         hc    196    bbb     H7   5891 0.01788900   1.008000   ; qtot 196.493212
 5892         hc    196    bbb     H8   5892 0.01788900   1.008000   ; qtot 196.511101
 5893         c3    196    bbb     C5   5893 -0.11337700  12.010000   ; qtot 196.397724
 5894         hc    196    bbb     H9   5894 0.09515400   1.008000   ; qtot 196.492878
 5895         hc    196    bbb    H10   5895 0.09515400   1.008000   ; qtot 196.588032
 5896         c3    196    bbb     C6   5896 -0.11337700  12.010000   ; qtot 196.474655
 5897         hc    196    bbb    H11   5897 0.09515400   1.008000   ; qtot 196.569809
 5898         hc    196    bbb    H12   5898 0.09515400   1.008000   ; qtot 196.664963
 5899         c3    196    bbb     C7   5899 0.21842400  12.010000   ; qtot 196.883387
 5900         h1    196    bbb    H13   5900 0.04500300   1.008000   ; qtot 196.928390
 5901         h1    196    bbb    H14   5901 0.04500300   1.008000   ; qtot 196.973393
 5902         c3    196    bbb     C8   5902 -0.06455200  12.010000   ; qtot 196.908841
 5903         h1    196    bbb    H15   5903 0.13554100   1.008000   ; qtot 197.044382
 5904         h1    196    bbb    H16   5904 0.13554100   1.008000   ; qtot 197.179923
 5905         c3    196    bbb     C9   5905 -0.06455200  12.010000   ; qtot 197.115371
 5906         h1    196    bbb    H17   5906 0.13554100   1.008000   ; qtot 197.250912
 5907         h1    196    bbb    H18   5907 0.13554100   1.008000   ; qtot 197.386453
 5908         os    196    bbb     O1   5908 -0.62587700  16.000000   ; qtot 196.760576
 5909         hn    196    bbb    H19   5909 0.23982500   1.008000   ; qtot 197.000401
; residue  197 bbb rtp bbb q 1.0
 5910         n4    197    bbb     N1   5910 0.03726400  14.010000   ; qtot 197.037665
 5911         c3    197    bbb     C1   5911 -0.07020100  12.010000   ; qtot 196.967464
 5912         hx    197    bbb     H1   5912 0.12219000   1.008000   ; qtot 197.089654
 5913         hx    197    bbb     H2   5913 0.12219000   1.008000   ; qtot 197.211844
 5914         c3    197    bbb     C2   5914 -0.07020100  12.010000   ; qtot 197.141643
 5915         hx    197    bbb     H3   5915 0.12219000   1.008000   ; qtot 197.263833
 5916         hx    197    bbb     H4   5916 0.12219000   1.008000   ; qtot 197.386023
 5917         c3    197    bbb     C3   5917 -0.39007700  12.010000   ; qtot 196.995946
 5918         hx    197    bbb     H5   5918 0.14940300   1.008000   ; qtot 197.145349
 5919         hx    197    bbb     H6   5919 0.14940300   1.008000   ; qtot 197.294752
 5920         c3    197    bbb     C4   5920 0.18057300  12.010000   ; qtot 197.475325
 5921         hc    197    bbb     H7   5921 0.01788900   1.008000   ; qtot 197.493214
 5922         hc    197    bbb     H8   5922 0.01788900   1.008000   ; qtot 197.511103
 5923         c3    197    bbb     C5   5923 -0.11337700  12.010000   ; qtot 197.397726
 5924         hc    197    bbb     H9   5924 0.09515400   1.008000   ; qtot 197.492880
 5925         hc    197    bbb    H10   5925 0.09515400   1.008000   ; qtot 197.588034
 5926         c3    197    bbb     C6   5926 -0.11337700  12.010000   ; qtot 197.474657
 5927         hc    197    bbb    H11   5927 0.09515400   1.008000   ; qtot 197.569811
 5928         hc    197    bbb    H12   5928 0.09515400   1.008000   ; qtot 197.664965
 5929         c3    197    bbb     C7   5929 0.21842400  12.010000   ; qtot 197.883389
 5930         h1    197    bbb    H13   5930 0.04500300   1.008000   ; qtot 197.928392
 5931         h1    197    bbb    H14   5931 0.04500300   1.008000   ; qtot 197.973395
 5932         c3    197    bbb     C8   5932 -0.06455200  12.010000   ; qtot 197.908843
 5933         h1    197    bbb    H15   5933 0.13554100   1.008000   ; qtot 198.044384
 5934         h1    197    bbb    H16   5934 0.13554100   1.008000   ; qtot 198.179925
 5935         c3    197    bbb     C9   5935 -0.06455200  12.010000   ; qtot 198.115373
 5936         h1    197    bbb    H17   5936 0.13554100   1.008000   ; qtot 198.250914
 5937         h1    197    bbb    H18   5937 0.13554100   1.008000   ; qtot 198.386455
 5938         os    197    bbb     O1   5938 -0.62587700  16.000000   ; qtot 197.760578
 5939         hn    197    bbb    H19   5939 0.23982500   1.008000   ; qtot 198.000403
; residue  198 bbb rtp bbb q 1.0
 5940         n4    198    bbb     N1   5940 0.03726400  14.010000   ; qtot 198.037667
 5941         c3    198    bbb     C1   5941 -0.07020100  12.010000   ; qtot 197.967466
 5942         hx    198    bbb     H1   5942 0.12219000   1.008000   ; qtot 198.089656
 5943         hx    198    bbb     H2   5943 0.12219000   1.008000   ; qtot 198.211846
 5944         c3    198    bbb     C2   5944 -0.07020100  12.010000   ; qtot 198.141645
 5945         hx    198    bbb     H3   5945 0.12219000   1.008000   ; qtot 198.263835
 5946         hx    198    bbb     H4   5946 0.12219000   1.008000   ; qtot 198.386025
 5947         c3    198    bbb     C3   5947 -0.39007700  12.010000   ; qtot 197.995948
 5948         hx    198    bbb     H5   5948 0.14940300   1.008000   ; qtot 198.145351
 5949         hx    198    bbb     H6   5949 0.14940300   1.008000   ; qtot 198.294754
 5950         c3    198    bbb     C4   5950 0.18057300  12.010000   ; qtot 198.475327
 5951         hc    198    bbb     H7   5951 0.01788900   1.008000   ; qtot 198.493216
 5952         hc    198    bbb     H8   5952 0.01788900   1.008000   ; qtot 198.511105
 5953         c3    198    bbb     C5   5953 -0.11337700  12.010000   ; qtot 198.397728
 5954         hc    198    bbb     H9   5954 0.09515400   1.008000   ; qtot 198.492882
 5955         hc    198    bbb    H10   5955 0.09515400   1.008000   ; qtot 198.588036
 5956         c3    198    bbb     C6   5956 -0.11337700  12.010000   ; qtot 198.474659
 5957         hc    198    bbb    H11   5957 0.09515400   1.008000   ; qtot 198.569813
 5958         hc    198    bbb    H12   5958 0.09515400   1.008000   ; qtot 198.664967
 5959         c3    198    bbb     C7   5959 0.21842400  12.010000   ; qtot 198.883391
 5960         h1    198    bbb    H13   5960 0.04500300   1.008000   ; qtot 198.928394
 5961         h1    198    bbb    H14   5961 0.04500300   1.008000   ; qtot 198.973397
 5962         c3    198    bbb     C8   5962 -0.06455200  12.010000   ; qtot 198.908845
 5963         h1    198    bbb    H15   5963 0.13554100   1.008000   ; qtot 199.044386
 5964         h1    198    bbb    H16   5964 0.13554100   1.008000   ; qtot 199.179927
 5965         c3    198    bbb     C9   5965 -0.06455200  12.010000   ; qtot 199.115375
 5966         h1    198    bbb    H17   5966 0.13554100   1.008000   ; qtot 199.250916
 5967         h1    198    bbb    H18   5967 0.13554100   1.008000   ; qtot 199.386457
 5968         os    198    bbb     O1   5968 -0.62587700  16.000000   ; qtot 198.760580
 5969         hn    198    bbb    H19   5969 0.23982500   1.008000   ; qtot 199.000405
; residue  199 bbb rtp bbb q 1.0
 5970         n4    199    bbb     N1   5970 0.03726400  14.010000   ; qtot 199.037669
 5971         c3    199    bbb     C1   5971 -0.07020100  12.010000   ; qtot 198.967468
 5972         hx    199    bbb     H1   5972 0.12219000   1.008000   ; qtot 199.089658
 5973         hx    199    bbb     H2   5973 0.12219000   1.008000   ; qtot 199.211848
 5974         c3    199    bbb     C2   5974 -0.07020100  12.010000   ; qtot 199.141647
 5975         hx    199    bbb     H3   5975 0.12219000   1.008000   ; qtot 199.263837
 5976         hx    199    bbb     H4   5976 0.12219000   1.008000   ; qtot 199.386027
 5977         c3    199    bbb     C3   5977 -0.39007700  12.010000   ; qtot 198.995950
 5978         hx    199    bbb     H5   5978 0.14940300   1.008000   ; qtot 199.145353
 5979         hx    199    bbb     H6   5979 0.14940300   1.008000   ; qtot 199.294756
 5980         c3    199    bbb     C4   5980 0.18057300  12.010000   ; qtot 199.475329
 5981         hc    199    bbb     H7   5981 0.01788900   1.008000   ; qtot 199.493218
 5982         hc    199    bbb     H8   5982 0.01788900   1.008000   ; qtot 199.511107
 5983         c3    199    bbb     C5   5983 -0.11337700  12.010000   ; qtot 199.397730
 5984         hc    199    bbb     H9   5984 0.09515400   1.008000   ; qtot 199.492884
 5985         hc    199    bbb    H10   5985 0.09515400   1.008000   ; qtot 199.588038
 5986         c3    199    bbb     C6   5986 -0.11337700  12.010000   ; qtot 199.474661
 5987         hc    199    bbb    H11   5987 0.09515400   1.008000   ; qtot 199.569815
 5988         hc    199    bbb    H12   5988 0.09515400   1.008000   ; qtot 199.664969
 5989         c3    199    bbb     C7   5989 0.21842400  12.010000   ; qtot 199.883393
 5990         h1    199    bbb    H13   5990 0.04500300   1.008000   ; qtot 199.928396
 5991         h1    199    bbb    H14   5991 0.04500300   1.008000   ; qtot 199.973399
 5992         c3    199    bbb     C8   5992 -0.06455200  12.010000   ; qtot 199.908847
 5993         h1    199    bbb    H15   5993 0.13554100   1.008000   ; qtot 200.044388
 5994         h1    199    bbb    H16   5994 0.13554100   1.008000   ; qtot 200.179929
 5995         c3    199    bbb     C9   5995 -0.06455200  12.010000   ; qtot 200.115377
 5996         h1    199    bbb    H17   5996 0.13554100   1.008000   ; qtot 200.250918
 5997         h1    199    bbb    H18   5997 0.13554100   1.008000   ; qtot 200.386459
 5998         os    199    bbb     O1   5998 -0.62587700  16.000000   ; qtot 199.760582
 5999         hn    199    bbb    H19   5999 0.23982500   1.008000   ; qtot 200.000407
; residue  200 bbb rtp bbb q 1.0
 6000         n4    200    bbb     N1   6000 0.03726400  14.010000   ; qtot 200.037671
 6001         c3    200    bbb     C1   6001 -0.07020100  12.010000   ; qtot 199.967470
 6002         hx    200    bbb     H1   6002 0.12219000   1.008000   ; qtot 200.089660
 6003         hx    200    bbb     H2   6003 0.12219000   1.008000   ; qtot 200.211850
 6004         c3    200    bbb     C2   6004 -0.07020100  12.010000   ; qtot 200.141649
 6005         hx    200    bbb     H3   6005 0.12219000   1.008000   ; qtot 200.263839
 6006         hx    200    bbb     H4   6006 0.12219000   1.008000   ; qtot 200.386029
 6007         c3    200    bbb     C3   6007 -0.39007700  12.010000   ; qtot 199.995952
 6008         hx    200    bbb     H5   6008 0.14940300   1.008000   ; qtot 200.145355
 6009         hx    200    bbb     H6   6009 0.14940300   1.008000   ; qtot 200.294758
 6010         c3    200    bbb     C4   6010 0.18057300  12.010000   ; qtot 200.475331
 6011         hc    200    bbb     H7   6011 0.01788900   1.008000   ; qtot 200.493220
 6012         hc    200    bbb     H8   6012 0.01788900   1.008000   ; qtot 200.511109
 6013         c3    200    bbb     C5   6013 -0.11337700  12.010000   ; qtot 200.397732
 6014         hc    200    bbb     H9   6014 0.09515400   1.008000   ; qtot 200.492886
 6015         hc    200    bbb    H10   6015 0.09515400   1.008000   ; qtot 200.588040
 6016         c3    200    bbb     C6   6016 -0.11337700  12.010000   ; qtot 200.474663
 6017         hc    200    bbb    H11   6017 0.09515400   1.008000   ; qtot 200.569817
 6018         hc    200    bbb    H12   6018 0.09515400   1.008000   ; qtot 200.664971
 6019         c3    200    bbb     C7   6019 0.21842400  12.010000   ; qtot 200.883395
 6020         h1    200    bbb    H13   6020 0.04500300   1.008000   ; qtot 200.928398
 6021         h1    200    bbb    H14   6021 0.04500300   1.008000   ; qtot 200.973401
 6022         c3    200    bbb     C8   6022 -0.06455200  12.010000   ; qtot 200.908849
 6023         h1    200    bbb    H15   6023 0.13554100   1.008000   ; qtot 201.044390
 6024         h1    200    bbb    H16   6024 0.13554100   1.008000   ; qtot 201.179931
 6025         c3    200    bbb     C9   6025 -0.06455200  12.010000   ; qtot 201.115379
 6026         h1    200    bbb    H17   6026 0.13554100   1.008000   ; qtot 201.250920
 6027         h1    200    bbb    H18   6027 0.13554100   1.008000   ; qtot 201.386461
 6028         os    200    bbb     O1   6028 -0.62587700  16.000000   ; qtot 200.760584
 6029         hn    200    bbb    H19   6029 0.23982500   1.008000   ; qtot 201.000409
; residue  201 bbb rtp bbb q 1.0
 6030         n4    201    bbb     N1   6030 0.03726400  14.010000   ; qtot 201.037673
 6031         c3    201    bbb     C1   6031 -0.07020100  12.010000   ; qtot 200.967472
 6032         hx    201    bbb     H1   6032 0.12219000   1.008000   ; qtot 201.089662
 6033         hx    201    bbb     H2   6033 0.12219000   1.008000   ; qtot 201.211852
 6034         c3    201    bbb     C2   6034 -0.07020100  12.010000   ; qtot 201.141651
 6035         hx    201    bbb     H3   6035 0.12219000   1.008000   ; qtot 201.263841
 6036         hx    201    bbb     H4   6036 0.12219000   1.008000   ; qtot 201.386031
 6037         c3    201    bbb     C3   6037 -0.39007700  12.010000   ; qtot 200.995954
 6038         hx    201    bbb     H5   6038 0.14940300   1.008000   ; qtot 201.145357
 6039         hx    201    bbb     H6   6039 0.14940300   1.008000   ; qtot 201.294760
 6040         c3    201    bbb     C4   6040 0.18057300  12.010000   ; qtot 201.475333
 6041         hc    201    bbb     H7   6041 0.01788900   1.008000   ; qtot 201.493222
 6042         hc    201    bbb     H8   6042 0.01788900   1.008000   ; qtot 201.511111
 6043         c3    201    bbb     C5   6043 -0.11337700  12.010000   ; qtot 201.397734
 6044         hc    201    bbb     H9   6044 0.09515400   1.008000   ; qtot 201.492888
 6045         hc    201    bbb    H10   6045 0.09515400   1.008000   ; qtot 201.588042
 6046         c3    201    bbb     C6   6046 -0.11337700  12.010000   ; qtot 201.474665
 6047         hc    201    bbb    H11   6047 0.09515400   1.008000   ; qtot 201.569819
 6048         hc    201    bbb    H12   6048 0.09515400   1.008000   ; qtot 201.664973
 6049         c3    201    bbb     C7   6049 0.21842400  12.010000   ; qtot 201.883397
 6050         h1    201    bbb    H13   6050 0.04500300   1.008000   ; qtot 201.928400
 6051         h1    201    bbb    H14   6051 0.04500300   1.008000   ; qtot 201.973403
 6052         c3    201    bbb     C8   6052 -0.06455200  12.010000   ; qtot 201.908851
 6053         h1    201    bbb    H15   6053 0.13554100   1.008000   ; qtot 202.044392
 6054         h1    201    bbb    H16   6054 0.13554100   1.008000   ; qtot 202.179933
 6055         c3    201    bbb     C9   6055 -0.06455200  12.010000   ; qtot 202.115381
 6056         h1    201    bbb    H17   6056 0.13554100   1.008000   ; qtot 202.250922
 6057         h1    201    bbb    H18   6057 0.13554100   1.008000   ; qtot 202.386463
 6058         os    201    bbb     O1   6058 -0.62587700  16.000000   ; qtot 201.760586
 6059         hn    201    bbb    H19   6059 0.23982500   1.008000   ; qtot 202.000411
; residue  202 bbb rtp bbb q 1.0
 6060         n4    202    bbb     N1   6060 0.03726400  14.010000   ; qtot 202.037675
 6061         c3    202    bbb     C1   6061 -0.07020100  12.010000   ; qtot 201.967474
 6062         hx    202    bbb     H1   6062 0.12219000   1.008000   ; qtot 202.089664
 6063         hx    202    bbb     H2   6063 0.12219000   1.008000   ; qtot 202.211854
 6064         c3    202    bbb     C2   6064 -0.07020100  12.010000   ; qtot 202.141653
 6065         hx    202    bbb     H3   6065 0.12219000   1.008000   ; qtot 202.263843
 6066         hx    202    bbb     H4   6066 0.12219000   1.008000   ; qtot 202.386033
 6067         c3    202    bbb     C3   6067 -0.39007700  12.010000   ; qtot 201.995956
 6068         hx    202    bbb     H5   6068 0.14940300   1.008000   ; qtot 202.145359
 6069         hx    202    bbb     H6   6069 0.14940300   1.008000   ; qtot 202.294762
 6070         c3    202    bbb     C4   6070 0.18057300  12.010000   ; qtot 202.475335
 6071         hc    202    bbb     H7   6071 0.01788900   1.008000   ; qtot 202.493224
 6072         hc    202    bbb     H8   6072 0.01788900   1.008000   ; qtot 202.511113
 6073         c3    202    bbb     C5   6073 -0.11337700  12.010000   ; qtot 202.397736
 6074         hc    202    bbb     H9   6074 0.09515400   1.008000   ; qtot 202.492890
 6075         hc    202    bbb    H10   6075 0.09515400   1.008000   ; qtot 202.588044
 6076         c3    202    bbb     C6   6076 -0.11337700  12.010000   ; qtot 202.474667
 6077         hc    202    bbb    H11   6077 0.09515400   1.008000   ; qtot 202.569821
 6078         hc    202    bbb    H12   6078 0.09515400   1.008000   ; qtot 202.664975
 6079         c3    202    bbb     C7   6079 0.21842400  12.010000   ; qtot 202.883399
 6080         h1    202    bbb    H13   6080 0.04500300   1.008000   ; qtot 202.928402
 6081         h1    202    bbb    H14   6081 0.04500300   1.008000   ; qtot 202.973405
 6082         c3    202    bbb     C8   6082 -0.06455200  12.010000   ; qtot 202.908853
 6083         h1    202    bbb    H15   6083 0.13554100   1.008000   ; qtot 203.044394
 6084         h1    202    bbb    H16   6084 0.13554100   1.008000   ; qtot 203.179935
 6085         c3    202    bbb     C9   6085 -0.06455200  12.010000   ; qtot 203.115383
 6086         h1    202    bbb    H17   6086 0.13554100   1.008000   ; qtot 203.250924
 6087         h1    202    bbb    H18   6087 0.13554100   1.008000   ; qtot 203.386465
 6088         os    202    bbb     O1   6088 -0.62587700  16.000000   ; qtot 202.760588
 6089         hn    202    bbb    H19   6089 0.23982500   1.008000   ; qtot 203.000413
; residue  203 bbb rtp bbb q 1.0
 6090         n4    203    bbb     N1   6090 0.03726400  14.010000   ; qtot 203.037677
 6091         c3    203    bbb     C1   6091 -0.07020100  12.010000   ; qtot 202.967476
 6092         hx    203    bbb     H1   6092 0.12219000   1.008000   ; qtot 203.089666
 6093         hx    203    bbb     H2   6093 0.12219000   1.008000   ; qtot 203.211856
 6094         c3    203    bbb     C2   6094 -0.07020100  12.010000   ; qtot 203.141655
 6095         hx    203    bbb     H3   6095 0.12219000   1.008000   ; qtot 203.263845
 6096         hx    203    bbb     H4   6096 0.12219000   1.008000   ; qtot 203.386035
 6097         c3    203    bbb     C3   6097 -0.39007700  12.010000   ; qtot 202.995958
 6098         hx    203    bbb     H5   6098 0.14940300   1.008000   ; qtot 203.145361
 6099         hx    203    bbb     H6   6099 0.14940300   1.008000   ; qtot 203.294764
 6100         c3    203    bbb     C4   6100 0.18057300  12.010000   ; qtot 203.475337
 6101         hc    203    bbb     H7   6101 0.01788900   1.008000   ; qtot 203.493226
 6102         hc    203    bbb     H8   6102 0.01788900   1.008000   ; qtot 203.511115
 6103         c3    203    bbb     C5   6103 -0.11337700  12.010000   ; qtot 203.397738
 6104         hc    203    bbb     H9   6104 0.09515400   1.008000   ; qtot 203.492892
 6105         hc    203    bbb    H10   6105 0.09515400   1.008000   ; qtot 203.588046
 6106         c3    203    bbb     C6   6106 -0.11337700  12.010000   ; qtot 203.474669
 6107         hc    203    bbb    H11   6107 0.09515400   1.008000   ; qtot 203.569823
 6108         hc    203    bbb    H12   6108 0.09515400   1.008000   ; qtot 203.664977
 6109         c3    203    bbb     C7   6109 0.21842400  12.010000   ; qtot 203.883401
 6110         h1    203    bbb    H13   6110 0.04500300   1.008000   ; qtot 203.928404
 6111         h1    203    bbb    H14   6111 0.04500300   1.008000   ; qtot 203.973407
 6112         c3    203    bbb     C8   6112 -0.06455200  12.010000   ; qtot 203.908855
 6113         h1    203    bbb    H15   6113 0.13554100   1.008000   ; qtot 204.044396
 6114         h1    203    bbb    H16   6114 0.13554100   1.008000   ; qtot 204.179937
 6115         c3    203    bbb     C9   6115 -0.06455200  12.010000   ; qtot 204.115385
 6116         h1    203    bbb    H17   6116 0.13554100   1.008000   ; qtot 204.250926
 6117         h1    203    bbb    H18   6117 0.13554100   1.008000   ; qtot 204.386467
 6118         os    203    bbb     O1   6118 -0.62587700  16.000000   ; qtot 203.760590
 6119         hn    203    bbb    H19   6119 0.23982500   1.008000   ; qtot 204.000415
; residue  204 bbb rtp bbb q 1.0
 6120         n4    204    bbb     N1   6120 0.03726400  14.010000   ; qtot 204.037679
 6121         c3    204    bbb     C1   6121 -0.07020100  12.010000   ; qtot 203.967478
 6122         hx    204    bbb     H1   6122 0.12219000   1.008000   ; qtot 204.089668
 6123         hx    204    bbb     H2   6123 0.12219000   1.008000   ; qtot 204.211858
 6124         c3    204    bbb     C2   6124 -0.07020100  12.010000   ; qtot 204.141657
 6125         hx    204    bbb     H3   6125 0.12219000   1.008000   ; qtot 204.263847
 6126         hx    204    bbb     H4   6126 0.12219000   1.008000   ; qtot 204.386037
 6127         c3    204    bbb     C3   6127 -0.39007700  12.010000   ; qtot 203.995960
 6128         hx    204    bbb     H5   6128 0.14940300   1.008000   ; qtot 204.145363
 6129         hx    204    bbb     H6   6129 0.14940300   1.008000   ; qtot 204.294766
 6130         c3    204    bbb     C4   6130 0.18057300  12.010000   ; qtot 204.475339
 6131         hc    204    bbb     H7   6131 0.01788900   1.008000   ; qtot 204.493228
 6132         hc    204    bbb     H8   6132 0.01788900   1.008000   ; qtot 204.511117
 6133         c3    204    bbb     C5   6133 -0.11337700  12.010000   ; qtot 204.397740
 6134         hc    204    bbb     H9   6134 0.09515400   1.008000   ; qtot 204.492894
 6135         hc    204    bbb    H10   6135 0.09515400   1.008000   ; qtot 204.588048
 6136         c3    204    bbb     C6   6136 -0.11337700  12.010000   ; qtot 204.474671
 6137         hc    204    bbb    H11   6137 0.09515400   1.008000   ; qtot 204.569825
 6138         hc    204    bbb    H12   6138 0.09515400   1.008000   ; qtot 204.664979
 6139         c3    204    bbb     C7   6139 0.21842400  12.010000   ; qtot 204.883403
 6140         h1    204    bbb    H13   6140 0.04500300   1.008000   ; qtot 204.928406
 6141         h1    204    bbb    H14   6141 0.04500300   1.008000   ; qtot 204.973409
 6142         c3    204    bbb     C8   6142 -0.06455200  12.010000   ; qtot 204.908857
 6143         h1    204    bbb    H15   6143 0.13554100   1.008000   ; qtot 205.044398
 6144         h1    204    bbb    H16   6144 0.13554100   1.008000   ; qtot 205.179939
 6145         c3    204    bbb     C9   6145 -0.06455200  12.010000   ; qtot 205.115387
 6146         h1    204    bbb    H17   6146 0.13554100   1.008000   ; qtot 205.250928
 6147         h1    204    bbb    H18   6147 0.13554100   1.008000   ; qtot 205.386469
 6148         os    204    bbb     O1   6148 -0.62587700  16.000000   ; qtot 204.760592
 6149         hn    204    bbb    H19   6149 0.23982500   1.008000   ; qtot 205.000417
; residue  205 bbb rtp bbb q 1.0
 6150         n4    205    bbb     N1   6150 0.03726400  14.010000   ; qtot 205.037681
 6151         c3    205    bbb     C1   6151 -0.07020100  12.010000   ; qtot 204.967480
 6152         hx    205    bbb     H1   6152 0.12219000   1.008000   ; qtot 205.089670
 6153         hx    205    bbb     H2   6153 0.12219000   1.008000   ; qtot 205.211860
 6154         c3    205    bbb     C2   6154 -0.07020100  12.010000   ; qtot 205.141659
 6155         hx    205    bbb     H3   6155 0.12219000   1.008000   ; qtot 205.263849
 6156         hx    205    bbb     H4   6156 0.12219000   1.008000   ; qtot 205.386039
 6157         c3    205    bbb     C3   6157 -0.39007700  12.010000   ; qtot 204.995962
 6158         hx    205    bbb     H5   6158 0.14940300   1.008000   ; qtot 205.145365
 6159         hx    205    bbb     H6   6159 0.14940300   1.008000   ; qtot 205.294768
 6160         c3    205    bbb     C4   6160 0.18057300  12.010000   ; qtot 205.475341
 6161         hc    205    bbb     H7   6161 0.01788900   1.008000   ; qtot 205.493230
 6162         hc    205    bbb     H8   6162 0.01788900   1.008000   ; qtot 205.511119
 6163         c3    205    bbb     C5   6163 -0.11337700  12.010000   ; qtot 205.397742
 6164         hc    205    bbb     H9   6164 0.09515400   1.008000   ; qtot 205.492896
 6165         hc    205    bbb    H10   6165 0.09515400   1.008000   ; qtot 205.588050
 6166         c3    205    bbb     C6   6166 -0.11337700  12.010000   ; qtot 205.474673
 6167         hc    205    bbb    H11   6167 0.09515400   1.008000   ; qtot 205.569827
 6168         hc    205    bbb    H12   6168 0.09515400   1.008000   ; qtot 205.664981
 6169         c3    205    bbb     C7   6169 0.21842400  12.010000   ; qtot 205.883405
 6170         h1    205    bbb    H13   6170 0.04500300   1.008000   ; qtot 205.928408
 6171         h1    205    bbb    H14   6171 0.04500300   1.008000   ; qtot 205.973411
 6172         c3    205    bbb     C8   6172 -0.06455200  12.010000   ; qtot 205.908859
 6173         h1    205    bbb    H15   6173 0.13554100   1.008000   ; qtot 206.044400
 6174         h1    205    bbb    H16   6174 0.13554100   1.008000   ; qtot 206.179941
 6175         c3    205    bbb     C9   6175 -0.06455200  12.010000   ; qtot 206.115389
 6176         h1    205    bbb    H17   6176 0.13554100   1.008000   ; qtot 206.250930
 6177         h1    205    bbb    H18   6177 0.13554100   1.008000   ; qtot 206.386471
 6178         os    205    bbb     O1   6178 -0.62587700  16.000000   ; qtot 205.760594
 6179         hn    205    bbb    H19   6179 0.23982500   1.008000   ; qtot 206.000419
; residue  206 bbb rtp bbb q 1.0
 6180         n4    206    bbb     N1   6180 0.03726400  14.010000   ; qtot 206.037683
 6181         c3    206    bbb     C1   6181 -0.07020100  12.010000   ; qtot 205.967482
 6182         hx    206    bbb     H1   6182 0.12219000   1.008000   ; qtot 206.089672
 6183         hx    206    bbb     H2   6183 0.12219000   1.008000   ; qtot 206.211862
 6184         c3    206    bbb     C2   6184 -0.07020100  12.010000   ; qtot 206.141661
 6185         hx    206    bbb     H3   6185 0.12219000   1.008000   ; qtot 206.263851
 6186         hx    206    bbb     H4   6186 0.12219000   1.008000   ; qtot 206.386041
 6187         c3    206    bbb     C3   6187 -0.39007700  12.010000   ; qtot 205.995964
 6188         hx    206    bbb     H5   6188 0.14940300   1.008000   ; qtot 206.145367
 6189         hx    206    bbb     H6   6189 0.14940300   1.008000   ; qtot 206.294770
 6190         c3    206    bbb     C4   6190 0.18057300  12.010000   ; qtot 206.475343
 6191         hc    206    bbb     H7   6191 0.01788900   1.008000   ; qtot 206.493232
 6192         hc    206    bbb     H8   6192 0.01788900   1.008000   ; qtot 206.511121
 6193         c3    206    bbb     C5   6193 -0.11337700  12.010000   ; qtot 206.397744
 6194         hc    206    bbb     H9   6194 0.09515400   1.008000   ; qtot 206.492898
 6195         hc    206    bbb    H10   6195 0.09515400   1.008000   ; qtot 206.588052
 6196         c3    206    bbb     C6   6196 -0.11337700  12.010000   ; qtot 206.474675
 6197         hc    206    bbb    H11   6197 0.09515400   1.008000   ; qtot 206.569829
 6198         hc    206    bbb    H12   6198 0.09515400   1.008000   ; qtot 206.664983
 6199         c3    206    bbb     C7   6199 0.21842400  12.010000   ; qtot 206.883407
 6200         h1    206    bbb    H13   6200 0.04500300   1.008000   ; qtot 206.928410
 6201         h1    206    bbb    H14   6201 0.04500300   1.008000   ; qtot 206.973413
 6202         c3    206    bbb     C8   6202 -0.06455200  12.010000   ; qtot 206.908861
 6203         h1    206    bbb    H15   6203 0.13554100   1.008000   ; qtot 207.044402
 6204         h1    206    bbb    H16   6204 0.13554100   1.008000   ; qtot 207.179943
 6205         c3    206    bbb     C9   6205 -0.06455200  12.010000   ; qtot 207.115391
 6206         h1    206    bbb    H17   6206 0.13554100   1.008000   ; qtot 207.250932
 6207         h1    206    bbb    H18   6207 0.13554100   1.008000   ; qtot 207.386473
 6208         os    206    bbb     O1   6208 -0.62587700  16.000000   ; qtot 206.760596
 6209         hn    206    bbb    H19   6209 0.23982500   1.008000   ; qtot 207.000421
; residue  207 bbb rtp bbb q 1.0
 6210         n4    207    bbb     N1   6210 0.03726400  14.010000   ; qtot 207.037685
 6211         c3    207    bbb     C1   6211 -0.07020100  12.010000   ; qtot 206.967484
 6212         hx    207    bbb     H1   6212 0.12219000   1.008000   ; qtot 207.089674
 6213         hx    207    bbb     H2   6213 0.12219000   1.008000   ; qtot 207.211864
 6214         c3    207    bbb     C2   6214 -0.07020100  12.010000   ; qtot 207.141663
 6215         hx    207    bbb     H3   6215 0.12219000   1.008000   ; qtot 207.263853
 6216         hx    207    bbb     H4   6216 0.12219000   1.008000   ; qtot 207.386043
 6217         c3    207    bbb     C3   6217 -0.39007700  12.010000   ; qtot 206.995966
 6218         hx    207    bbb     H5   6218 0.14940300   1.008000   ; qtot 207.145369
 6219         hx    207    bbb     H6   6219 0.14940300   1.008000   ; qtot 207.294772
 6220         c3    207    bbb     C4   6220 0.18057300  12.010000   ; qtot 207.475345
 6221         hc    207    bbb     H7   6221 0.01788900   1.008000   ; qtot 207.493234
 6222         hc    207    bbb     H8   6222 0.01788900   1.008000   ; qtot 207.511123
 6223         c3    207    bbb     C5   6223 -0.11337700  12.010000   ; qtot 207.397746
 6224         hc    207    bbb     H9   6224 0.09515400   1.008000   ; qtot 207.492900
 6225         hc    207    bbb    H10   6225 0.09515400   1.008000   ; qtot 207.588054
 6226         c3    207    bbb     C6   6226 -0.11337700  12.010000   ; qtot 207.474677
 6227         hc    207    bbb    H11   6227 0.09515400   1.008000   ; qtot 207.569831
 6228         hc    207    bbb    H12   6228 0.09515400   1.008000   ; qtot 207.664985
 6229         c3    207    bbb     C7   6229 0.21842400  12.010000   ; qtot 207.883409
 6230         h1    207    bbb    H13   6230 0.04500300   1.008000   ; qtot 207.928412
 6231         h1    207    bbb    H14   6231 0.04500300   1.008000   ; qtot 207.973415
 6232         c3    207    bbb     C8   6232 -0.06455200  12.010000   ; qtot 207.908863
 6233         h1    207    bbb    H15   6233 0.13554100   1.008000   ; qtot 208.044404
 6234         h1    207    bbb    H16   6234 0.13554100   1.008000   ; qtot 208.179945
 6235         c3    207    bbb     C9   6235 -0.06455200  12.010000   ; qtot 208.115393
 6236         h1    207    bbb    H17   6236 0.13554100   1.008000   ; qtot 208.250934
 6237         h1    207    bbb    H18   6237 0.13554100   1.008000   ; qtot 208.386475
 6238         os    207    bbb     O1   6238 -0.62587700  16.000000   ; qtot 207.760598
 6239         hn    207    bbb    H19   6239 0.23982500   1.008000   ; qtot 208.000423
; residue  208 bbb rtp bbb q 1.0
 6240         n4    208    bbb     N1   6240 0.03726400  14.010000   ; qtot 208.037687
 6241         c3    208    bbb     C1   6241 -0.07020100  12.010000   ; qtot 207.967486
 6242         hx    208    bbb     H1   6242 0.12219000   1.008000   ; qtot 208.089676
 6243         hx    208    bbb     H2   6243 0.12219000   1.008000   ; qtot 208.211866
 6244         c3    208    bbb     C2   6244 -0.07020100  12.010000   ; qtot 208.141665
 6245         hx    208    bbb     H3   6245 0.12219000   1.008000   ; qtot 208.263855
 6246         hx    208    bbb     H4   6246 0.12219000   1.008000   ; qtot 208.386045
 6247         c3    208    bbb     C3   6247 -0.39007700  12.010000   ; qtot 207.995968
 6248         hx    208    bbb     H5   6248 0.14940300   1.008000   ; qtot 208.145371
 6249         hx    208    bbb     H6   6249 0.14940300   1.008000   ; qtot 208.294774
 6250         c3    208    bbb     C4   6250 0.18057300  12.010000   ; qtot 208.475347
 6251         hc    208    bbb     H7   6251 0.01788900   1.008000   ; qtot 208.493236
 6252         hc    208    bbb     H8   6252 0.01788900   1.008000   ; qtot 208.511125
 6253         c3    208    bbb     C5   6253 -0.11337700  12.010000   ; qtot 208.397748
 6254         hc    208    bbb     H9   6254 0.09515400   1.008000   ; qtot 208.492902
 6255         hc    208    bbb    H10   6255 0.09515400   1.008000   ; qtot 208.588056
 6256         c3    208    bbb     C6   6256 -0.11337700  12.010000   ; qtot 208.474679
 6257         hc    208    bbb    H11   6257 0.09515400   1.008000   ; qtot 208.569833
 6258         hc    208    bbb    H12   6258 0.09515400   1.008000   ; qtot 208.664987
 6259         c3    208    bbb     C7   6259 0.21842400  12.010000   ; qtot 208.883411
 6260         h1    208    bbb    H13   6260 0.04500300   1.008000   ; qtot 208.928414
 6261         h1    208    bbb    H14   6261 0.04500300   1.008000   ; qtot 208.973417
 6262         c3    208    bbb     C8   6262 -0.06455200  12.010000   ; qtot 208.908865
 6263         h1    208    bbb    H15   6263 0.13554100   1.008000   ; qtot 209.044406
 6264         h1    208    bbb    H16   6264 0.13554100   1.008000   ; qtot 209.179947
 6265         c3    208    bbb     C9   6265 -0.06455200  12.010000   ; qtot 209.115395
 6266         h1    208    bbb    H17   6266 0.13554100   1.008000   ; qtot 209.250936
 6267         h1    208    bbb    H18   6267 0.13554100   1.008000   ; qtot 209.386477
 6268         os    208    bbb     O1   6268 -0.62587700  16.000000   ; qtot 208.760600
 6269         hn    208    bbb    H19   6269 0.23982500   1.008000   ; qtot 209.000425
; residue  209 bbb rtp bbb q 1.0
 6270         n4    209    bbb     N1   6270 0.03726400  14.010000   ; qtot 209.037689
 6271         c3    209    bbb     C1   6271 -0.07020100  12.010000   ; qtot 208.967488
 6272         hx    209    bbb     H1   6272 0.12219000   1.008000   ; qtot 209.089678
 6273         hx    209    bbb     H2   6273 0.12219000   1.008000   ; qtot 209.211868
 6274         c3    209    bbb     C2   6274 -0.07020100  12.010000   ; qtot 209.141667
 6275         hx    209    bbb     H3   6275 0.12219000   1.008000   ; qtot 209.263857
 6276         hx    209    bbb     H4   6276 0.12219000   1.008000   ; qtot 209.386047
 6277         c3    209    bbb     C3   6277 -0.39007700  12.010000   ; qtot 208.995970
 6278         hx    209    bbb     H5   6278 0.14940300   1.008000   ; qtot 209.145373
 6279         hx    209    bbb     H6   6279 0.14940300   1.008000   ; qtot 209.294776
 6280         c3    209    bbb     C4   6280 0.18057300  12.010000   ; qtot 209.475349
 6281         hc    209    bbb     H7   6281 0.01788900   1.008000   ; qtot 209.493238
 6282         hc    209    bbb     H8   6282 0.01788900   1.008000   ; qtot 209.511127
 6283         c3    209    bbb     C5   6283 -0.11337700  12.010000   ; qtot 209.397750
 6284         hc    209    bbb     H9   6284 0.09515400   1.008000   ; qtot 209.492904
 6285         hc    209    bbb    H10   6285 0.09515400   1.008000   ; qtot 209.588058
 6286         c3    209    bbb     C6   6286 -0.11337700  12.010000   ; qtot 209.474681
 6287         hc    209    bbb    H11   6287 0.09515400   1.008000   ; qtot 209.569835
 6288         hc    209    bbb    H12   6288 0.09515400   1.008000   ; qtot 209.664989
 6289         c3    209    bbb     C7   6289 0.21842400  12.010000   ; qtot 209.883413
 6290         h1    209    bbb    H13   6290 0.04500300   1.008000   ; qtot 209.928416
 6291         h1    209    bbb    H14   6291 0.04500300   1.008000   ; qtot 209.973419
 6292         c3    209    bbb     C8   6292 -0.06455200  12.010000   ; qtot 209.908867
 6293         h1    209    bbb    H15   6293 0.13554100   1.008000   ; qtot 210.044408
 6294         h1    209    bbb    H16   6294 0.13554100   1.008000   ; qtot 210.179949
 6295         c3    209    bbb     C9   6295 -0.06455200  12.010000   ; qtot 210.115397
 6296         h1    209    bbb    H17   6296 0.13554100   1.008000   ; qtot 210.250938
 6297         h1    209    bbb    H18   6297 0.13554100   1.008000   ; qtot 210.386479
 6298         os    209    bbb     O1   6298 -0.62587700  16.000000   ; qtot 209.760602
 6299         hn    209    bbb    H19   6299 0.23982500   1.008000   ; qtot 210.000427
; residue  210 bbb rtp bbb q 1.0
 6300         n4    210    bbb     N1   6300 0.03726400  14.010000   ; qtot 210.037691
 6301         c3    210    bbb     C1   6301 -0.07020100  12.010000   ; qtot 209.967490
 6302         hx    210    bbb     H1   6302 0.12219000   1.008000   ; qtot 210.089680
 6303         hx    210    bbb     H2   6303 0.12219000   1.008000   ; qtot 210.211870
 6304         c3    210    bbb     C2   6304 -0.07020100  12.010000   ; qtot 210.141669
 6305         hx    210    bbb     H3   6305 0.12219000   1.008000   ; qtot 210.263859
 6306         hx    210    bbb     H4   6306 0.12219000   1.008000   ; qtot 210.386049
 6307         c3    210    bbb     C3   6307 -0.39007700  12.010000   ; qtot 209.995972
 6308         hx    210    bbb     H5   6308 0.14940300   1.008000   ; qtot 210.145375
 6309         hx    210    bbb     H6   6309 0.14940300   1.008000   ; qtot 210.294778
 6310         c3    210    bbb     C4   6310 0.18057300  12.010000   ; qtot 210.475351
 6311         hc    210    bbb     H7   6311 0.01788900   1.008000   ; qtot 210.493240
 6312         hc    210    bbb     H8   6312 0.01788900   1.008000   ; qtot 210.511129
 6313         c3    210    bbb     C5   6313 -0.11337700  12.010000   ; qtot 210.397752
 6314         hc    210    bbb     H9   6314 0.09515400   1.008000   ; qtot 210.492906
 6315         hc    210    bbb    H10   6315 0.09515400   1.008000   ; qtot 210.588060
 6316         c3    210    bbb     C6   6316 -0.11337700  12.010000   ; qtot 210.474683
 6317         hc    210    bbb    H11   6317 0.09515400   1.008000   ; qtot 210.569837
 6318         hc    210    bbb    H12   6318 0.09515400   1.008000   ; qtot 210.664991
 6319         c3    210    bbb     C7   6319 0.21842400  12.010000   ; qtot 210.883415
 6320         h1    210    bbb    H13   6320 0.04500300   1.008000   ; qtot 210.928418
 6321         h1    210    bbb    H14   6321 0.04500300   1.008000   ; qtot 210.973421
 6322         c3    210    bbb     C8   6322 -0.06455200  12.010000   ; qtot 210.908869
 6323         h1    210    bbb    H15   6323 0.13554100   1.008000   ; qtot 211.044410
 6324         h1    210    bbb    H16   6324 0.13554100   1.008000   ; qtot 211.179951
 6325         c3    210    bbb     C9   6325 -0.06455200  12.010000   ; qtot 211.115399
 6326         h1    210    bbb    H17   6326 0.13554100   1.008000   ; qtot 211.250940
 6327         h1    210    bbb    H18   6327 0.13554100   1.008000   ; qtot 211.386481
 6328         os    210    bbb     O1   6328 -0.62587700  16.000000   ; qtot 210.760604
 6329         hn    210    bbb    H19   6329 0.23982500   1.008000   ; qtot 211.000429
; residue  211 bbb rtp bbb q 1.0
 6330         n4    211    bbb     N1   6330 0.03726400  14.010000   ; qtot 211.037693
 6331         c3    211    bbb     C1   6331 -0.07020100  12.010000   ; qtot 210.967492
 6332         hx    211    bbb     H1   6332 0.12219000   1.008000   ; qtot 211.089682
 6333         hx    211    bbb     H2   6333 0.12219000   1.008000   ; qtot 211.211872
 6334         c3    211    bbb     C2   6334 -0.07020100  12.010000   ; qtot 211.141671
 6335         hx    211    bbb     H3   6335 0.12219000   1.008000   ; qtot 211.263861
 6336         hx    211    bbb     H4   6336 0.12219000   1.008000   ; qtot 211.386051
 6337         c3    211    bbb     C3   6337 -0.39007700  12.010000   ; qtot 210.995974
 6338         hx    211    bbb     H5   6338 0.14940300   1.008000   ; qtot 211.145377
 6339         hx    211    bbb     H6   6339 0.14940300   1.008000   ; qtot 211.294780
 6340         c3    211    bbb     C4   6340 0.18057300  12.010000   ; qtot 211.475353
 6341         hc    211    bbb     H7   6341 0.01788900   1.008000   ; qtot 211.493242
 6342         hc    211    bbb     H8   6342 0.01788900   1.008000   ; qtot 211.511131
 6343         c3    211    bbb     C5   6343 -0.11337700  12.010000   ; qtot 211.397754
 6344         hc    211    bbb     H9   6344 0.09515400   1.008000   ; qtot 211.492908
 6345         hc    211    bbb    H10   6345 0.09515400   1.008000   ; qtot 211.588062
 6346         c3    211    bbb     C6   6346 -0.11337700  12.010000   ; qtot 211.474685
 6347         hc    211    bbb    H11   6347 0.09515400   1.008000   ; qtot 211.569839
 6348         hc    211    bbb    H12   6348 0.09515400   1.008000   ; qtot 211.664993
 6349         c3    211    bbb     C7   6349 0.21842400  12.010000   ; qtot 211.883417
 6350         h1    211    bbb    H13   6350 0.04500300   1.008000   ; qtot 211.928420
 6351         h1    211    bbb    H14   6351 0.04500300   1.008000   ; qtot 211.973423
 6352         c3    211    bbb     C8   6352 -0.06455200  12.010000   ; qtot 211.908871
 6353         h1    211    bbb    H15   6353 0.13554100   1.008000   ; qtot 212.044412
 6354         h1    211    bbb    H16   6354 0.13554100   1.008000   ; qtot 212.179953
 6355         c3    211    bbb     C9   6355 -0.06455200  12.010000   ; qtot 212.115401
 6356         h1    211    bbb    H17   6356 0.13554100   1.008000   ; qtot 212.250942
 6357         h1    211    bbb    H18   6357 0.13554100   1.008000   ; qtot 212.386483
 6358         os    211    bbb     O1   6358 -0.62587700  16.000000   ; qtot 211.760606
 6359         hn    211    bbb    H19   6359 0.23982500   1.008000   ; qtot 212.000431
; residue  212 bbb rtp bbb q 1.0
 6360         n4    212    bbb     N1   6360 0.03726400  14.010000   ; qtot 212.037695
 6361         c3    212    bbb     C1   6361 -0.07020100  12.010000   ; qtot 211.967494
 6362         hx    212    bbb     H1   6362 0.12219000   1.008000   ; qtot 212.089684
 6363         hx    212    bbb     H2   6363 0.12219000   1.008000   ; qtot 212.211874
 6364         c3    212    bbb     C2   6364 -0.07020100  12.010000   ; qtot 212.141673
 6365         hx    212    bbb     H3   6365 0.12219000   1.008000   ; qtot 212.263863
 6366         hx    212    bbb     H4   6366 0.12219000   1.008000   ; qtot 212.386053
 6367         c3    212    bbb     C3   6367 -0.39007700  12.010000   ; qtot 211.995976
 6368         hx    212    bbb     H5   6368 0.14940300   1.008000   ; qtot 212.145379
 6369         hx    212    bbb     H6   6369 0.14940300   1.008000   ; qtot 212.294782
 6370         c3    212    bbb     C4   6370 0.18057300  12.010000   ; qtot 212.475355
 6371         hc    212    bbb     H7   6371 0.01788900   1.008000   ; qtot 212.493244
 6372         hc    212    bbb     H8   6372 0.01788900   1.008000   ; qtot 212.511133
 6373         c3    212    bbb     C5   6373 -0.11337700  12.010000   ; qtot 212.397756
 6374         hc    212    bbb     H9   6374 0.09515400   1.008000   ; qtot 212.492910
 6375         hc    212    bbb    H10   6375 0.09515400   1.008000   ; qtot 212.588064
 6376         c3    212    bbb     C6   6376 -0.11337700  12.010000   ; qtot 212.474687
 6377         hc    212    bbb    H11   6377 0.09515400   1.008000   ; qtot 212.569841
 6378         hc    212    bbb    H12   6378 0.09515400   1.008000   ; qtot 212.664995
 6379         c3    212    bbb     C7   6379 0.21842400  12.010000   ; qtot 212.883419
 6380         h1    212    bbb    H13   6380 0.04500300   1.008000   ; qtot 212.928422
 6381         h1    212    bbb    H14   6381 0.04500300   1.008000   ; qtot 212.973425
 6382         c3    212    bbb     C8   6382 -0.06455200  12.010000   ; qtot 212.908873
 6383         h1    212    bbb    H15   6383 0.13554100   1.008000   ; qtot 213.044414
 6384         h1    212    bbb    H16   6384 0.13554100   1.008000   ; qtot 213.179955
 6385         c3    212    bbb     C9   6385 -0.06455200  12.010000   ; qtot 213.115403
 6386         h1    212    bbb    H17   6386 0.13554100   1.008000   ; qtot 213.250944
 6387         h1    212    bbb    H18   6387 0.13554100   1.008000   ; qtot 213.386485
 6388         os    212    bbb     O1   6388 -0.62587700  16.000000   ; qtot 212.760608
 6389         hn    212    bbb    H19   6389 0.23982500   1.008000   ; qtot 213.000433
; residue  213 bbb rtp bbb q 1.0
 6390         n4    213    bbb     N1   6390 0.03726400  14.010000   ; qtot 213.037697
 6391         c3    213    bbb     C1   6391 -0.07020100  12.010000   ; qtot 212.967496
 6392         hx    213    bbb     H1   6392 0.12219000   1.008000   ; qtot 213.089686
 6393         hx    213    bbb     H2   6393 0.12219000   1.008000   ; qtot 213.211876
 6394         c3    213    bbb     C2   6394 -0.07020100  12.010000   ; qtot 213.141675
 6395         hx    213    bbb     H3   6395 0.12219000   1.008000   ; qtot 213.263865
 6396         hx    213    bbb     H4   6396 0.12219000   1.008000   ; qtot 213.386055
 6397         c3    213    bbb     C3   6397 -0.39007700  12.010000   ; qtot 212.995978
 6398         hx    213    bbb     H5   6398 0.14940300   1.008000   ; qtot 213.145381
 6399         hx    213    bbb     H6   6399 0.14940300   1.008000   ; qtot 213.294784
 6400         c3    213    bbb     C4   6400 0.18057300  12.010000   ; qtot 213.475357
 6401         hc    213    bbb     H7   6401 0.01788900   1.008000   ; qtot 213.493246
 6402         hc    213    bbb     H8   6402 0.01788900   1.008000   ; qtot 213.511135
 6403         c3    213    bbb     C5   6403 -0.11337700  12.010000   ; qtot 213.397758
 6404         hc    213    bbb     H9   6404 0.09515400   1.008000   ; qtot 213.492912
 6405         hc    213    bbb    H10   6405 0.09515400   1.008000   ; qtot 213.588066
 6406         c3    213    bbb     C6   6406 -0.11337700  12.010000   ; qtot 213.474689
 6407         hc    213    bbb    H11   6407 0.09515400   1.008000   ; qtot 213.569843
 6408         hc    213    bbb    H12   6408 0.09515400   1.008000   ; qtot 213.664997
 6409         c3    213    bbb     C7   6409 0.21842400  12.010000   ; qtot 213.883421
 6410         h1    213    bbb    H13   6410 0.04500300   1.008000   ; qtot 213.928424
 6411         h1    213    bbb    H14   6411 0.04500300   1.008000   ; qtot 213.973427
 6412         c3    213    bbb     C8   6412 -0.06455200  12.010000   ; qtot 213.908875
 6413         h1    213    bbb    H15   6413 0.13554100   1.008000   ; qtot 214.044416
 6414         h1    213    bbb    H16   6414 0.13554100   1.008000   ; qtot 214.179957
 6415         c3    213    bbb     C9   6415 -0.06455200  12.010000   ; qtot 214.115405
 6416         h1    213    bbb    H17   6416 0.13554100   1.008000   ; qtot 214.250946
 6417         h1    213    bbb    H18   6417 0.13554100   1.008000   ; qtot 214.386487
 6418         os    213    bbb     O1   6418 -0.62587700  16.000000   ; qtot 213.760610
 6419         hn    213    bbb    H19   6419 0.23982500   1.008000   ; qtot 214.000435
; residue  214 bbb rtp bbb q 1.0
 6420         n4    214    bbb     N1   6420 0.03726400  14.010000   ; qtot 214.037699
 6421         c3    214    bbb     C1   6421 -0.07020100  12.010000   ; qtot 213.967498
 6422         hx    214    bbb     H1   6422 0.12219000   1.008000   ; qtot 214.089688
 6423         hx    214    bbb     H2   6423 0.12219000   1.008000   ; qtot 214.211878
 6424         c3    214    bbb     C2   6424 -0.07020100  12.010000   ; qtot 214.141677
 6425         hx    214    bbb     H3   6425 0.12219000   1.008000   ; qtot 214.263867
 6426         hx    214    bbb     H4   6426 0.12219000   1.008000   ; qtot 214.386057
 6427         c3    214    bbb     C3   6427 -0.39007700  12.010000   ; qtot 213.995980
 6428         hx    214    bbb     H5   6428 0.14940300   1.008000   ; qtot 214.145383
 6429         hx    214    bbb     H6   6429 0.14940300   1.008000   ; qtot 214.294786
 6430         c3    214    bbb     C4   6430 0.18057300  12.010000   ; qtot 214.475359
 6431         hc    214    bbb     H7   6431 0.01788900   1.008000   ; qtot 214.493248
 6432         hc    214    bbb     H8   6432 0.01788900   1.008000   ; qtot 214.511137
 6433         c3    214    bbb     C5   6433 -0.11337700  12.010000   ; qtot 214.397760
 6434         hc    214    bbb     H9   6434 0.09515400   1.008000   ; qtot 214.492914
 6435         hc    214    bbb    H10   6435 0.09515400   1.008000   ; qtot 214.588068
 6436         c3    214    bbb     C6   6436 -0.11337700  12.010000   ; qtot 214.474691
 6437         hc    214    bbb    H11   6437 0.09515400   1.008000   ; qtot 214.569845
 6438         hc    214    bbb    H12   6438 0.09515400   1.008000   ; qtot 214.664999
 6439         c3    214    bbb     C7   6439 0.21842400  12.010000   ; qtot 214.883423
 6440         h1    214    bbb    H13   6440 0.04500300   1.008000   ; qtot 214.928426
 6441         h1    214    bbb    H14   6441 0.04500300   1.008000   ; qtot 214.973429
 6442         c3    214    bbb     C8   6442 -0.06455200  12.010000   ; qtot 214.908877
 6443         h1    214    bbb    H15   6443 0.13554100   1.008000   ; qtot 215.044418
 6444         h1    214    bbb    H16   6444 0.13554100   1.008000   ; qtot 215.179959
 6445         c3    214    bbb     C9   6445 -0.06455200  12.010000   ; qtot 215.115407
 6446         h1    214    bbb    H17   6446 0.13554100   1.008000   ; qtot 215.250948
 6447         h1    214    bbb    H18   6447 0.13554100   1.008000   ; qtot 215.386489
 6448         os    214    bbb     O1   6448 -0.62587700  16.000000   ; qtot 214.760612
 6449         hn    214    bbb    H19   6449 0.23982500   1.008000   ; qtot 215.000437
; residue  215 bbb rtp bbb q 1.0
 6450         n4    215    bbb     N1   6450 0.03726400  14.010000   ; qtot 215.037701
 6451         c3    215    bbb     C1   6451 -0.07020100  12.010000   ; qtot 214.967500
 6452         hx    215    bbb     H1   6452 0.12219000   1.008000   ; qtot 215.089690
 6453         hx    215    bbb     H2   6453 0.12219000   1.008000   ; qtot 215.211880
 6454         c3    215    bbb     C2   6454 -0.07020100  12.010000   ; qtot 215.141679
 6455         hx    215    bbb     H3   6455 0.12219000   1.008000   ; qtot 215.263869
 6456         hx    215    bbb     H4   6456 0.12219000   1.008000   ; qtot 215.386059
 6457         c3    215    bbb     C3   6457 -0.39007700  12.010000   ; qtot 214.995982
 6458         hx    215    bbb     H5   6458 0.14940300   1.008000   ; qtot 215.145385
 6459         hx    215    bbb     H6   6459 0.14940300   1.008000   ; qtot 215.294788
 6460         c3    215    bbb     C4   6460 0.18057300  12.010000   ; qtot 215.475361
 6461         hc    215    bbb     H7   6461 0.01788900   1.008000   ; qtot 215.493250
 6462         hc    215    bbb     H8   6462 0.01788900   1.008000   ; qtot 215.511139
 6463         c3    215    bbb     C5   6463 -0.11337700  12.010000   ; qtot 215.397762
 6464         hc    215    bbb     H9   6464 0.09515400   1.008000   ; qtot 215.492916
 6465         hc    215    bbb    H10   6465 0.09515400   1.008000   ; qtot 215.588070
 6466         c3    215    bbb     C6   6466 -0.11337700  12.010000   ; qtot 215.474693
 6467         hc    215    bbb    H11   6467 0.09515400   1.008000   ; qtot 215.569847
 6468         hc    215    bbb    H12   6468 0.09515400   1.008000   ; qtot 215.665001
 6469         c3    215    bbb     C7   6469 0.21842400  12.010000   ; qtot 215.883425
 6470         h1    215    bbb    H13   6470 0.04500300   1.008000   ; qtot 215.928428
 6471         h1    215    bbb    H14   6471 0.04500300   1.008000   ; qtot 215.973431
 6472         c3    215    bbb     C8   6472 -0.06455200  12.010000   ; qtot 215.908879
 6473         h1    215    bbb    H15   6473 0.13554100   1.008000   ; qtot 216.044420
 6474         h1    215    bbb    H16   6474 0.13554100   1.008000   ; qtot 216.179961
 6475         c3    215    bbb     C9   6475 -0.06455200  12.010000   ; qtot 216.115409
 6476         h1    215    bbb    H17   6476 0.13554100   1.008000   ; qtot 216.250950
 6477         h1    215    bbb    H18   6477 0.13554100   1.008000   ; qtot 216.386491
 6478         os    215    bbb     O1   6478 -0.62587700  16.000000   ; qtot 215.760614
 6479         hn    215    bbb    H19   6479 0.23982500   1.008000   ; qtot 216.000439
; residue  216 bbb rtp bbb q 1.0
 6480         n4    216    bbb     N1   6480 0.03726400  14.010000   ; qtot 216.037703
 6481         c3    216    bbb     C1   6481 -0.07020100  12.010000   ; qtot 215.967502
 6482         hx    216    bbb     H1   6482 0.12219000   1.008000   ; qtot 216.089692
 6483         hx    216    bbb     H2   6483 0.12219000   1.008000   ; qtot 216.211882
 6484         c3    216    bbb     C2   6484 -0.07020100  12.010000   ; qtot 216.141681
 6485         hx    216    bbb     H3   6485 0.12219000   1.008000   ; qtot 216.263871
 6486         hx    216    bbb     H4   6486 0.12219000   1.008000   ; qtot 216.386061
 6487         c3    216    bbb     C3   6487 -0.39007700  12.010000   ; qtot 215.995984
 6488         hx    216    bbb     H5   6488 0.14940300   1.008000   ; qtot 216.145387
 6489         hx    216    bbb     H6   6489 0.14940300   1.008000   ; qtot 216.294790
 6490         c3    216    bbb     C4   6490 0.18057300  12.010000   ; qtot 216.475363
 6491         hc    216    bbb     H7   6491 0.01788900   1.008000   ; qtot 216.493252
 6492         hc    216    bbb     H8   6492 0.01788900   1.008000   ; qtot 216.511141
 6493         c3    216    bbb     C5   6493 -0.11337700  12.010000   ; qtot 216.397764
 6494         hc    216    bbb     H9   6494 0.09515400   1.008000   ; qtot 216.492918
 6495         hc    216    bbb    H10   6495 0.09515400   1.008000   ; qtot 216.588072
 6496         c3    216    bbb     C6   6496 -0.11337700  12.010000   ; qtot 216.474695
 6497         hc    216    bbb    H11   6497 0.09515400   1.008000   ; qtot 216.569849
 6498         hc    216    bbb    H12   6498 0.09515400   1.008000   ; qtot 216.665003
 6499         c3    216    bbb     C7   6499 0.21842400  12.010000   ; qtot 216.883427
 6500         h1    216    bbb    H13   6500 0.04500300   1.008000   ; qtot 216.928430
 6501         h1    216    bbb    H14   6501 0.04500300   1.008000   ; qtot 216.973433
 6502         c3    216    bbb     C8   6502 -0.06455200  12.010000   ; qtot 216.908881
 6503         h1    216    bbb    H15   6503 0.13554100   1.008000   ; qtot 217.044422
 6504         h1    216    bbb    H16   6504 0.13554100   1.008000   ; qtot 217.179963
 6505         c3    216    bbb     C9   6505 -0.06455200  12.010000   ; qtot 217.115411
 6506         h1    216    bbb    H17   6506 0.13554100   1.008000   ; qtot 217.250952
 6507         h1    216    bbb    H18   6507 0.13554100   1.008000   ; qtot 217.386493
 6508         os    216    bbb     O1   6508 -0.62587700  16.000000   ; qtot 216.760616
 6509         hn    216    bbb    H19   6509 0.23982500   1.008000   ; qtot 217.000441
; residue  217 bbb rtp bbb q 1.0
 6510         n4    217    bbb     N1   6510 0.03726400  14.010000   ; qtot 217.037705
 6511         c3    217    bbb     C1   6511 -0.07020100  12.010000   ; qtot 216.967504
 6512         hx    217    bbb     H1   6512 0.12219000   1.008000   ; qtot 217.089694
 6513         hx    217    bbb     H2   6513 0.12219000   1.008000   ; qtot 217.211884
 6514         c3    217    bbb     C2   6514 -0.07020100  12.010000   ; qtot 217.141683
 6515         hx    217    bbb     H3   6515 0.12219000   1.008000   ; qtot 217.263873
 6516         hx    217    bbb     H4   6516 0.12219000   1.008000   ; qtot 217.386063
 6517         c3    217    bbb     C3   6517 -0.39007700  12.010000   ; qtot 216.995986
 6518         hx    217    bbb     H5   6518 0.14940300   1.008000   ; qtot 217.145389
 6519         hx    217    bbb     H6   6519 0.14940300   1.008000   ; qtot 217.294792
 6520         c3    217    bbb     C4   6520 0.18057300  12.010000   ; qtot 217.475365
 6521         hc    217    bbb     H7   6521 0.01788900   1.008000   ; qtot 217.493254
 6522         hc    217    bbb     H8   6522 0.01788900   1.008000   ; qtot 217.511143
 6523         c3    217    bbb     C5   6523 -0.11337700  12.010000   ; qtot 217.397766
 6524         hc    217    bbb     H9   6524 0.09515400   1.008000   ; qtot 217.492920
 6525         hc    217    bbb    H10   6525 0.09515400   1.008000   ; qtot 217.588074
 6526         c3    217    bbb     C6   6526 -0.11337700  12.010000   ; qtot 217.474697
 6527         hc    217    bbb    H11   6527 0.09515400   1.008000   ; qtot 217.569851
 6528         hc    217    bbb    H12   6528 0.09515400   1.008000   ; qtot 217.665005
 6529         c3    217    bbb     C7   6529 0.21842400  12.010000   ; qtot 217.883429
 6530         h1    217    bbb    H13   6530 0.04500300   1.008000   ; qtot 217.928432
 6531         h1    217    bbb    H14   6531 0.04500300   1.008000   ; qtot 217.973435
 6532         c3    217    bbb     C8   6532 -0.06455200  12.010000   ; qtot 217.908883
 6533         h1    217    bbb    H15   6533 0.13554100   1.008000   ; qtot 218.044424
 6534         h1    217    bbb    H16   6534 0.13554100   1.008000   ; qtot 218.179965
 6535         c3    217    bbb     C9   6535 -0.06455200  12.010000   ; qtot 218.115413
 6536         h1    217    bbb    H17   6536 0.13554100   1.008000   ; qtot 218.250954
 6537         h1    217    bbb    H18   6537 0.13554100   1.008000   ; qtot 218.386495
 6538         os    217    bbb     O1   6538 -0.62587700  16.000000   ; qtot 217.760618
 6539         hn    217    bbb    H19   6539 0.23982500   1.008000   ; qtot 218.000443
; residue  218 bbb rtp bbb q 1.0
 6540         n4    218    bbb     N1   6540 0.03726400  14.010000   ; qtot 218.037707
 6541         c3    218    bbb     C1   6541 -0.07020100  12.010000   ; qtot 217.967506
 6542         hx    218    bbb     H1   6542 0.12219000   1.008000   ; qtot 218.089696
 6543         hx    218    bbb     H2   6543 0.12219000   1.008000   ; qtot 218.211886
 6544         c3    218    bbb     C2   6544 -0.07020100  12.010000   ; qtot 218.141685
 6545         hx    218    bbb     H3   6545 0.12219000   1.008000   ; qtot 218.263875
 6546         hx    218    bbb     H4   6546 0.12219000   1.008000   ; qtot 218.386065
 6547         c3    218    bbb     C3   6547 -0.39007700  12.010000   ; qtot 217.995988
 6548         hx    218    bbb     H5   6548 0.14940300   1.008000   ; qtot 218.145391
 6549         hx    218    bbb     H6   6549 0.14940300   1.008000   ; qtot 218.294794
 6550         c3    218    bbb     C4   6550 0.18057300  12.010000   ; qtot 218.475367
 6551         hc    218    bbb     H7   6551 0.01788900   1.008000   ; qtot 218.493256
 6552         hc    218    bbb     H8   6552 0.01788900   1.008000   ; qtot 218.511145
 6553         c3    218    bbb     C5   6553 -0.11337700  12.010000   ; qtot 218.397768
 6554         hc    218    bbb     H9   6554 0.09515400   1.008000   ; qtot 218.492922
 6555         hc    218    bbb    H10   6555 0.09515400   1.008000   ; qtot 218.588076
 6556         c3    218    bbb     C6   6556 -0.11337700  12.010000   ; qtot 218.474699
 6557         hc    218    bbb    H11   6557 0.09515400   1.008000   ; qtot 218.569853
 6558         hc    218    bbb    H12   6558 0.09515400   1.008000   ; qtot 218.665007
 6559         c3    218    bbb     C7   6559 0.21842400  12.010000   ; qtot 218.883431
 6560         h1    218    bbb    H13   6560 0.04500300   1.008000   ; qtot 218.928434
 6561         h1    218    bbb    H14   6561 0.04500300   1.008000   ; qtot 218.973437
 6562         c3    218    bbb     C8   6562 -0.06455200  12.010000   ; qtot 218.908885
 6563         h1    218    bbb    H15   6563 0.13554100   1.008000   ; qtot 219.044426
 6564         h1    218    bbb    H16   6564 0.13554100   1.008000   ; qtot 219.179967
 6565         c3    218    bbb     C9   6565 -0.06455200  12.010000   ; qtot 219.115415
 6566         h1    218    bbb    H17   6566 0.13554100   1.008000   ; qtot 219.250956
 6567         h1    218    bbb    H18   6567 0.13554100   1.008000   ; qtot 219.386497
 6568         os    218    bbb     O1   6568 -0.62587700  16.000000   ; qtot 218.760620
 6569         hn    218    bbb    H19   6569 0.23982500   1.008000   ; qtot 219.000445
; residue  219 bbb rtp bbb q 1.0
 6570         n4    219    bbb     N1   6570 0.03726400  14.010000   ; qtot 219.037709
 6571         c3    219    bbb     C1   6571 -0.07020100  12.010000   ; qtot 218.967508
 6572         hx    219    bbb     H1   6572 0.12219000   1.008000   ; qtot 219.089698
 6573         hx    219    bbb     H2   6573 0.12219000   1.008000   ; qtot 219.211888
 6574         c3    219    bbb     C2   6574 -0.07020100  12.010000   ; qtot 219.141687
 6575         hx    219    bbb     H3   6575 0.12219000   1.008000   ; qtot 219.263877
 6576         hx    219    bbb     H4   6576 0.12219000   1.008000   ; qtot 219.386067
 6577         c3    219    bbb     C3   6577 -0.39007700  12.010000   ; qtot 218.995990
 6578         hx    219    bbb     H5   6578 0.14940300   1.008000   ; qtot 219.145393
 6579         hx    219    bbb     H6   6579 0.14940300   1.008000   ; qtot 219.294796
 6580         c3    219    bbb     C4   6580 0.18057300  12.010000   ; qtot 219.475369
 6581         hc    219    bbb     H7   6581 0.01788900   1.008000   ; qtot 219.493258
 6582         hc    219    bbb     H8   6582 0.01788900   1.008000   ; qtot 219.511147
 6583         c3    219    bbb     C5   6583 -0.11337700  12.010000   ; qtot 219.397770
 6584         hc    219    bbb     H9   6584 0.09515400   1.008000   ; qtot 219.492924
 6585         hc    219    bbb    H10   6585 0.09515400   1.008000   ; qtot 219.588078
 6586         c3    219    bbb     C6   6586 -0.11337700  12.010000   ; qtot 219.474701
 6587         hc    219    bbb    H11   6587 0.09515400   1.008000   ; qtot 219.569855
 6588         hc    219    bbb    H12   6588 0.09515400   1.008000   ; qtot 219.665009
 6589         c3    219    bbb     C7   6589 0.21842400  12.010000   ; qtot 219.883433
 6590         h1    219    bbb    H13   6590 0.04500300   1.008000   ; qtot 219.928436
 6591         h1    219    bbb    H14   6591 0.04500300   1.008000   ; qtot 219.973439
 6592         c3    219    bbb     C8   6592 -0.06455200  12.010000   ; qtot 219.908887
 6593         h1    219    bbb    H15   6593 0.13554100   1.008000   ; qtot 220.044428
 6594         h1    219    bbb    H16   6594 0.13554100   1.008000   ; qtot 220.179969
 6595         c3    219    bbb     C9   6595 -0.06455200  12.010000   ; qtot 220.115417
 6596         h1    219    bbb    H17   6596 0.13554100   1.008000   ; qtot 220.250958
 6597         h1    219    bbb    H18   6597 0.13554100   1.008000   ; qtot 220.386499
 6598         os    219    bbb     O1   6598 -0.62587700  16.000000   ; qtot 219.760622
 6599         hn    219    bbb    H19   6599 0.23982500   1.008000   ; qtot 220.000447
; residue  220 bbb rtp bbb q 1.0
 6600         n4    220    bbb     N1   6600 0.03726400  14.010000   ; qtot 220.037711
 6601         c3    220    bbb     C1   6601 -0.07020100  12.010000   ; qtot 219.967510
 6602         hx    220    bbb     H1   6602 0.12219000   1.008000   ; qtot 220.089700
 6603         hx    220    bbb     H2   6603 0.12219000   1.008000   ; qtot 220.211890
 6604         c3    220    bbb     C2   6604 -0.07020100  12.010000   ; qtot 220.141689
 6605         hx    220    bbb     H3   6605 0.12219000   1.008000   ; qtot 220.263879
 6606         hx    220    bbb     H4   6606 0.12219000   1.008000   ; qtot 220.386069
 6607         c3    220    bbb     C3   6607 -0.39007700  12.010000   ; qtot 219.995992
 6608         hx    220    bbb     H5   6608 0.14940300   1.008000   ; qtot 220.145395
 6609         hx    220    bbb     H6   6609 0.14940300   1.008000   ; qtot 220.294798
 6610         c3    220    bbb     C4   6610 0.18057300  12.010000   ; qtot 220.475371
 6611         hc    220    bbb     H7   6611 0.01788900   1.008000   ; qtot 220.493260
 6612         hc    220    bbb     H8   6612 0.01788900   1.008000   ; qtot 220.511149
 6613         c3    220    bbb     C5   6613 -0.11337700  12.010000   ; qtot 220.397772
 6614         hc    220    bbb     H9   6614 0.09515400   1.008000   ; qtot 220.492926
 6615         hc    220    bbb    H10   6615 0.09515400   1.008000   ; qtot 220.588080
 6616         c3    220    bbb     C6   6616 -0.11337700  12.010000   ; qtot 220.474703
 6617         hc    220    bbb    H11   6617 0.09515400   1.008000   ; qtot 220.569857
 6618         hc    220    bbb    H12   6618 0.09515400   1.008000   ; qtot 220.665011
 6619         c3    220    bbb     C7   6619 0.21842400  12.010000   ; qtot 220.883435
 6620         h1    220    bbb    H13   6620 0.04500300   1.008000   ; qtot 220.928438
 6621         h1    220    bbb    H14   6621 0.04500300   1.008000   ; qtot 220.973441
 6622         c3    220    bbb     C8   6622 -0.06455200  12.010000   ; qtot 220.908889
 6623         h1    220    bbb    H15   6623 0.13554100   1.008000   ; qtot 221.044430
 6624         h1    220    bbb    H16   6624 0.13554100   1.008000   ; qtot 221.179971
 6625         c3    220    bbb     C9   6625 -0.06455200  12.010000   ; qtot 221.115419
 6626         h1    220    bbb    H17   6626 0.13554100   1.008000   ; qtot 221.250960
 6627         h1    220    bbb    H18   6627 0.13554100   1.008000   ; qtot 221.386501
 6628         os    220    bbb     O1   6628 -0.62587700  16.000000   ; qtot 220.760624
 6629         hn    220    bbb    H19   6629 0.23982500   1.008000   ; qtot 221.000449
; residue  221 bbb rtp bbb q 1.0
 6630         n4    221    bbb     N1   6630 0.03726400  14.010000   ; qtot 221.037713
 6631         c3    221    bbb     C1   6631 -0.07020100  12.010000   ; qtot 220.967512
 6632         hx    221    bbb     H1   6632 0.12219000   1.008000   ; qtot 221.089702
 6633         hx    221    bbb     H2   6633 0.12219000   1.008000   ; qtot 221.211892
 6634         c3    221    bbb     C2   6634 -0.07020100  12.010000   ; qtot 221.141691
 6635         hx    221    bbb     H3   6635 0.12219000   1.008000   ; qtot 221.263881
 6636         hx    221    bbb     H4   6636 0.12219000   1.008000   ; qtot 221.386071
 6637         c3    221    bbb     C3   6637 -0.39007700  12.010000   ; qtot 220.995994
 6638         hx    221    bbb     H5   6638 0.14940300   1.008000   ; qtot 221.145397
 6639         hx    221    bbb     H6   6639 0.14940300   1.008000   ; qtot 221.294800
 6640         c3    221    bbb     C4   6640 0.18057300  12.010000   ; qtot 221.475373
 6641         hc    221    bbb     H7   6641 0.01788900   1.008000   ; qtot 221.493262
 6642         hc    221    bbb     H8   6642 0.01788900   1.008000   ; qtot 221.511151
 6643         c3    221    bbb     C5   6643 -0.11337700  12.010000   ; qtot 221.397774
 6644         hc    221    bbb     H9   6644 0.09515400   1.008000   ; qtot 221.492928
 6645         hc    221    bbb    H10   6645 0.09515400   1.008000   ; qtot 221.588082
 6646         c3    221    bbb     C6   6646 -0.11337700  12.010000   ; qtot 221.474705
 6647         hc    221    bbb    H11   6647 0.09515400   1.008000   ; qtot 221.569859
 6648         hc    221    bbb    H12   6648 0.09515400   1.008000   ; qtot 221.665013
 6649         c3    221    bbb     C7   6649 0.21842400  12.010000   ; qtot 221.883437
 6650         h1    221    bbb    H13   6650 0.04500300   1.008000   ; qtot 221.928440
 6651         h1    221    bbb    H14   6651 0.04500300   1.008000   ; qtot 221.973443
 6652         c3    221    bbb     C8   6652 -0.06455200  12.010000   ; qtot 221.908891
 6653         h1    221    bbb    H15   6653 0.13554100   1.008000   ; qtot 222.044432
 6654         h1    221    bbb    H16   6654 0.13554100   1.008000   ; qtot 222.179973
 6655         c3    221    bbb     C9   6655 -0.06455200  12.010000   ; qtot 222.115421
 6656         h1    221    bbb    H17   6656 0.13554100   1.008000   ; qtot 222.250962
 6657         h1    221    bbb    H18   6657 0.13554100   1.008000   ; qtot 222.386503
 6658         os    221    bbb     O1   6658 -0.62587700  16.000000   ; qtot 221.760626
 6659         hn    221    bbb    H19   6659 0.23982500   1.008000   ; qtot 222.000451
; residue  222 bbb rtp bbb q 1.0
 6660         n4    222    bbb     N1   6660 0.03726400  14.010000   ; qtot 222.037715
 6661         c3    222    bbb     C1   6661 -0.07020100  12.010000   ; qtot 221.967514
 6662         hx    222    bbb     H1   6662 0.12219000   1.008000   ; qtot 222.089704
 6663         hx    222    bbb     H2   6663 0.12219000   1.008000   ; qtot 222.211894
 6664         c3    222    bbb     C2   6664 -0.07020100  12.010000   ; qtot 222.141693
 6665         hx    222    bbb     H3   6665 0.12219000   1.008000   ; qtot 222.263883
 6666         hx    222    bbb     H4   6666 0.12219000   1.008000   ; qtot 222.386073
 6667         c3    222    bbb     C3   6667 -0.39007700  12.010000   ; qtot 221.995996
 6668         hx    222    bbb     H5   6668 0.14940300   1.008000   ; qtot 222.145399
 6669         hx    222    bbb     H6   6669 0.14940300   1.008000   ; qtot 222.294802
 6670         c3    222    bbb     C4   6670 0.18057300  12.010000   ; qtot 222.475375
 6671         hc    222    bbb     H7   6671 0.01788900   1.008000   ; qtot 222.493264
 6672         hc    222    bbb     H8   6672 0.01788900   1.008000   ; qtot 222.511153
 6673         c3    222    bbb     C5   6673 -0.11337700  12.010000   ; qtot 222.397776
 6674         hc    222    bbb     H9   6674 0.09515400   1.008000   ; qtot 222.492930
 6675         hc    222    bbb    H10   6675 0.09515400   1.008000   ; qtot 222.588084
 6676         c3    222    bbb     C6   6676 -0.11337700  12.010000   ; qtot 222.474707
 6677         hc    222    bbb    H11   6677 0.09515400   1.008000   ; qtot 222.569861
 6678         hc    222    bbb    H12   6678 0.09515400   1.008000   ; qtot 222.665015
 6679         c3    222    bbb     C7   6679 0.21842400  12.010000   ; qtot 222.883439
 6680         h1    222    bbb    H13   6680 0.04500300   1.008000   ; qtot 222.928442
 6681         h1    222    bbb    H14   6681 0.04500300   1.008000   ; qtot 222.973445
 6682         c3    222    bbb     C8   6682 -0.06455200  12.010000   ; qtot 222.908893
 6683         h1    222    bbb    H15   6683 0.13554100   1.008000   ; qtot 223.044434
 6684         h1    222    bbb    H16   6684 0.13554100   1.008000   ; qtot 223.179975
 6685         c3    222    bbb     C9   6685 -0.06455200  12.010000   ; qtot 223.115423
 6686         h1    222    bbb    H17   6686 0.13554100   1.008000   ; qtot 223.250964
 6687         h1    222    bbb    H18   6687 0.13554100   1.008000   ; qtot 223.386505
 6688         os    222    bbb     O1   6688 -0.62587700  16.000000   ; qtot 222.760628
 6689         hn    222    bbb    H19   6689 0.23982500   1.008000   ; qtot 223.000453
; residue  223 bbb rtp bbb q 1.0
 6690         n4    223    bbb     N1   6690 0.03726400  14.010000   ; qtot 223.037717
 6691         c3    223    bbb     C1   6691 -0.07020100  12.010000   ; qtot 222.967516
 6692         hx    223    bbb     H1   6692 0.12219000   1.008000   ; qtot 223.089706
 6693         hx    223    bbb     H2   6693 0.12219000   1.008000   ; qtot 223.211896
 6694         c3    223    bbb     C2   6694 -0.07020100  12.010000   ; qtot 223.141695
 6695         hx    223    bbb     H3   6695 0.12219000   1.008000   ; qtot 223.263885
 6696         hx    223    bbb     H4   6696 0.12219000   1.008000   ; qtot 223.386075
 6697         c3    223    bbb     C3   6697 -0.39007700  12.010000   ; qtot 222.995998
 6698         hx    223    bbb     H5   6698 0.14940300   1.008000   ; qtot 223.145401
 6699         hx    223    bbb     H6   6699 0.14940300   1.008000   ; qtot 223.294804
 6700         c3    223    bbb     C4   6700 0.18057300  12.010000   ; qtot 223.475377
 6701         hc    223    bbb     H7   6701 0.01788900   1.008000   ; qtot 223.493266
 6702         hc    223    bbb     H8   6702 0.01788900   1.008000   ; qtot 223.511155
 6703         c3    223    bbb     C5   6703 -0.11337700  12.010000   ; qtot 223.397778
 6704         hc    223    bbb     H9   6704 0.09515400   1.008000   ; qtot 223.492932
 6705         hc    223    bbb    H10   6705 0.09515400   1.008000   ; qtot 223.588086
 6706         c3    223    bbb     C6   6706 -0.11337700  12.010000   ; qtot 223.474709
 6707         hc    223    bbb    H11   6707 0.09515400   1.008000   ; qtot 223.569863
 6708         hc    223    bbb    H12   6708 0.09515400   1.008000   ; qtot 223.665017
 6709         c3    223    bbb     C7   6709 0.21842400  12.010000   ; qtot 223.883441
 6710         h1    223    bbb    H13   6710 0.04500300   1.008000   ; qtot 223.928444
 6711         h1    223    bbb    H14   6711 0.04500300   1.008000   ; qtot 223.973447
 6712         c3    223    bbb     C8   6712 -0.06455200  12.010000   ; qtot 223.908895
 6713         h1    223    bbb    H15   6713 0.13554100   1.008000   ; qtot 224.044436
 6714         h1    223    bbb    H16   6714 0.13554100   1.008000   ; qtot 224.179977
 6715         c3    223    bbb     C9   6715 -0.06455200  12.010000   ; qtot 224.115425
 6716         h1    223    bbb    H17   6716 0.13554100   1.008000   ; qtot 224.250966
 6717         h1    223    bbb    H18   6717 0.13554100   1.008000   ; qtot 224.386507
 6718         os    223    bbb     O1   6718 -0.62587700  16.000000   ; qtot 223.760630
 6719         hn    223    bbb    H19   6719 0.23982500   1.008000   ; qtot 224.000455
; residue  224 bbb rtp bbb q 1.0
 6720         n4    224    bbb     N1   6720 0.03726400  14.010000   ; qtot 224.037719
 6721         c3    224    bbb     C1   6721 -0.07020100  12.010000   ; qtot 223.967518
 6722         hx    224    bbb     H1   6722 0.12219000   1.008000   ; qtot 224.089708
 6723         hx    224    bbb     H2   6723 0.12219000   1.008000   ; qtot 224.211898
 6724         c3    224    bbb     C2   6724 -0.07020100  12.010000   ; qtot 224.141697
 6725         hx    224    bbb     H3   6725 0.12219000   1.008000   ; qtot 224.263887
 6726         hx    224    bbb     H4   6726 0.12219000   1.008000   ; qtot 224.386077
 6727         c3    224    bbb     C3   6727 -0.39007700  12.010000   ; qtot 223.996000
 6728         hx    224    bbb     H5   6728 0.14940300   1.008000   ; qtot 224.145403
 6729         hx    224    bbb     H6   6729 0.14940300   1.008000   ; qtot 224.294806
 6730         c3    224    bbb     C4   6730 0.18057300  12.010000   ; qtot 224.475379
 6731         hc    224    bbb     H7   6731 0.01788900   1.008000   ; qtot 224.493268
 6732         hc    224    bbb     H8   6732 0.01788900   1.008000   ; qtot 224.511157
 6733         c3    224    bbb     C5   6733 -0.11337700  12.010000   ; qtot 224.397780
 6734         hc    224    bbb     H9   6734 0.09515400   1.008000   ; qtot 224.492934
 6735         hc    224    bbb    H10   6735 0.09515400   1.008000   ; qtot 224.588088
 6736         c3    224    bbb     C6   6736 -0.11337700  12.010000   ; qtot 224.474711
 6737         hc    224    bbb    H11   6737 0.09515400   1.008000   ; qtot 224.569865
 6738         hc    224    bbb    H12   6738 0.09515400   1.008000   ; qtot 224.665019
 6739         c3    224    bbb     C7   6739 0.21842400  12.010000   ; qtot 224.883443
 6740         h1    224    bbb    H13   6740 0.04500300   1.008000   ; qtot 224.928446
 6741         h1    224    bbb    H14   6741 0.04500300   1.008000   ; qtot 224.973449
 6742         c3    224    bbb     C8   6742 -0.06455200  12.010000   ; qtot 224.908897
 6743         h1    224    bbb    H15   6743 0.13554100   1.008000   ; qtot 225.044438
 6744         h1    224    bbb    H16   6744 0.13554100   1.008000   ; qtot 225.179979
 6745         c3    224    bbb     C9   6745 -0.06455200  12.010000   ; qtot 225.115427
 6746         h1    224    bbb    H17   6746 0.13554100   1.008000   ; qtot 225.250968
 6747         h1    224    bbb    H18   6747 0.13554100   1.008000   ; qtot 225.386509
 6748         os    224    bbb     O1   6748 -0.62587700  16.000000   ; qtot 224.760632
 6749         hn    224    bbb    H19   6749 0.23982500   1.008000   ; qtot 225.000457
; residue  225 bbb rtp bbb q 1.0
 6750         n4    225    bbb     N1   6750 0.03726400  14.010000   ; qtot 225.037721
 6751         c3    225    bbb     C1   6751 -0.07020100  12.010000   ; qtot 224.967520
 6752         hx    225    bbb     H1   6752 0.12219000   1.008000   ; qtot 225.089710
 6753         hx    225    bbb     H2   6753 0.12219000   1.008000   ; qtot 225.211900
 6754         c3    225    bbb     C2   6754 -0.07020100  12.010000   ; qtot 225.141699
 6755         hx    225    bbb     H3   6755 0.12219000   1.008000   ; qtot 225.263889
 6756         hx    225    bbb     H4   6756 0.12219000   1.008000   ; qtot 225.386079
 6757         c3    225    bbb     C3   6757 -0.39007700  12.010000   ; qtot 224.996002
 6758         hx    225    bbb     H5   6758 0.14940300   1.008000   ; qtot 225.145405
 6759         hx    225    bbb     H6   6759 0.14940300   1.008000   ; qtot 225.294808
 6760         c3    225    bbb     C4   6760 0.18057300  12.010000   ; qtot 225.475381
 6761         hc    225    bbb     H7   6761 0.01788900   1.008000   ; qtot 225.493270
 6762         hc    225    bbb     H8   6762 0.01788900   1.008000   ; qtot 225.511159
 6763         c3    225    bbb     C5   6763 -0.11337700  12.010000   ; qtot 225.397782
 6764         hc    225    bbb     H9   6764 0.09515400   1.008000   ; qtot 225.492936
 6765         hc    225    bbb    H10   6765 0.09515400   1.008000   ; qtot 225.588090
 6766         c3    225    bbb     C6   6766 -0.11337700  12.010000   ; qtot 225.474713
 6767         hc    225    bbb    H11   6767 0.09515400   1.008000   ; qtot 225.569867
 6768         hc    225    bbb    H12   6768 0.09515400   1.008000   ; qtot 225.665021
 6769         c3    225    bbb     C7   6769 0.21842400  12.010000   ; qtot 225.883445
 6770         h1    225    bbb    H13   6770 0.04500300   1.008000   ; qtot 225.928448
 6771         h1    225    bbb    H14   6771 0.04500300   1.008000   ; qtot 225.973451
 6772         c3    225    bbb     C8   6772 -0.06455200  12.010000   ; qtot 225.908899
 6773         h1    225    bbb    H15   6773 0.13554100   1.008000   ; qtot 226.044440
 6774         h1    225    bbb    H16   6774 0.13554100   1.008000   ; qtot 226.179981
 6775         c3    225    bbb     C9   6775 -0.06455200  12.010000   ; qtot 226.115429
 6776         h1    225    bbb    H17   6776 0.13554100   1.008000   ; qtot 226.250970
 6777         h1    225    bbb    H18   6777 0.13554100   1.008000   ; qtot 226.386511
 6778         os    225    bbb     O1   6778 -0.62587700  16.000000   ; qtot 225.760634
 6779         hn    225    bbb    H19   6779 0.23982500   1.008000   ; qtot 226.000459
; residue  226 bbb rtp bbb q 1.0
 6780         n4    226    bbb     N1   6780 0.03726400  14.010000   ; qtot 226.037723
 6781         c3    226    bbb     C1   6781 -0.07020100  12.010000   ; qtot 225.967522
 6782         hx    226    bbb     H1   6782 0.12219000   1.008000   ; qtot 226.089712
 6783         hx    226    bbb     H2   6783 0.12219000   1.008000   ; qtot 226.211902
 6784         c3    226    bbb     C2   6784 -0.07020100  12.010000   ; qtot 226.141701
 6785         hx    226    bbb     H3   6785 0.12219000   1.008000   ; qtot 226.263891
 6786         hx    226    bbb     H4   6786 0.12219000   1.008000   ; qtot 226.386081
 6787         c3    226    bbb     C3   6787 -0.39007700  12.010000   ; qtot 225.996004
 6788         hx    226    bbb     H5   6788 0.14940300   1.008000   ; qtot 226.145407
 6789         hx    226    bbb     H6   6789 0.14940300   1.008000   ; qtot 226.294810
 6790         c3    226    bbb     C4   6790 0.18057300  12.010000   ; qtot 226.475383
 6791         hc    226    bbb     H7   6791 0.01788900   1.008000   ; qtot 226.493272
 6792         hc    226    bbb     H8   6792 0.01788900   1.008000   ; qtot 226.511161
 6793         c3    226    bbb     C5   6793 -0.11337700  12.010000   ; qtot 226.397784
 6794         hc    226    bbb     H9   6794 0.09515400   1.008000   ; qtot 226.492938
 6795         hc    226    bbb    H10   6795 0.09515400   1.008000   ; qtot 226.588092
 6796         c3    226    bbb     C6   6796 -0.11337700  12.010000   ; qtot 226.474715
 6797         hc    226    bbb    H11   6797 0.09515400   1.008000   ; qtot 226.569869
 6798         hc    226    bbb    H12   6798 0.09515400   1.008000   ; qtot 226.665023
 6799         c3    226    bbb     C7   6799 0.21842400  12.010000   ; qtot 226.883447
 6800         h1    226    bbb    H13   6800 0.04500300   1.008000   ; qtot 226.928450
 6801         h1    226    bbb    H14   6801 0.04500300   1.008000   ; qtot 226.973453
 6802         c3    226    bbb     C8   6802 -0.06455200  12.010000   ; qtot 226.908901
 6803         h1    226    bbb    H15   6803 0.13554100   1.008000   ; qtot 227.044442
 6804         h1    226    bbb    H16   6804 0.13554100   1.008000   ; qtot 227.179983
 6805         c3    226    bbb     C9   6805 -0.06455200  12.010000   ; qtot 227.115431
 6806         h1    226    bbb    H17   6806 0.13554100   1.008000   ; qtot 227.250972
 6807         h1    226    bbb    H18   6807 0.13554100   1.008000   ; qtot 227.386513
 6808         os    226    bbb     O1   6808 -0.62587700  16.000000   ; qtot 226.760636
 6809         hn    226    bbb    H19   6809 0.23982500   1.008000   ; qtot 227.000461
; residue  227 bbb rtp bbb q 1.0
 6810         n4    227    bbb     N1   6810 0.03726400  14.010000   ; qtot 227.037725
 6811         c3    227    bbb     C1   6811 -0.07020100  12.010000   ; qtot 226.967524
 6812         hx    227    bbb     H1   6812 0.12219000   1.008000   ; qtot 227.089714
 6813         hx    227    bbb     H2   6813 0.12219000   1.008000   ; qtot 227.211904
 6814         c3    227    bbb     C2   6814 -0.07020100  12.010000   ; qtot 227.141703
 6815         hx    227    bbb     H3   6815 0.12219000   1.008000   ; qtot 227.263893
 6816         hx    227    bbb     H4   6816 0.12219000   1.008000   ; qtot 227.386083
 6817         c3    227    bbb     C3   6817 -0.39007700  12.010000   ; qtot 226.996006
 6818         hx    227    bbb     H5   6818 0.14940300   1.008000   ; qtot 227.145409
 6819         hx    227    bbb     H6   6819 0.14940300   1.008000   ; qtot 227.294812
 6820         c3    227    bbb     C4   6820 0.18057300  12.010000   ; qtot 227.475385
 6821         hc    227    bbb     H7   6821 0.01788900   1.008000   ; qtot 227.493274
 6822         hc    227    bbb     H8   6822 0.01788900   1.008000   ; qtot 227.511163
 6823         c3    227    bbb     C5   6823 -0.11337700  12.010000   ; qtot 227.397786
 6824         hc    227    bbb     H9   6824 0.09515400   1.008000   ; qtot 227.492940
 6825         hc    227    bbb    H10   6825 0.09515400   1.008000   ; qtot 227.588094
 6826         c3    227    bbb     C6   6826 -0.11337700  12.010000   ; qtot 227.474717
 6827         hc    227    bbb    H11   6827 0.09515400   1.008000   ; qtot 227.569871
 6828         hc    227    bbb    H12   6828 0.09515400   1.008000   ; qtot 227.665025
 6829         c3    227    bbb     C7   6829 0.21842400  12.010000   ; qtot 227.883449
 6830         h1    227    bbb    H13   6830 0.04500300   1.008000   ; qtot 227.928452
 6831         h1    227    bbb    H14   6831 0.04500300   1.008000   ; qtot 227.973455
 6832         c3    227    bbb     C8   6832 -0.06455200  12.010000   ; qtot 227.908903
 6833         h1    227    bbb    H15   6833 0.13554100   1.008000   ; qtot 228.044444
 6834         h1    227    bbb    H16   6834 0.13554100   1.008000   ; qtot 228.179985
 6835         c3    227    bbb     C9   6835 -0.06455200  12.010000   ; qtot 228.115433
 6836         h1    227    bbb    H17   6836 0.13554100   1.008000   ; qtot 228.250974
 6837         h1    227    bbb    H18   6837 0.13554100   1.008000   ; qtot 228.386515
 6838         os    227    bbb     O1   6838 -0.62587700  16.000000   ; qtot 227.760638
 6839         hn    227    bbb    H19   6839 0.23982500   1.008000   ; qtot 228.000463
; residue  228 bbb rtp bbb q 1.0
 6840         n4    228    bbb     N1   6840 0.03726400  14.010000   ; qtot 228.037727
 6841         c3    228    bbb     C1   6841 -0.07020100  12.010000   ; qtot 227.967526
 6842         hx    228    bbb     H1   6842 0.12219000   1.008000   ; qtot 228.089716
 6843         hx    228    bbb     H2   6843 0.12219000   1.008000   ; qtot 228.211906
 6844         c3    228    bbb     C2   6844 -0.07020100  12.010000   ; qtot 228.141705
 6845         hx    228    bbb     H3   6845 0.12219000   1.008000   ; qtot 228.263895
 6846         hx    228    bbb     H4   6846 0.12219000   1.008000   ; qtot 228.386085
 6847         c3    228    bbb     C3   6847 -0.39007700  12.010000   ; qtot 227.996008
 6848         hx    228    bbb     H5   6848 0.14940300   1.008000   ; qtot 228.145411
 6849         hx    228    bbb     H6   6849 0.14940300   1.008000   ; qtot 228.294814
 6850         c3    228    bbb     C4   6850 0.18057300  12.010000   ; qtot 228.475387
 6851         hc    228    bbb     H7   6851 0.01788900   1.008000   ; qtot 228.493276
 6852         hc    228    bbb     H8   6852 0.01788900   1.008000   ; qtot 228.511165
 6853         c3    228    bbb     C5   6853 -0.11337700  12.010000   ; qtot 228.397788
 6854         hc    228    bbb     H9   6854 0.09515400   1.008000   ; qtot 228.492942
 6855         hc    228    bbb    H10   6855 0.09515400   1.008000   ; qtot 228.588096
 6856         c3    228    bbb     C6   6856 -0.11337700  12.010000   ; qtot 228.474719
 6857         hc    228    bbb    H11   6857 0.09515400   1.008000   ; qtot 228.569873
 6858         hc    228    bbb    H12   6858 0.09515400   1.008000   ; qtot 228.665027
 6859         c3    228    bbb     C7   6859 0.21842400  12.010000   ; qtot 228.883451
 6860         h1    228    bbb    H13   6860 0.04500300   1.008000   ; qtot 228.928454
 6861         h1    228    bbb    H14   6861 0.04500300   1.008000   ; qtot 228.973457
 6862         c3    228    bbb     C8   6862 -0.06455200  12.010000   ; qtot 228.908905
 6863         h1    228    bbb    H15   6863 0.13554100   1.008000   ; qtot 229.044446
 6864         h1    228    bbb    H16   6864 0.13554100   1.008000   ; qtot 229.179987
 6865         c3    228    bbb     C9   6865 -0.06455200  12.010000   ; qtot 229.115435
 6866         h1    228    bbb    H17   6866 0.13554100   1.008000   ; qtot 229.250976
 6867         h1    228    bbb    H18   6867 0.13554100   1.008000   ; qtot 229.386517
 6868         os    228    bbb     O1   6868 -0.62587700  16.000000   ; qtot 228.760640
 6869         hn    228    bbb    H19   6869 0.23982500   1.008000   ; qtot 229.000465
; residue  229 bbb rtp bbb q 1.0
 6870         n4    229    bbb     N1   6870 0.03726400  14.010000   ; qtot 229.037729
 6871         c3    229    bbb     C1   6871 -0.07020100  12.010000   ; qtot 228.967528
 6872         hx    229    bbb     H1   6872 0.12219000   1.008000   ; qtot 229.089718
 6873         hx    229    bbb     H2   6873 0.12219000   1.008000   ; qtot 229.211908
 6874         c3    229    bbb     C2   6874 -0.07020100  12.010000   ; qtot 229.141707
 6875         hx    229    bbb     H3   6875 0.12219000   1.008000   ; qtot 229.263897
 6876         hx    229    bbb     H4   6876 0.12219000   1.008000   ; qtot 229.386087
 6877         c3    229    bbb     C3   6877 -0.39007700  12.010000   ; qtot 228.996010
 6878         hx    229    bbb     H5   6878 0.14940300   1.008000   ; qtot 229.145413
 6879         hx    229    bbb     H6   6879 0.14940300   1.008000   ; qtot 229.294816
 6880         c3    229    bbb     C4   6880 0.18057300  12.010000   ; qtot 229.475389
 6881         hc    229    bbb     H7   6881 0.01788900   1.008000   ; qtot 229.493278
 6882         hc    229    bbb     H8   6882 0.01788900   1.008000   ; qtot 229.511167
 6883         c3    229    bbb     C5   6883 -0.11337700  12.010000   ; qtot 229.397790
 6884         hc    229    bbb     H9   6884 0.09515400   1.008000   ; qtot 229.492944
 6885         hc    229    bbb    H10   6885 0.09515400   1.008000   ; qtot 229.588098
 6886         c3    229    bbb     C6   6886 -0.11337700  12.010000   ; qtot 229.474721
 6887         hc    229    bbb    H11   6887 0.09515400   1.008000   ; qtot 229.569875
 6888         hc    229    bbb    H12   6888 0.09515400   1.008000   ; qtot 229.665029
 6889         c3    229    bbb     C7   6889 0.21842400  12.010000   ; qtot 229.883453
 6890         h1    229    bbb    H13   6890 0.04500300   1.008000   ; qtot 229.928456
 6891         h1    229    bbb    H14   6891 0.04500300   1.008000   ; qtot 229.973459
 6892         c3    229    bbb     C8   6892 -0.06455200  12.010000   ; qtot 229.908907
 6893         h1    229    bbb    H15   6893 0.13554100   1.008000   ; qtot 230.044448
 6894         h1    229    bbb    H16   6894 0.13554100   1.008000   ; qtot 230.179989
 6895         c3    229    bbb     C9   6895 -0.06455200  12.010000   ; qtot 230.115437
 6896         h1    229    bbb    H17   6896 0.13554100   1.008000   ; qtot 230.250978
 6897         h1    229    bbb    H18   6897 0.13554100   1.008000   ; qtot 230.386519
 6898         os    229    bbb     O1   6898 -0.62587700  16.000000   ; qtot 229.760642
 6899         hn    229    bbb    H19   6899 0.23982500   1.008000   ; qtot 230.000467
; residue  230 bbb rtp bbb q 1.0
 6900         n4    230    bbb     N1   6900 0.03726400  14.010000   ; qtot 230.037731
 6901         c3    230    bbb     C1   6901 -0.07020100  12.010000   ; qtot 229.967530
 6902         hx    230    bbb     H1   6902 0.12219000   1.008000   ; qtot 230.089720
 6903         hx    230    bbb     H2   6903 0.12219000   1.008000   ; qtot 230.211910
 6904         c3    230    bbb     C2   6904 -0.07020100  12.010000   ; qtot 230.141709
 6905         hx    230    bbb     H3   6905 0.12219000   1.008000   ; qtot 230.263899
 6906         hx    230    bbb     H4   6906 0.12219000   1.008000   ; qtot 230.386089
 6907         c3    230    bbb     C3   6907 -0.39007700  12.010000   ; qtot 229.996012
 6908         hx    230    bbb     H5   6908 0.14940300   1.008000   ; qtot 230.145415
 6909         hx    230    bbb     H6   6909 0.14940300   1.008000   ; qtot 230.294818
 6910         c3    230    bbb     C4   6910 0.18057300  12.010000   ; qtot 230.475391
 6911         hc    230    bbb     H7   6911 0.01788900   1.008000   ; qtot 230.493280
 6912         hc    230    bbb     H8   6912 0.01788900   1.008000   ; qtot 230.511169
 6913         c3    230    bbb     C5   6913 -0.11337700  12.010000   ; qtot 230.397792
 6914         hc    230    bbb     H9   6914 0.09515400   1.008000   ; qtot 230.492946
 6915         hc    230    bbb    H10   6915 0.09515400   1.008000   ; qtot 230.588100
 6916         c3    230    bbb     C6   6916 -0.11337700  12.010000   ; qtot 230.474723
 6917         hc    230    bbb    H11   6917 0.09515400   1.008000   ; qtot 230.569877
 6918         hc    230    bbb    H12   6918 0.09515400   1.008000   ; qtot 230.665031
 6919         c3    230    bbb     C7   6919 0.21842400  12.010000   ; qtot 230.883455
 6920         h1    230    bbb    H13   6920 0.04500300   1.008000   ; qtot 230.928458
 6921         h1    230    bbb    H14   6921 0.04500300   1.008000   ; qtot 230.973461
 6922         c3    230    bbb     C8   6922 -0.06455200  12.010000   ; qtot 230.908909
 6923         h1    230    bbb    H15   6923 0.13554100   1.008000   ; qtot 231.044450
 6924         h1    230    bbb    H16   6924 0.13554100   1.008000   ; qtot 231.179991
 6925         c3    230    bbb     C9   6925 -0.06455200  12.010000   ; qtot 231.115439
 6926         h1    230    bbb    H17   6926 0.13554100   1.008000   ; qtot 231.250980
 6927         h1    230    bbb    H18   6927 0.13554100   1.008000   ; qtot 231.386521
 6928         os    230    bbb     O1   6928 -0.62587700  16.000000   ; qtot 230.760644
 6929         hn    230    bbb    H19   6929 0.23982500   1.008000   ; qtot 231.000469
; residue  231 bbb rtp bbb q 1.0
 6930         n4    231    bbb     N1   6930 0.03726400  14.010000   ; qtot 231.037733
 6931         c3    231    bbb     C1   6931 -0.07020100  12.010000   ; qtot 230.967532
 6932         hx    231    bbb     H1   6932 0.12219000   1.008000   ; qtot 231.089722
 6933         hx    231    bbb     H2   6933 0.12219000   1.008000   ; qtot 231.211912
 6934         c3    231    bbb     C2   6934 -0.07020100  12.010000   ; qtot 231.141711
 6935         hx    231    bbb     H3   6935 0.12219000   1.008000   ; qtot 231.263901
 6936         hx    231    bbb     H4   6936 0.12219000   1.008000   ; qtot 231.386091
 6937         c3    231    bbb     C3   6937 -0.39007700  12.010000   ; qtot 230.996014
 6938         hx    231    bbb     H5   6938 0.14940300   1.008000   ; qtot 231.145417
 6939         hx    231    bbb     H6   6939 0.14940300   1.008000   ; qtot 231.294820
 6940         c3    231    bbb     C4   6940 0.18057300  12.010000   ; qtot 231.475393
 6941         hc    231    bbb     H7   6941 0.01788900   1.008000   ; qtot 231.493282
 6942         hc    231    bbb     H8   6942 0.01788900   1.008000   ; qtot 231.511171
 6943         c3    231    bbb     C5   6943 -0.11337700  12.010000   ; qtot 231.397794
 6944         hc    231    bbb     H9   6944 0.09515400   1.008000   ; qtot 231.492948
 6945         hc    231    bbb    H10   6945 0.09515400   1.008000   ; qtot 231.588102
 6946         c3    231    bbb     C6   6946 -0.11337700  12.010000   ; qtot 231.474725
 6947         hc    231    bbb    H11   6947 0.09515400   1.008000   ; qtot 231.569879
 6948         hc    231    bbb    H12   6948 0.09515400   1.008000   ; qtot 231.665033
 6949         c3    231    bbb     C7   6949 0.21842400  12.010000   ; qtot 231.883457
 6950         h1    231    bbb    H13   6950 0.04500300   1.008000   ; qtot 231.928460
 6951         h1    231    bbb    H14   6951 0.04500300   1.008000   ; qtot 231.973463
 6952         c3    231    bbb     C8   6952 -0.06455200  12.010000   ; qtot 231.908911
 6953         h1    231    bbb    H15   6953 0.13554100   1.008000   ; qtot 232.044452
 6954         h1    231    bbb    H16   6954 0.13554100   1.008000   ; qtot 232.179993
 6955         c3    231    bbb     C9   6955 -0.06455200  12.010000   ; qtot 232.115441
 6956         h1    231    bbb    H17   6956 0.13554100   1.008000   ; qtot 232.250982
 6957         h1    231    bbb    H18   6957 0.13554100   1.008000   ; qtot 232.386523
 6958         os    231    bbb     O1   6958 -0.62587700  16.000000   ; qtot 231.760646
 6959         hn    231    bbb    H19   6959 0.23982500   1.008000   ; qtot 232.000471
; residue  232 bbb rtp bbb q 1.0
 6960         n4    232    bbb     N1   6960 0.03726400  14.010000   ; qtot 232.037735
 6961         c3    232    bbb     C1   6961 -0.07020100  12.010000   ; qtot 231.967534
 6962         hx    232    bbb     H1   6962 0.12219000   1.008000   ; qtot 232.089724
 6963         hx    232    bbb     H2   6963 0.12219000   1.008000   ; qtot 232.211914
 6964         c3    232    bbb     C2   6964 -0.07020100  12.010000   ; qtot 232.141713
 6965         hx    232    bbb     H3   6965 0.12219000   1.008000   ; qtot 232.263903
 6966         hx    232    bbb     H4   6966 0.12219000   1.008000   ; qtot 232.386093
 6967         c3    232    bbb     C3   6967 -0.39007700  12.010000   ; qtot 231.996016
 6968         hx    232    bbb     H5   6968 0.14940300   1.008000   ; qtot 232.145419
 6969         hx    232    bbb     H6   6969 0.14940300   1.008000   ; qtot 232.294822
 6970         c3    232    bbb     C4   6970 0.18057300  12.010000   ; qtot 232.475395
 6971         hc    232    bbb     H7   6971 0.01788900   1.008000   ; qtot 232.493284
 6972         hc    232    bbb     H8   6972 0.01788900   1.008000   ; qtot 232.511173
 6973         c3    232    bbb     C5   6973 -0.11337700  12.010000   ; qtot 232.397796
 6974         hc    232    bbb     H9   6974 0.09515400   1.008000   ; qtot 232.492950
 6975         hc    232    bbb    H10   6975 0.09515400   1.008000   ; qtot 232.588104
 6976         c3    232    bbb     C6   6976 -0.11337700  12.010000   ; qtot 232.474727
 6977         hc    232    bbb    H11   6977 0.09515400   1.008000   ; qtot 232.569881
 6978         hc    232    bbb    H12   6978 0.09515400   1.008000   ; qtot 232.665035
 6979         c3    232    bbb     C7   6979 0.21842400  12.010000   ; qtot 232.883459
 6980         h1    232    bbb    H13   6980 0.04500300   1.008000   ; qtot 232.928462
 6981         h1    232    bbb    H14   6981 0.04500300   1.008000   ; qtot 232.973465
 6982         c3    232    bbb     C8   6982 -0.06455200  12.010000   ; qtot 232.908913
 6983         h1    232    bbb    H15   6983 0.13554100   1.008000   ; qtot 233.044454
 6984         h1    232    bbb    H16   6984 0.13554100   1.008000   ; qtot 233.179995
 6985         c3    232    bbb     C9   6985 -0.06455200  12.010000   ; qtot 233.115443
 6986         h1    232    bbb    H17   6986 0.13554100   1.008000   ; qtot 233.250984
 6987         h1    232    bbb    H18   6987 0.13554100   1.008000   ; qtot 233.386525
 6988         os    232    bbb     O1   6988 -0.62587700  16.000000   ; qtot 232.760648
 6989         hn    232    bbb    H19   6989 0.23982500   1.008000   ; qtot 233.000473
; residue  233 bbb rtp bbb q 1.0
 6990         n4    233    bbb     N1   6990 0.03726400  14.010000   ; qtot 233.037737
 6991         c3    233    bbb     C1   6991 -0.07020100  12.010000   ; qtot 232.967536
 6992         hx    233    bbb     H1   6992 0.12219000   1.008000   ; qtot 233.089726
 6993         hx    233    bbb     H2   6993 0.12219000   1.008000   ; qtot 233.211916
 6994         c3    233    bbb     C2   6994 -0.07020100  12.010000   ; qtot 233.141715
 6995         hx    233    bbb     H3   6995 0.12219000   1.008000   ; qtot 233.263905
 6996         hx    233    bbb     H4   6996 0.12219000   1.008000   ; qtot 233.386095
 6997         c3    233    bbb     C3   6997 -0.39007700  12.010000   ; qtot 232.996018
 6998         hx    233    bbb     H5   6998 0.14940300   1.008000   ; qtot 233.145421
 6999         hx    233    bbb     H6   6999 0.14940300   1.008000   ; qtot 233.294824
 7000         c3    233    bbb     C4   7000 0.18057300  12.010000   ; qtot 233.475397
 7001         hc    233    bbb     H7   7001 0.01788900   1.008000   ; qtot 233.493286
 7002         hc    233    bbb     H8   7002 0.01788900   1.008000   ; qtot 233.511175
 7003         c3    233    bbb     C5   7003 -0.11337700  12.010000   ; qtot 233.397798
 7004         hc    233    bbb     H9   7004 0.09515400   1.008000   ; qtot 233.492952
 7005         hc    233    bbb    H10   7005 0.09515400   1.008000   ; qtot 233.588106
 7006         c3    233    bbb     C6   7006 -0.11337700  12.010000   ; qtot 233.474729
 7007         hc    233    bbb    H11   7007 0.09515400   1.008000   ; qtot 233.569883
 7008         hc    233    bbb    H12   7008 0.09515400   1.008000   ; qtot 233.665037
 7009         c3    233    bbb     C7   7009 0.21842400  12.010000   ; qtot 233.883461
 7010         h1    233    bbb    H13   7010 0.04500300   1.008000   ; qtot 233.928464
 7011         h1    233    bbb    H14   7011 0.04500300   1.008000   ; qtot 233.973467
 7012         c3    233    bbb     C8   7012 -0.06455200  12.010000   ; qtot 233.908915
 7013         h1    233    bbb    H15   7013 0.13554100   1.008000   ; qtot 234.044456
 7014         h1    233    bbb    H16   7014 0.13554100   1.008000   ; qtot 234.179997
 7015         c3    233    bbb     C9   7015 -0.06455200  12.010000   ; qtot 234.115445
 7016         h1    233    bbb    H17   7016 0.13554100   1.008000   ; qtot 234.250986
 7017         h1    233    bbb    H18   7017 0.13554100   1.008000   ; qtot 234.386527
 7018         os    233    bbb     O1   7018 -0.62587700  16.000000   ; qtot 233.760650
 7019         hn    233    bbb    H19   7019 0.23982500   1.008000   ; qtot 234.000475
; residue  234 bbb rtp bbb q 1.0
 7020         n4    234    bbb     N1   7020 0.03726400  14.010000   ; qtot 234.037739
 7021         c3    234    bbb     C1   7021 -0.07020100  12.010000   ; qtot 233.967538
 7022         hx    234    bbb     H1   7022 0.12219000   1.008000   ; qtot 234.089728
 7023         hx    234    bbb     H2   7023 0.12219000   1.008000   ; qtot 234.211918
 7024         c3    234    bbb     C2   7024 -0.07020100  12.010000   ; qtot 234.141717
 7025         hx    234    bbb     H3   7025 0.12219000   1.008000   ; qtot 234.263907
 7026         hx    234    bbb     H4   7026 0.12219000   1.008000   ; qtot 234.386097
 7027         c3    234    bbb     C3   7027 -0.39007700  12.010000   ; qtot 233.996020
 7028         hx    234    bbb     H5   7028 0.14940300   1.008000   ; qtot 234.145423
 7029         hx    234    bbb     H6   7029 0.14940300   1.008000   ; qtot 234.294826
 7030         c3    234    bbb     C4   7030 0.18057300  12.010000   ; qtot 234.475399
 7031         hc    234    bbb     H7   7031 0.01788900   1.008000   ; qtot 234.493288
 7032         hc    234    bbb     H8   7032 0.01788900   1.008000   ; qtot 234.511177
 7033         c3    234    bbb     C5   7033 -0.11337700  12.010000   ; qtot 234.397800
 7034         hc    234    bbb     H9   7034 0.09515400   1.008000   ; qtot 234.492954
 7035         hc    234    bbb    H10   7035 0.09515400   1.008000   ; qtot 234.588108
 7036         c3    234    bbb     C6   7036 -0.11337700  12.010000   ; qtot 234.474731
 7037         hc    234    bbb    H11   7037 0.09515400   1.008000   ; qtot 234.569885
 7038         hc    234    bbb    H12   7038 0.09515400   1.008000   ; qtot 234.665039
 7039         c3    234    bbb     C7   7039 0.21842400  12.010000   ; qtot 234.883463
 7040         h1    234    bbb    H13   7040 0.04500300   1.008000   ; qtot 234.928466
 7041         h1    234    bbb    H14   7041 0.04500300   1.008000   ; qtot 234.973469
 7042         c3    234    bbb     C8   7042 -0.06455200  12.010000   ; qtot 234.908917
 7043         h1    234    bbb    H15   7043 0.13554100   1.008000   ; qtot 235.044458
 7044         h1    234    bbb    H16   7044 0.13554100   1.008000   ; qtot 235.179999
 7045         c3    234    bbb     C9   7045 -0.06455200  12.010000   ; qtot 235.115447
 7046         h1    234    bbb    H17   7046 0.13554100   1.008000   ; qtot 235.250988
 7047         h1    234    bbb    H18   7047 0.13554100   1.008000   ; qtot 235.386529
 7048         os    234    bbb     O1   7048 -0.62587700  16.000000   ; qtot 234.760652
 7049         hn    234    bbb    H19   7049 0.23982500   1.008000   ; qtot 235.000477
; residue  235 bbb rtp bbb q 1.0
 7050         n4    235    bbb     N1   7050 0.03726400  14.010000   ; qtot 235.037741
 7051         c3    235    bbb     C1   7051 -0.07020100  12.010000   ; qtot 234.967540
 7052         hx    235    bbb     H1   7052 0.12219000   1.008000   ; qtot 235.089730
 7053         hx    235    bbb     H2   7053 0.12219000   1.008000   ; qtot 235.211920
 7054         c3    235    bbb     C2   7054 -0.07020100  12.010000   ; qtot 235.141719
 7055         hx    235    bbb     H3   7055 0.12219000   1.008000   ; qtot 235.263909
 7056         hx    235    bbb     H4   7056 0.12219000   1.008000   ; qtot 235.386099
 7057         c3    235    bbb     C3   7057 -0.39007700  12.010000   ; qtot 234.996022
 7058         hx    235    bbb     H5   7058 0.14940300   1.008000   ; qtot 235.145425
 7059         hx    235    bbb     H6   7059 0.14940300   1.008000   ; qtot 235.294828
 7060         c3    235    bbb     C4   7060 0.18057300  12.010000   ; qtot 235.475401
 7061         hc    235    bbb     H7   7061 0.01788900   1.008000   ; qtot 235.493290
 7062         hc    235    bbb     H8   7062 0.01788900   1.008000   ; qtot 235.511179
 7063         c3    235    bbb     C5   7063 -0.11337700  12.010000   ; qtot 235.397802
 7064         hc    235    bbb     H9   7064 0.09515400   1.008000   ; qtot 235.492956
 7065         hc    235    bbb    H10   7065 0.09515400   1.008000   ; qtot 235.588110
 7066         c3    235    bbb     C6   7066 -0.11337700  12.010000   ; qtot 235.474733
 7067         hc    235    bbb    H11   7067 0.09515400   1.008000   ; qtot 235.569887
 7068         hc    235    bbb    H12   7068 0.09515400   1.008000   ; qtot 235.665041
 7069         c3    235    bbb     C7   7069 0.21842400  12.010000   ; qtot 235.883465
 7070         h1    235    bbb    H13   7070 0.04500300   1.008000   ; qtot 235.928468
 7071         h1    235    bbb    H14   7071 0.04500300   1.008000   ; qtot 235.973471
 7072         c3    235    bbb     C8   7072 -0.06455200  12.010000   ; qtot 235.908919
 7073         h1    235    bbb    H15   7073 0.13554100   1.008000   ; qtot 236.044460
 7074         h1    235    bbb    H16   7074 0.13554100   1.008000   ; qtot 236.180001
 7075         c3    235    bbb     C9   7075 -0.06455200  12.010000   ; qtot 236.115449
 7076         h1    235    bbb    H17   7076 0.13554100   1.008000   ; qtot 236.250990
 7077         h1    235    bbb    H18   7077 0.13554100   1.008000   ; qtot 236.386531
 7078         os    235    bbb     O1   7078 -0.62587700  16.000000   ; qtot 235.760654
 7079         hn    235    bbb    H19   7079 0.23982500   1.008000   ; qtot 236.000479
; residue  236 bbb rtp bbb q 1.0
 7080         n4    236    bbb     N1   7080 0.03726400  14.010000   ; qtot 236.037743
 7081         c3    236    bbb     C1   7081 -0.07020100  12.010000   ; qtot 235.967542
 7082         hx    236    bbb     H1   7082 0.12219000   1.008000   ; qtot 236.089732
 7083         hx    236    bbb     H2   7083 0.12219000   1.008000   ; qtot 236.211922
 7084         c3    236    bbb     C2   7084 -0.07020100  12.010000   ; qtot 236.141721
 7085         hx    236    bbb     H3   7085 0.12219000   1.008000   ; qtot 236.263911
 7086         hx    236    bbb     H4   7086 0.12219000   1.008000   ; qtot 236.386101
 7087         c3    236    bbb     C3   7087 -0.39007700  12.010000   ; qtot 235.996024
 7088         hx    236    bbb     H5   7088 0.14940300   1.008000   ; qtot 236.145427
 7089         hx    236    bbb     H6   7089 0.14940300   1.008000   ; qtot 236.294830
 7090         c3    236    bbb     C4   7090 0.18057300  12.010000   ; qtot 236.475403
 7091         hc    236    bbb     H7   7091 0.01788900   1.008000   ; qtot 236.493292
 7092         hc    236    bbb     H8   7092 0.01788900   1.008000   ; qtot 236.511181
 7093         c3    236    bbb     C5   7093 -0.11337700  12.010000   ; qtot 236.397804
 7094         hc    236    bbb     H9   7094 0.09515400   1.008000   ; qtot 236.492958
 7095         hc    236    bbb    H10   7095 0.09515400   1.008000   ; qtot 236.588112
 7096         c3    236    bbb     C6   7096 -0.11337700  12.010000   ; qtot 236.474735
 7097         hc    236    bbb    H11   7097 0.09515400   1.008000   ; qtot 236.569889
 7098         hc    236    bbb    H12   7098 0.09515400   1.008000   ; qtot 236.665043
 7099         c3    236    bbb     C7   7099 0.21842400  12.010000   ; qtot 236.883467
 7100         h1    236    bbb    H13   7100 0.04500300   1.008000   ; qtot 236.928470
 7101         h1    236    bbb    H14   7101 0.04500300   1.008000   ; qtot 236.973473
 7102         c3    236    bbb     C8   7102 -0.06455200  12.010000   ; qtot 236.908921
 7103         h1    236    bbb    H15   7103 0.13554100   1.008000   ; qtot 237.044462
 7104         h1    236    bbb    H16   7104 0.13554100   1.008000   ; qtot 237.180003
 7105         c3    236    bbb     C9   7105 -0.06455200  12.010000   ; qtot 237.115451
 7106         h1    236    bbb    H17   7106 0.13554100   1.008000   ; qtot 237.250992
 7107         h1    236    bbb    H18   7107 0.13554100   1.008000   ; qtot 237.386533
 7108         os    236    bbb     O1   7108 -0.62587700  16.000000   ; qtot 236.760656
 7109         hn    236    bbb    H19   7109 0.23982500   1.008000   ; qtot 237.000481
; residue  237 bbb rtp bbb q 1.0
 7110         n4    237    bbb     N1   7110 0.03726400  14.010000   ; qtot 237.037745
 7111         c3    237    bbb     C1   7111 -0.07020100  12.010000   ; qtot 236.967544
 7112         hx    237    bbb     H1   7112 0.12219000   1.008000   ; qtot 237.089734
 7113         hx    237    bbb     H2   7113 0.12219000   1.008000   ; qtot 237.211924
 7114         c3    237    bbb     C2   7114 -0.07020100  12.010000   ; qtot 237.141723
 7115         hx    237    bbb     H3   7115 0.12219000   1.008000   ; qtot 237.263913
 7116         hx    237    bbb     H4   7116 0.12219000   1.008000   ; qtot 237.386103
 7117         c3    237    bbb     C3   7117 -0.39007700  12.010000   ; qtot 236.996026
 7118         hx    237    bbb     H5   7118 0.14940300   1.008000   ; qtot 237.145429
 7119         hx    237    bbb     H6   7119 0.14940300   1.008000   ; qtot 237.294832
 7120         c3    237    bbb     C4   7120 0.18057300  12.010000   ; qtot 237.475405
 7121         hc    237    bbb     H7   7121 0.01788900   1.008000   ; qtot 237.493294
 7122         hc    237    bbb     H8   7122 0.01788900   1.008000   ; qtot 237.511183
 7123         c3    237    bbb     C5   7123 -0.11337700  12.010000   ; qtot 237.397806
 7124         hc    237    bbb     H9   7124 0.09515400   1.008000   ; qtot 237.492960
 7125         hc    237    bbb    H10   7125 0.09515400   1.008000   ; qtot 237.588114
 7126         c3    237    bbb     C6   7126 -0.11337700  12.010000   ; qtot 237.474737
 7127         hc    237    bbb    H11   7127 0.09515400   1.008000   ; qtot 237.569891
 7128         hc    237    bbb    H12   7128 0.09515400   1.008000   ; qtot 237.665045
 7129         c3    237    bbb     C7   7129 0.21842400  12.010000   ; qtot 237.883469
 7130         h1    237    bbb    H13   7130 0.04500300   1.008000   ; qtot 237.928472
 7131         h1    237    bbb    H14   7131 0.04500300   1.008000   ; qtot 237.973475
 7132         c3    237    bbb     C8   7132 -0.06455200  12.010000   ; qtot 237.908923
 7133         h1    237    bbb    H15   7133 0.13554100   1.008000   ; qtot 238.044464
 7134         h1    237    bbb    H16   7134 0.13554100   1.008000   ; qtot 238.180005
 7135         c3    237    bbb     C9   7135 -0.06455200  12.010000   ; qtot 238.115453
 7136         h1    237    bbb    H17   7136 0.13554100   1.008000   ; qtot 238.250994
 7137         h1    237    bbb    H18   7137 0.13554100   1.008000   ; qtot 238.386535
 7138         os    237    bbb     O1   7138 -0.62587700  16.000000   ; qtot 237.760658
 7139         hn    237    bbb    H19   7139 0.23982500   1.008000   ; qtot 238.000483
; residue  238 bbb rtp bbb q 1.0
 7140         n4    238    bbb     N1   7140 0.03726400  14.010000   ; qtot 238.037747
 7141         c3    238    bbb     C1   7141 -0.07020100  12.010000   ; qtot 237.967546
 7142         hx    238    bbb     H1   7142 0.12219000   1.008000   ; qtot 238.089736
 7143         hx    238    bbb     H2   7143 0.12219000   1.008000   ; qtot 238.211926
 7144         c3    238    bbb     C2   7144 -0.07020100  12.010000   ; qtot 238.141725
 7145         hx    238    bbb     H3   7145 0.12219000   1.008000   ; qtot 238.263915
 7146         hx    238    bbb     H4   7146 0.12219000   1.008000   ; qtot 238.386105
 7147         c3    238    bbb     C3   7147 -0.39007700  12.010000   ; qtot 237.996028
 7148         hx    238    bbb     H5   7148 0.14940300   1.008000   ; qtot 238.145431
 7149         hx    238    bbb     H6   7149 0.14940300   1.008000   ; qtot 238.294834
 7150         c3    238    bbb     C4   7150 0.18057300  12.010000   ; qtot 238.475407
 7151         hc    238    bbb     H7   7151 0.01788900   1.008000   ; qtot 238.493296
 7152         hc    238    bbb     H8   7152 0.01788900   1.008000   ; qtot 238.511185
 7153         c3    238    bbb     C5   7153 -0.11337700  12.010000   ; qtot 238.397808
 7154         hc    238    bbb     H9   7154 0.09515400   1.008000   ; qtot 238.492962
 7155         hc    238    bbb    H10   7155 0.09515400   1.008000   ; qtot 238.588116
 7156         c3    238    bbb     C6   7156 -0.11337700  12.010000   ; qtot 238.474739
 7157         hc    238    bbb    H11   7157 0.09515400   1.008000   ; qtot 238.569893
 7158         hc    238    bbb    H12   7158 0.09515400   1.008000   ; qtot 238.665047
 7159         c3    238    bbb     C7   7159 0.21842400  12.010000   ; qtot 238.883471
 7160         h1    238    bbb    H13   7160 0.04500300   1.008000   ; qtot 238.928474
 7161         h1    238    bbb    H14   7161 0.04500300   1.008000   ; qtot 238.973477
 7162         c3    238    bbb     C8   7162 -0.06455200  12.010000   ; qtot 238.908925
 7163         h1    238    bbb    H15   7163 0.13554100   1.008000   ; qtot 239.044466
 7164         h1    238    bbb    H16   7164 0.13554100   1.008000   ; qtot 239.180007
 7165         c3    238    bbb     C9   7165 -0.06455200  12.010000   ; qtot 239.115455
 7166         h1    238    bbb    H17   7166 0.13554100   1.008000   ; qtot 239.250996
 7167         h1    238    bbb    H18   7167 0.13554100   1.008000   ; qtot 239.386537
 7168         os    238    bbb     O1   7168 -0.62587700  16.000000   ; qtot 238.760660
 7169         hn    238    bbb    H19   7169 0.23982500   1.008000   ; qtot 239.000485
; residue  239 bbb rtp bbb q 1.0
 7170         n4    239    bbb     N1   7170 0.03726400  14.010000   ; qtot 239.037749
 7171         c3    239    bbb     C1   7171 -0.07020100  12.010000   ; qtot 238.967548
 7172         hx    239    bbb     H1   7172 0.12219000   1.008000   ; qtot 239.089738
 7173         hx    239    bbb     H2   7173 0.12219000   1.008000   ; qtot 239.211928
 7174         c3    239    bbb     C2   7174 -0.07020100  12.010000   ; qtot 239.141727
 7175         hx    239    bbb     H3   7175 0.12219000   1.008000   ; qtot 239.263917
 7176         hx    239    bbb     H4   7176 0.12219000   1.008000   ; qtot 239.386107
 7177         c3    239    bbb     C3   7177 -0.39007700  12.010000   ; qtot 238.996030
 7178         hx    239    bbb     H5   7178 0.14940300   1.008000   ; qtot 239.145433
 7179         hx    239    bbb     H6   7179 0.14940300   1.008000   ; qtot 239.294836
 7180         c3    239    bbb     C4   7180 0.18057300  12.010000   ; qtot 239.475409
 7181         hc    239    bbb     H7   7181 0.01788900   1.008000   ; qtot 239.493298
 7182         hc    239    bbb     H8   7182 0.01788900   1.008000   ; qtot 239.511187
 7183         c3    239    bbb     C5   7183 -0.11337700  12.010000   ; qtot 239.397810
 7184         hc    239    bbb     H9   7184 0.09515400   1.008000   ; qtot 239.492964
 7185         hc    239    bbb    H10   7185 0.09515400   1.008000   ; qtot 239.588118
 7186         c3    239    bbb     C6   7186 -0.11337700  12.010000   ; qtot 239.474741
 7187         hc    239    bbb    H11   7187 0.09515400   1.008000   ; qtot 239.569895
 7188         hc    239    bbb    H12   7188 0.09515400   1.008000   ; qtot 239.665049
 7189         c3    239    bbb     C7   7189 0.21842400  12.010000   ; qtot 239.883473
 7190         h1    239    bbb    H13   7190 0.04500300   1.008000   ; qtot 239.928476
 7191         h1    239    bbb    H14   7191 0.04500300   1.008000   ; qtot 239.973479
 7192         c3    239    bbb     C8   7192 -0.06455200  12.010000   ; qtot 239.908927
 7193         h1    239    bbb    H15   7193 0.13554100   1.008000   ; qtot 240.044468
 7194         h1    239    bbb    H16   7194 0.13554100   1.008000   ; qtot 240.180009
 7195         c3    239    bbb     C9   7195 -0.06455200  12.010000   ; qtot 240.115457
 7196         h1    239    bbb    H17   7196 0.13554100   1.008000   ; qtot 240.250998
 7197         h1    239    bbb    H18   7197 0.13554100   1.008000   ; qtot 240.386539
 7198         os    239    bbb     O1   7198 -0.62587700  16.000000   ; qtot 239.760662
 7199         hn    239    bbb    H19   7199 0.23982500   1.008000   ; qtot 240.000487
; residue  240 bbb rtp bbb q 1.0
 7200         n4    240    bbb     N1   7200 0.03726400  14.010000   ; qtot 240.037751
 7201         c3    240    bbb     C1   7201 -0.07020100  12.010000   ; qtot 239.967550
 7202         hx    240    bbb     H1   7202 0.12219000   1.008000   ; qtot 240.089740
 7203         hx    240    bbb     H2   7203 0.12219000   1.008000   ; qtot 240.211930
 7204         c3    240    bbb     C2   7204 -0.07020100  12.010000   ; qtot 240.141729
 7205         hx    240    bbb     H3   7205 0.12219000   1.008000   ; qtot 240.263919
 7206         hx    240    bbb     H4   7206 0.12219000   1.008000   ; qtot 240.386109
 7207         c3    240    bbb     C3   7207 -0.39007700  12.010000   ; qtot 239.996032
 7208         hx    240    bbb     H5   7208 0.14940300   1.008000   ; qtot 240.145435
 7209         hx    240    bbb     H6   7209 0.14940300   1.008000   ; qtot 240.294838
 7210         c3    240    bbb     C4   7210 0.18057300  12.010000   ; qtot 240.475411
 7211         hc    240    bbb     H7   7211 0.01788900   1.008000   ; qtot 240.493300
 7212         hc    240    bbb     H8   7212 0.01788900   1.008000   ; qtot 240.511189
 7213         c3    240    bbb     C5   7213 -0.11337700  12.010000   ; qtot 240.397812
 7214         hc    240    bbb     H9   7214 0.09515400   1.008000   ; qtot 240.492966
 7215         hc    240    bbb    H10   7215 0.09515400   1.008000   ; qtot 240.588120
 7216         c3    240    bbb     C6   7216 -0.11337700  12.010000   ; qtot 240.474743
 7217         hc    240    bbb    H11   7217 0.09515400   1.008000   ; qtot 240.569897
 7218         hc    240    bbb    H12   7218 0.09515400   1.008000   ; qtot 240.665051
 7219         c3    240    bbb     C7   7219 0.21842400  12.010000   ; qtot 240.883475
 7220         h1    240    bbb    H13   7220 0.04500300   1.008000   ; qtot 240.928478
 7221         h1    240    bbb    H14   7221 0.04500300   1.008000   ; qtot 240.973481
 7222         c3    240    bbb     C8   7222 -0.06455200  12.010000   ; qtot 240.908929
 7223         h1    240    bbb    H15   7223 0.13554100   1.008000   ; qtot 241.044470
 7224         h1    240    bbb    H16   7224 0.13554100   1.008000   ; qtot 241.180011
 7225         c3    240    bbb     C9   7225 -0.06455200  12.010000   ; qtot 241.115459
 7226         h1    240    bbb    H17   7226 0.13554100   1.008000   ; qtot 241.251000
 7227         h1    240    bbb    H18   7227 0.13554100   1.008000   ; qtot 241.386541
 7228         os    240    bbb     O1   7228 -0.62587700  16.000000   ; qtot 240.760664
 7229         hn    240    bbb    H19   7229 0.23982500   1.008000   ; qtot 241.000489
; residue  241 bbb rtp bbb q 1.0
 7230         n4    241    bbb     N1   7230 0.03726400  14.010000   ; qtot 241.037753
 7231         c3    241    bbb     C1   7231 -0.07020100  12.010000   ; qtot 240.967552
 7232         hx    241    bbb     H1   7232 0.12219000   1.008000   ; qtot 241.089742
 7233         hx    241    bbb     H2   7233 0.12219000   1.008000   ; qtot 241.211932
 7234         c3    241    bbb     C2   7234 -0.07020100  12.010000   ; qtot 241.141731
 7235         hx    241    bbb     H3   7235 0.12219000   1.008000   ; qtot 241.263921
 7236         hx    241    bbb     H4   7236 0.12219000   1.008000   ; qtot 241.386111
 7237         c3    241    bbb     C3   7237 -0.39007700  12.010000   ; qtot 240.996034
 7238         hx    241    bbb     H5   7238 0.14940300   1.008000   ; qtot 241.145437
 7239         hx    241    bbb     H6   7239 0.14940300   1.008000   ; qtot 241.294840
 7240         c3    241    bbb     C4   7240 0.18057300  12.010000   ; qtot 241.475413
 7241         hc    241    bbb     H7   7241 0.01788900   1.008000   ; qtot 241.493302
 7242         hc    241    bbb     H8   7242 0.01788900   1.008000   ; qtot 241.511191
 7243         c3    241    bbb     C5   7243 -0.11337700  12.010000   ; qtot 241.397814
 7244         hc    241    bbb     H9   7244 0.09515400   1.008000   ; qtot 241.492968
 7245         hc    241    bbb    H10   7245 0.09515400   1.008000   ; qtot 241.588122
 7246         c3    241    bbb     C6   7246 -0.11337700  12.010000   ; qtot 241.474745
 7247         hc    241    bbb    H11   7247 0.09515400   1.008000   ; qtot 241.569899
 7248         hc    241    bbb    H12   7248 0.09515400   1.008000   ; qtot 241.665053
 7249         c3    241    bbb     C7   7249 0.21842400  12.010000   ; qtot 241.883477
 7250         h1    241    bbb    H13   7250 0.04500300   1.008000   ; qtot 241.928480
 7251         h1    241    bbb    H14   7251 0.04500300   1.008000   ; qtot 241.973483
 7252         c3    241    bbb     C8   7252 -0.06455200  12.010000   ; qtot 241.908931
 7253         h1    241    bbb    H15   7253 0.13554100   1.008000   ; qtot 242.044472
 7254         h1    241    bbb    H16   7254 0.13554100   1.008000   ; qtot 242.180013
 7255         c3    241    bbb     C9   7255 -0.06455200  12.010000   ; qtot 242.115461
 7256         h1    241    bbb    H17   7256 0.13554100   1.008000   ; qtot 242.251002
 7257         h1    241    bbb    H18   7257 0.13554100   1.008000   ; qtot 242.386543
 7258         os    241    bbb     O1   7258 -0.62587700  16.000000   ; qtot 241.760666
 7259         hn    241    bbb    H19   7259 0.23982500   1.008000   ; qtot 242.000491
; residue  242 bbb rtp bbb q 1.0
 7260         n4    242    bbb     N1   7260 0.03726400  14.010000   ; qtot 242.037755
 7261         c3    242    bbb     C1   7261 -0.07020100  12.010000   ; qtot 241.967554
 7262         hx    242    bbb     H1   7262 0.12219000   1.008000   ; qtot 242.089744
 7263         hx    242    bbb     H2   7263 0.12219000   1.008000   ; qtot 242.211934
 7264         c3    242    bbb     C2   7264 -0.07020100  12.010000   ; qtot 242.141733
 7265         hx    242    bbb     H3   7265 0.12219000   1.008000   ; qtot 242.263923
 7266         hx    242    bbb     H4   7266 0.12219000   1.008000   ; qtot 242.386113
 7267         c3    242    bbb     C3   7267 -0.39007700  12.010000   ; qtot 241.996036
 7268         hx    242    bbb     H5   7268 0.14940300   1.008000   ; qtot 242.145439
 7269         hx    242    bbb     H6   7269 0.14940300   1.008000   ; qtot 242.294842
 7270         c3    242    bbb     C4   7270 0.18057300  12.010000   ; qtot 242.475415
 7271         hc    242    bbb     H7   7271 0.01788900   1.008000   ; qtot 242.493304
 7272         hc    242    bbb     H8   7272 0.01788900   1.008000   ; qtot 242.511193
 7273         c3    242    bbb     C5   7273 -0.11337700  12.010000   ; qtot 242.397816
 7274         hc    242    bbb     H9   7274 0.09515400   1.008000   ; qtot 242.492970
 7275         hc    242    bbb    H10   7275 0.09515400   1.008000   ; qtot 242.588124
 7276         c3    242    bbb     C6   7276 -0.11337700  12.010000   ; qtot 242.474747
 7277         hc    242    bbb    H11   7277 0.09515400   1.008000   ; qtot 242.569901
 7278         hc    242    bbb    H12   7278 0.09515400   1.008000   ; qtot 242.665055
 7279         c3    242    bbb     C7   7279 0.21842400  12.010000   ; qtot 242.883479
 7280         h1    242    bbb    H13   7280 0.04500300   1.008000   ; qtot 242.928482
 7281         h1    242    bbb    H14   7281 0.04500300   1.008000   ; qtot 242.973485
 7282         c3    242    bbb     C8   7282 -0.06455200  12.010000   ; qtot 242.908933
 7283         h1    242    bbb    H15   7283 0.13554100   1.008000   ; qtot 243.044474
 7284         h1    242    bbb    H16   7284 0.13554100   1.008000   ; qtot 243.180015
 7285         c3    242    bbb     C9   7285 -0.06455200  12.010000   ; qtot 243.115463
 7286         h1    242    bbb    H17   7286 0.13554100   1.008000   ; qtot 243.251004
 7287         h1    242    bbb    H18   7287 0.13554100   1.008000   ; qtot 243.386545
 7288         os    242    bbb     O1   7288 -0.62587700  16.000000   ; qtot 242.760668
 7289         hn    242    bbb    H19   7289 0.23982500   1.008000   ; qtot 243.000493
; residue  243 bbb rtp bbb q 1.0
 7290         n4    243    bbb     N1   7290 0.03726400  14.010000   ; qtot 243.037757
 7291         c3    243    bbb     C1   7291 -0.07020100  12.010000   ; qtot 242.967556
 7292         hx    243    bbb     H1   7292 0.12219000   1.008000   ; qtot 243.089746
 7293         hx    243    bbb     H2   7293 0.12219000   1.008000   ; qtot 243.211936
 7294         c3    243    bbb     C2   7294 -0.07020100  12.010000   ; qtot 243.141735
 7295         hx    243    bbb     H3   7295 0.12219000   1.008000   ; qtot 243.263925
 7296         hx    243    bbb     H4   7296 0.12219000   1.008000   ; qtot 243.386115
 7297         c3    243    bbb     C3   7297 -0.39007700  12.010000   ; qtot 242.996038
 7298         hx    243    bbb     H5   7298 0.14940300   1.008000   ; qtot 243.145441
 7299         hx    243    bbb     H6   7299 0.14940300   1.008000   ; qtot 243.294844
 7300         c3    243    bbb     C4   7300 0.18057300  12.010000   ; qtot 243.475417
 7301         hc    243    bbb     H7   7301 0.01788900   1.008000   ; qtot 243.493306
 7302         hc    243    bbb     H8   7302 0.01788900   1.008000   ; qtot 243.511195
 7303         c3    243    bbb     C5   7303 -0.11337700  12.010000   ; qtot 243.397818
 7304         hc    243    bbb     H9   7304 0.09515400   1.008000   ; qtot 243.492972
 7305         hc    243    bbb    H10   7305 0.09515400   1.008000   ; qtot 243.588126
 7306         c3    243    bbb     C6   7306 -0.11337700  12.010000   ; qtot 243.474749
 7307         hc    243    bbb    H11   7307 0.09515400   1.008000   ; qtot 243.569903
 7308         hc    243    bbb    H12   7308 0.09515400   1.008000   ; qtot 243.665057
 7309         c3    243    bbb     C7   7309 0.21842400  12.010000   ; qtot 243.883481
 7310         h1    243    bbb    H13   7310 0.04500300   1.008000   ; qtot 243.928484
 7311         h1    243    bbb    H14   7311 0.04500300   1.008000   ; qtot 243.973487
 7312         c3    243    bbb     C8   7312 -0.06455200  12.010000   ; qtot 243.908935
 7313         h1    243    bbb    H15   7313 0.13554100   1.008000   ; qtot 244.044476
 7314         h1    243    bbb    H16   7314 0.13554100   1.008000   ; qtot 244.180017
 7315         c3    243    bbb     C9   7315 -0.06455200  12.010000   ; qtot 244.115465
 7316         h1    243    bbb    H17   7316 0.13554100   1.008000   ; qtot 244.251006
 7317         h1    243    bbb    H18   7317 0.13554100   1.008000   ; qtot 244.386547
 7318         os    243    bbb     O1   7318 -0.62587700  16.000000   ; qtot 243.760670
 7319         hn    243    bbb    H19   7319 0.23982500   1.008000   ; qtot 244.000495
; residue  244 bbb rtp bbb q 1.0
 7320         n4    244    bbb     N1   7320 0.03726400  14.010000   ; qtot 244.037759
 7321         c3    244    bbb     C1   7321 -0.07020100  12.010000   ; qtot 243.967558
 7322         hx    244    bbb     H1   7322 0.12219000   1.008000   ; qtot 244.089748
 7323         hx    244    bbb     H2   7323 0.12219000   1.008000   ; qtot 244.211938
 7324         c3    244    bbb     C2   7324 -0.07020100  12.010000   ; qtot 244.141737
 7325         hx    244    bbb     H3   7325 0.12219000   1.008000   ; qtot 244.263927
 7326         hx    244    bbb     H4   7326 0.12219000   1.008000   ; qtot 244.386117
 7327         c3    244    bbb     C3   7327 -0.39007700  12.010000   ; qtot 243.996040
 7328         hx    244    bbb     H5   7328 0.14940300   1.008000   ; qtot 244.145443
 7329         hx    244    bbb     H6   7329 0.14940300   1.008000   ; qtot 244.294846
 7330         c3    244    bbb     C4   7330 0.18057300  12.010000   ; qtot 244.475419
 7331         hc    244    bbb     H7   7331 0.01788900   1.008000   ; qtot 244.493308
 7332         hc    244    bbb     H8   7332 0.01788900   1.008000   ; qtot 244.511197
 7333         c3    244    bbb     C5   7333 -0.11337700  12.010000   ; qtot 244.397820
 7334         hc    244    bbb     H9   7334 0.09515400   1.008000   ; qtot 244.492974
 7335         hc    244    bbb    H10   7335 0.09515400   1.008000   ; qtot 244.588128
 7336         c3    244    bbb     C6   7336 -0.11337700  12.010000   ; qtot 244.474751
 7337         hc    244    bbb    H11   7337 0.09515400   1.008000   ; qtot 244.569905
 7338         hc    244    bbb    H12   7338 0.09515400   1.008000   ; qtot 244.665059
 7339         c3    244    bbb     C7   7339 0.21842400  12.010000   ; qtot 244.883483
 7340         h1    244    bbb    H13   7340 0.04500300   1.008000   ; qtot 244.928486
 7341         h1    244    bbb    H14   7341 0.04500300   1.008000   ; qtot 244.973489
 7342         c3    244    bbb     C8   7342 -0.06455200  12.010000   ; qtot 244.908937
 7343         h1    244    bbb    H15   7343 0.13554100   1.008000   ; qtot 245.044478
 7344         h1    244    bbb    H16   7344 0.13554100   1.008000   ; qtot 245.180019
 7345         c3    244    bbb     C9   7345 -0.06455200  12.010000   ; qtot 245.115467
 7346         h1    244    bbb    H17   7346 0.13554100   1.008000   ; qtot 245.251008
 7347         h1    244    bbb    H18   7347 0.13554100   1.008000   ; qtot 245.386549
 7348         os    244    bbb     O1   7348 -0.62587700  16.000000   ; qtot 244.760672
 7349         hn    244    bbb    H19   7349 0.23982500   1.008000   ; qtot 245.000497
; residue  245 bbb rtp bbb q 1.0
 7350         n4    245    bbb     N1   7350 0.03726400  14.010000   ; qtot 245.037761
 7351         c3    245    bbb     C1   7351 -0.07020100  12.010000   ; qtot 244.967560
 7352         hx    245    bbb     H1   7352 0.12219000   1.008000   ; qtot 245.089750
 7353         hx    245    bbb     H2   7353 0.12219000   1.008000   ; qtot 245.211940
 7354         c3    245    bbb     C2   7354 -0.07020100  12.010000   ; qtot 245.141739
 7355         hx    245    bbb     H3   7355 0.12219000   1.008000   ; qtot 245.263929
 7356         hx    245    bbb     H4   7356 0.12219000   1.008000   ; qtot 245.386119
 7357         c3    245    bbb     C3   7357 -0.39007700  12.010000   ; qtot 244.996042
 7358         hx    245    bbb     H5   7358 0.14940300   1.008000   ; qtot 245.145445
 7359         hx    245    bbb     H6   7359 0.14940300   1.008000   ; qtot 245.294848
 7360         c3    245    bbb     C4   7360 0.18057300  12.010000   ; qtot 245.475421
 7361         hc    245    bbb     H7   7361 0.01788900   1.008000   ; qtot 245.493310
 7362         hc    245    bbb     H8   7362 0.01788900   1.008000   ; qtot 245.511199
 7363         c3    245    bbb     C5   7363 -0.11337700  12.010000   ; qtot 245.397822
 7364         hc    245    bbb     H9   7364 0.09515400   1.008000   ; qtot 245.492976
 7365         hc    245    bbb    H10   7365 0.09515400   1.008000   ; qtot 245.588130
 7366         c3    245    bbb     C6   7366 -0.11337700  12.010000   ; qtot 245.474753
 7367         hc    245    bbb    H11   7367 0.09515400   1.008000   ; qtot 245.569907
 7368         hc    245    bbb    H12   7368 0.09515400   1.008000   ; qtot 245.665061
 7369         c3    245    bbb     C7   7369 0.21842400  12.010000   ; qtot 245.883485
 7370         h1    245    bbb    H13   7370 0.04500300   1.008000   ; qtot 245.928488
 7371         h1    245    bbb    H14   7371 0.04500300   1.008000   ; qtot 245.973491
 7372         c3    245    bbb     C8   7372 -0.06455200  12.010000   ; qtot 245.908939
 7373         h1    245    bbb    H15   7373 0.13554100   1.008000   ; qtot 246.044480
 7374         h1    245    bbb    H16   7374 0.13554100   1.008000   ; qtot 246.180021
 7375         c3    245    bbb     C9   7375 -0.06455200  12.010000   ; qtot 246.115469
 7376         h1    245    bbb    H17   7376 0.13554100   1.008000   ; qtot 246.251010
 7377         h1    245    bbb    H18   7377 0.13554100   1.008000   ; qtot 246.386551
 7378         os    245    bbb     O1   7378 -0.62587700  16.000000   ; qtot 245.760674
 7379         hn    245    bbb    H19   7379 0.23982500   1.008000   ; qtot 246.000499
; residue  246 bbb rtp bbb q 1.0
 7380         n4    246    bbb     N1   7380 0.03726400  14.010000   ; qtot 246.037763
 7381         c3    246    bbb     C1   7381 -0.07020100  12.010000   ; qtot 245.967562
 7382         hx    246    bbb     H1   7382 0.12219000   1.008000   ; qtot 246.089752
 7383         hx    246    bbb     H2   7383 0.12219000   1.008000   ; qtot 246.211942
 7384         c3    246    bbb     C2   7384 -0.07020100  12.010000   ; qtot 246.141741
 7385         hx    246    bbb     H3   7385 0.12219000   1.008000   ; qtot 246.263931
 7386         hx    246    bbb     H4   7386 0.12219000   1.008000   ; qtot 246.386121
 7387         c3    246    bbb     C3   7387 -0.39007700  12.010000   ; qtot 245.996044
 7388         hx    246    bbb     H5   7388 0.14940300   1.008000   ; qtot 246.145447
 7389         hx    246    bbb     H6   7389 0.14940300   1.008000   ; qtot 246.294850
 7390         c3    246    bbb     C4   7390 0.18057300  12.010000   ; qtot 246.475423
 7391         hc    246    bbb     H7   7391 0.01788900   1.008000   ; qtot 246.493312
 7392         hc    246    bbb     H8   7392 0.01788900   1.008000   ; qtot 246.511201
 7393         c3    246    bbb     C5   7393 -0.11337700  12.010000   ; qtot 246.397824
 7394         hc    246    bbb     H9   7394 0.09515400   1.008000   ; qtot 246.492978
 7395         hc    246    bbb    H10   7395 0.09515400   1.008000   ; qtot 246.588132
 7396         c3    246    bbb     C6   7396 -0.11337700  12.010000   ; qtot 246.474755
 7397         hc    246    bbb    H11   7397 0.09515400   1.008000   ; qtot 246.569909
 7398         hc    246    bbb    H12   7398 0.09515400   1.008000   ; qtot 246.665063
 7399         c3    246    bbb     C7   7399 0.21842400  12.010000   ; qtot 246.883487
 7400         h1    246    bbb    H13   7400 0.04500300   1.008000   ; qtot 246.928490
 7401         h1    246    bbb    H14   7401 0.04500300   1.008000   ; qtot 246.973493
 7402         c3    246    bbb     C8   7402 -0.06455200  12.010000   ; qtot 246.908941
 7403         h1    246    bbb    H15   7403 0.13554100   1.008000   ; qtot 247.044482
 7404         h1    246    bbb    H16   7404 0.13554100   1.008000   ; qtot 247.180023
 7405         c3    246    bbb     C9   7405 -0.06455200  12.010000   ; qtot 247.115471
 7406         h1    246    bbb    H17   7406 0.13554100   1.008000   ; qtot 247.251012
 7407         h1    246    bbb    H18   7407 0.13554100   1.008000   ; qtot 247.386553
 7408         os    246    bbb     O1   7408 -0.62587700  16.000000   ; qtot 246.760676
 7409         hn    246    bbb    H19   7409 0.23982500   1.008000   ; qtot 247.000501
; residue  247 bbb rtp bbb q 1.0
 7410         n4    247    bbb     N1   7410 0.03726400  14.010000   ; qtot 247.037765
 7411         c3    247    bbb     C1   7411 -0.07020100  12.010000   ; qtot 246.967564
 7412         hx    247    bbb     H1   7412 0.12219000   1.008000   ; qtot 247.089754
 7413         hx    247    bbb     H2   7413 0.12219000   1.008000   ; qtot 247.211944
 7414         c3    247    bbb     C2   7414 -0.07020100  12.010000   ; qtot 247.141743
 7415         hx    247    bbb     H3   7415 0.12219000   1.008000   ; qtot 247.263933
 7416         hx    247    bbb     H4   7416 0.12219000   1.008000   ; qtot 247.386123
 7417         c3    247    bbb     C3   7417 -0.39007700  12.010000   ; qtot 246.996046
 7418         hx    247    bbb     H5   7418 0.14940300   1.008000   ; qtot 247.145449
 7419         hx    247    bbb     H6   7419 0.14940300   1.008000   ; qtot 247.294852
 7420         c3    247    bbb     C4   7420 0.18057300  12.010000   ; qtot 247.475425
 7421         hc    247    bbb     H7   7421 0.01788900   1.008000   ; qtot 247.493314
 7422         hc    247    bbb     H8   7422 0.01788900   1.008000   ; qtot 247.511203
 7423         c3    247    bbb     C5   7423 -0.11337700  12.010000   ; qtot 247.397826
 7424         hc    247    bbb     H9   7424 0.09515400   1.008000   ; qtot 247.492980
 7425         hc    247    bbb    H10   7425 0.09515400   1.008000   ; qtot 247.588134
 7426         c3    247    bbb     C6   7426 -0.11337700  12.010000   ; qtot 247.474757
 7427         hc    247    bbb    H11   7427 0.09515400   1.008000   ; qtot 247.569911
 7428         hc    247    bbb    H12   7428 0.09515400   1.008000   ; qtot 247.665065
 7429         c3    247    bbb     C7   7429 0.21842400  12.010000   ; qtot 247.883489
 7430         h1    247    bbb    H13   7430 0.04500300   1.008000   ; qtot 247.928492
 7431         h1    247    bbb    H14   7431 0.04500300   1.008000   ; qtot 247.973495
 7432         c3    247    bbb     C8   7432 -0.06455200  12.010000   ; qtot 247.908943
 7433         h1    247    bbb    H15   7433 0.13554100   1.008000   ; qtot 248.044484
 7434         h1    247    bbb    H16   7434 0.13554100   1.008000   ; qtot 248.180025
 7435         c3    247    bbb     C9   7435 -0.06455200  12.010000   ; qtot 248.115473
 7436         h1    247    bbb    H17   7436 0.13554100   1.008000   ; qtot 248.251014
 7437         h1    247    bbb    H18   7437 0.13554100   1.008000   ; qtot 248.386555
 7438         os    247    bbb     O1   7438 -0.62587700  16.000000   ; qtot 247.760678
 7439         hn    247    bbb    H19   7439 0.23982500   1.008000   ; qtot 248.000503
; residue  248 bbb rtp bbb q 1.0
 7440         n4    248    bbb     N1   7440 0.03726400  14.010000   ; qtot 248.037767
 7441         c3    248    bbb     C1   7441 -0.07020100  12.010000   ; qtot 247.967566
 7442         hx    248    bbb     H1   7442 0.12219000   1.008000   ; qtot 248.089756
 7443         hx    248    bbb     H2   7443 0.12219000   1.008000   ; qtot 248.211946
 7444         c3    248    bbb     C2   7444 -0.07020100  12.010000   ; qtot 248.141745
 7445         hx    248    bbb     H3   7445 0.12219000   1.008000   ; qtot 248.263935
 7446         hx    248    bbb     H4   7446 0.12219000   1.008000   ; qtot 248.386125
 7447         c3    248    bbb     C3   7447 -0.39007700  12.010000   ; qtot 247.996048
 7448         hx    248    bbb     H5   7448 0.14940300   1.008000   ; qtot 248.145451
 7449         hx    248    bbb     H6   7449 0.14940300   1.008000   ; qtot 248.294854
 7450         c3    248    bbb     C4   7450 0.18057300  12.010000   ; qtot 248.475427
 7451         hc    248    bbb     H7   7451 0.01788900   1.008000   ; qtot 248.493316
 7452         hc    248    bbb     H8   7452 0.01788900   1.008000   ; qtot 248.511205
 7453         c3    248    bbb     C5   7453 -0.11337700  12.010000   ; qtot 248.397828
 7454         hc    248    bbb     H9   7454 0.09515400   1.008000   ; qtot 248.492982
 7455         hc    248    bbb    H10   7455 0.09515400   1.008000   ; qtot 248.588136
 7456         c3    248    bbb     C6   7456 -0.11337700  12.010000   ; qtot 248.474759
 7457         hc    248    bbb    H11   7457 0.09515400   1.008000   ; qtot 248.569913
 7458         hc    248    bbb    H12   7458 0.09515400   1.008000   ; qtot 248.665067
 7459         c3    248    bbb     C7   7459 0.21842400  12.010000   ; qtot 248.883491
 7460         h1    248    bbb    H13   7460 0.04500300   1.008000   ; qtot 248.928494
 7461         h1    248    bbb    H14   7461 0.04500300   1.008000   ; qtot 248.973497
 7462         c3    248    bbb     C8   7462 -0.06455200  12.010000   ; qtot 248.908945
 7463         h1    248    bbb    H15   7463 0.13554100   1.008000   ; qtot 249.044486
 7464         h1    248    bbb    H16   7464 0.13554100   1.008000   ; qtot 249.180027
 7465         c3    248    bbb     C9   7465 -0.06455200  12.010000   ; qtot 249.115475
 7466         h1    248    bbb    H17   7466 0.13554100   1.008000   ; qtot 249.251016
 7467         h1    248    bbb    H18   7467 0.13554100   1.008000   ; qtot 249.386557
 7468         os    248    bbb     O1   7468 -0.62587700  16.000000   ; qtot 248.760680
 7469         hn    248    bbb    H19   7469 0.23982500   1.008000   ; qtot 249.000505
; residue  249 bbb rtp bbb q 1.0
 7470         n4    249    bbb     N1   7470 0.03726400  14.010000   ; qtot 249.037769
 7471         c3    249    bbb     C1   7471 -0.07020100  12.010000   ; qtot 248.967568
 7472         hx    249    bbb     H1   7472 0.12219000   1.008000   ; qtot 249.089758
 7473         hx    249    bbb     H2   7473 0.12219000   1.008000   ; qtot 249.211948
 7474         c3    249    bbb     C2   7474 -0.07020100  12.010000   ; qtot 249.141747
 7475         hx    249    bbb     H3   7475 0.12219000   1.008000   ; qtot 249.263937
 7476         hx    249    bbb     H4   7476 0.12219000   1.008000   ; qtot 249.386127
 7477         c3    249    bbb     C3   7477 -0.39007700  12.010000   ; qtot 248.996050
 7478         hx    249    bbb     H5   7478 0.14940300   1.008000   ; qtot 249.145453
 7479         hx    249    bbb     H6   7479 0.14940300   1.008000   ; qtot 249.294856
 7480         c3    249    bbb     C4   7480 0.18057300  12.010000   ; qtot 249.475429
 7481         hc    249    bbb     H7   7481 0.01788900   1.008000   ; qtot 249.493318
 7482         hc    249    bbb     H8   7482 0.01788900   1.008000   ; qtot 249.511207
 7483         c3    249    bbb     C5   7483 -0.11337700  12.010000   ; qtot 249.397830
 7484         hc    249    bbb     H9   7484 0.09515400   1.008000   ; qtot 249.492984
 7485         hc    249    bbb    H10   7485 0.09515400   1.008000   ; qtot 249.588138
 7486         c3    249    bbb     C6   7486 -0.11337700  12.010000   ; qtot 249.474761
 7487         hc    249    bbb    H11   7487 0.09515400   1.008000   ; qtot 249.569915
 7488         hc    249    bbb    H12   7488 0.09515400   1.008000   ; qtot 249.665069
 7489         c3    249    bbb     C7   7489 0.21842400  12.010000   ; qtot 249.883493
 7490         h1    249    bbb    H13   7490 0.04500300   1.008000   ; qtot 249.928496
 7491         h1    249    bbb    H14   7491 0.04500300   1.008000   ; qtot 249.973499
 7492         c3    249    bbb     C8   7492 -0.06455200  12.010000   ; qtot 249.908947
 7493         h1    249    bbb    H15   7493 0.13554100   1.008000   ; qtot 250.044488
 7494         h1    249    bbb    H16   7494 0.13554100   1.008000   ; qtot 250.180029
 7495         c3    249    bbb     C9   7495 -0.06455200  12.010000   ; qtot 250.115477
 7496         h1    249    bbb    H17   7496 0.13554100   1.008000   ; qtot 250.251018
 7497         h1    249    bbb    H18   7497 0.13554100   1.008000   ; qtot 250.386559
 7498         os    249    bbb     O1   7498 -0.62587700  16.000000   ; qtot 249.760682
 7499         hn    249    bbb    H19   7499 0.23982500   1.008000   ; qtot 250.000507
; residue  250 bbb rtp bbb q 1.0
 7500         n4    250    bbb     N1   7500 0.03726400  14.010000   ; qtot 250.037771
 7501         c3    250    bbb     C1   7501 -0.07020100  12.010000   ; qtot 249.967570
 7502         hx    250    bbb     H1   7502 0.12219000   1.008000   ; qtot 250.089760
 7503         hx    250    bbb     H2   7503 0.12219000   1.008000   ; qtot 250.211950
 7504         c3    250    bbb     C2   7504 -0.07020100  12.010000   ; qtot 250.141749
 7505         hx    250    bbb     H3   7505 0.12219000   1.008000   ; qtot 250.263939
 7506         hx    250    bbb     H4   7506 0.12219000   1.008000   ; qtot 250.386129
 7507         c3    250    bbb     C3   7507 -0.39007700  12.010000   ; qtot 249.996052
 7508         hx    250    bbb     H5   7508 0.14940300   1.008000   ; qtot 250.145455
 7509         hx    250    bbb     H6   7509 0.14940300   1.008000   ; qtot 250.294858
 7510         c3    250    bbb     C4   7510 0.18057300  12.010000   ; qtot 250.475431
 7511         hc    250    bbb     H7   7511 0.01788900   1.008000   ; qtot 250.493320
 7512         hc    250    bbb     H8   7512 0.01788900   1.008000   ; qtot 250.511209
 7513         c3    250    bbb     C5   7513 -0.11337700  12.010000   ; qtot 250.397832
 7514         hc    250    bbb     H9   7514 0.09515400   1.008000   ; qtot 250.492986
 7515         hc    250    bbb    H10   7515 0.09515400   1.008000   ; qtot 250.588140
 7516         c3    250    bbb     C6   7516 -0.11337700  12.010000   ; qtot 250.474763
 7517         hc    250    bbb    H11   7517 0.09515400   1.008000   ; qtot 250.569917
 7518         hc    250    bbb    H12   7518 0.09515400   1.008000   ; qtot 250.665071
 7519         c3    250    bbb     C7   7519 0.21842400  12.010000   ; qtot 250.883495
 7520         h1    250    bbb    H13   7520 0.04500300   1.008000   ; qtot 250.928498
 7521         h1    250    bbb    H14   7521 0.04500300   1.008000   ; qtot 250.973501
 7522         c3    250    bbb     C8   7522 -0.06455200  12.010000   ; qtot 250.908949
 7523         h1    250    bbb    H15   7523 0.13554100   1.008000   ; qtot 251.044490
 7524         h1    250    bbb    H16   7524 0.13554100   1.008000   ; qtot 251.180031
 7525         c3    250    bbb     C9   7525 -0.06455200  12.010000   ; qtot 251.115479
 7526         h1    250    bbb    H17   7526 0.13554100   1.008000   ; qtot 251.251020
 7527         h1    250    bbb    H18   7527 0.13554100   1.008000   ; qtot 251.386561
 7528         os    250    bbb     O1   7528 -0.62587700  16.000000   ; qtot 250.760684
 7529         hn    250    bbb    H19   7529 0.23982500   1.008000   ; qtot 251.000509
; residue  251 bbb rtp bbb q 1.0
 7530         n4    251    bbb     N1   7530 0.03726400  14.010000   ; qtot 251.037773
 7531         c3    251    bbb     C1   7531 -0.07020100  12.010000   ; qtot 250.967572
 7532         hx    251    bbb     H1   7532 0.12219000   1.008000   ; qtot 251.089762
 7533         hx    251    bbb     H2   7533 0.12219000   1.008000   ; qtot 251.211952
 7534         c3    251    bbb     C2   7534 -0.07020100  12.010000   ; qtot 251.141751
 7535         hx    251    bbb     H3   7535 0.12219000   1.008000   ; qtot 251.263941
 7536         hx    251    bbb     H4   7536 0.12219000   1.008000   ; qtot 251.386131
 7537         c3    251    bbb     C3   7537 -0.39007700  12.010000   ; qtot 250.996054
 7538         hx    251    bbb     H5   7538 0.14940300   1.008000   ; qtot 251.145457
 7539         hx    251    bbb     H6   7539 0.14940300   1.008000   ; qtot 251.294860
 7540         c3    251    bbb     C4   7540 0.18057300  12.010000   ; qtot 251.475433
 7541         hc    251    bbb     H7   7541 0.01788900   1.008000   ; qtot 251.493322
 7542         hc    251    bbb     H8   7542 0.01788900   1.008000   ; qtot 251.511211
 7543         c3    251    bbb     C5   7543 -0.11337700  12.010000   ; qtot 251.397834
 7544         hc    251    bbb     H9   7544 0.09515400   1.008000   ; qtot 251.492988
 7545         hc    251    bbb    H10   7545 0.09515400   1.008000   ; qtot 251.588142
 7546         c3    251    bbb     C6   7546 -0.11337700  12.010000   ; qtot 251.474765
 7547         hc    251    bbb    H11   7547 0.09515400   1.008000   ; qtot 251.569919
 7548         hc    251    bbb    H12   7548 0.09515400   1.008000   ; qtot 251.665073
 7549         c3    251    bbb     C7   7549 0.21842400  12.010000   ; qtot 251.883497
 7550         h1    251    bbb    H13   7550 0.04500300   1.008000   ; qtot 251.928500
 7551         h1    251    bbb    H14   7551 0.04500300   1.008000   ; qtot 251.973503
 7552         c3    251    bbb     C8   7552 -0.06455200  12.010000   ; qtot 251.908951
 7553         h1    251    bbb    H15   7553 0.13554100   1.008000   ; qtot 252.044492
 7554         h1    251    bbb    H16   7554 0.13554100   1.008000   ; qtot 252.180033
 7555         c3    251    bbb     C9   7555 -0.06455200  12.010000   ; qtot 252.115481
 7556         h1    251    bbb    H17   7556 0.13554100   1.008000   ; qtot 252.251022
 7557         h1    251    bbb    H18   7557 0.13554100   1.008000   ; qtot 252.386563
 7558         os    251    bbb     O1   7558 -0.62587700  16.000000   ; qtot 251.760686
 7559         hn    251    bbb    H19   7559 0.23982500   1.008000   ; qtot 252.000511
; residue  252 bbb rtp bbb q 1.0
 7560         n4    252    bbb     N1   7560 0.03726400  14.010000   ; qtot 252.037775
 7561         c3    252    bbb     C1   7561 -0.07020100  12.010000   ; qtot 251.967574
 7562         hx    252    bbb     H1   7562 0.12219000   1.008000   ; qtot 252.089764
 7563         hx    252    bbb     H2   7563 0.12219000   1.008000   ; qtot 252.211954
 7564         c3    252    bbb     C2   7564 -0.07020100  12.010000   ; qtot 252.141753
 7565         hx    252    bbb     H3   7565 0.12219000   1.008000   ; qtot 252.263943
 7566         hx    252    bbb     H4   7566 0.12219000   1.008000   ; qtot 252.386133
 7567         c3    252    bbb     C3   7567 -0.39007700  12.010000   ; qtot 251.996056
 7568         hx    252    bbb     H5   7568 0.14940300   1.008000   ; qtot 252.145459
 7569         hx    252    bbb     H6   7569 0.14940300   1.008000   ; qtot 252.294862
 7570         c3    252    bbb     C4   7570 0.18057300  12.010000   ; qtot 252.475435
 7571         hc    252    bbb     H7   7571 0.01788900   1.008000   ; qtot 252.493324
 7572         hc    252    bbb     H8   7572 0.01788900   1.008000   ; qtot 252.511213
 7573         c3    252    bbb     C5   7573 -0.11337700  12.010000   ; qtot 252.397836
 7574         hc    252    bbb     H9   7574 0.09515400   1.008000   ; qtot 252.492990
 7575         hc    252    bbb    H10   7575 0.09515400   1.008000   ; qtot 252.588144
 7576         c3    252    bbb     C6   7576 -0.11337700  12.010000   ; qtot 252.474767
 7577         hc    252    bbb    H11   7577 0.09515400   1.008000   ; qtot 252.569921
 7578         hc    252    bbb    H12   7578 0.09515400   1.008000   ; qtot 252.665075
 7579         c3    252    bbb     C7   7579 0.21842400  12.010000   ; qtot 252.883499
 7580         h1    252    bbb    H13   7580 0.04500300   1.008000   ; qtot 252.928502
 7581         h1    252    bbb    H14   7581 0.04500300   1.008000   ; qtot 252.973505
 7582         c3    252    bbb     C8   7582 -0.06455200  12.010000   ; qtot 252.908953
 7583         h1    252    bbb    H15   7583 0.13554100   1.008000   ; qtot 253.044494
 7584         h1    252    bbb    H16   7584 0.13554100   1.008000   ; qtot 253.180035
 7585         c3    252    bbb     C9   7585 -0.06455200  12.010000   ; qtot 253.115483
 7586         h1    252    bbb    H17   7586 0.13554100   1.008000   ; qtot 253.251024
 7587         h1    252    bbb    H18   7587 0.13554100   1.008000   ; qtot 253.386565
 7588         os    252    bbb     O1   7588 -0.62587700  16.000000   ; qtot 252.760688
 7589         hn    252    bbb    H19   7589 0.23982500   1.008000   ; qtot 253.000513
; residue  253 bbb rtp bbb q 1.0
 7590         n4    253    bbb     N1   7590 0.03726400  14.010000   ; qtot 253.037777
 7591         c3    253    bbb     C1   7591 -0.07020100  12.010000   ; qtot 252.967576
 7592         hx    253    bbb     H1   7592 0.12219000   1.008000   ; qtot 253.089766
 7593         hx    253    bbb     H2   7593 0.12219000   1.008000   ; qtot 253.211956
 7594         c3    253    bbb     C2   7594 -0.07020100  12.010000   ; qtot 253.141755
 7595         hx    253    bbb     H3   7595 0.12219000   1.008000   ; qtot 253.263945
 7596         hx    253    bbb     H4   7596 0.12219000   1.008000   ; qtot 253.386135
 7597         c3    253    bbb     C3   7597 -0.39007700  12.010000   ; qtot 252.996058
 7598         hx    253    bbb     H5   7598 0.14940300   1.008000   ; qtot 253.145461
 7599         hx    253    bbb     H6   7599 0.14940300   1.008000   ; qtot 253.294864
 7600         c3    253    bbb     C4   7600 0.18057300  12.010000   ; qtot 253.475437
 7601         hc    253    bbb     H7   7601 0.01788900   1.008000   ; qtot 253.493326
 7602         hc    253    bbb     H8   7602 0.01788900   1.008000   ; qtot 253.511215
 7603         c3    253    bbb     C5   7603 -0.11337700  12.010000   ; qtot 253.397838
 7604         hc    253    bbb     H9   7604 0.09515400   1.008000   ; qtot 253.492992
 7605         hc    253    bbb    H10   7605 0.09515400   1.008000   ; qtot 253.588146
 7606         c3    253    bbb     C6   7606 -0.11337700  12.010000   ; qtot 253.474769
 7607         hc    253    bbb    H11   7607 0.09515400   1.008000   ; qtot 253.569923
 7608         hc    253    bbb    H12   7608 0.09515400   1.008000   ; qtot 253.665077
 7609         c3    253    bbb     C7   7609 0.21842400  12.010000   ; qtot 253.883501
 7610         h1    253    bbb    H13   7610 0.04500300   1.008000   ; qtot 253.928504
 7611         h1    253    bbb    H14   7611 0.04500300   1.008000   ; qtot 253.973507
 7612         c3    253    bbb     C8   7612 -0.06455200  12.010000   ; qtot 253.908955
 7613         h1    253    bbb    H15   7613 0.13554100   1.008000   ; qtot 254.044496
 7614         h1    253    bbb    H16   7614 0.13554100   1.008000   ; qtot 254.180037
 7615         c3    253    bbb     C9   7615 -0.06455200  12.010000   ; qtot 254.115485
 7616         h1    253    bbb    H17   7616 0.13554100   1.008000   ; qtot 254.251026
 7617         h1    253    bbb    H18   7617 0.13554100   1.008000   ; qtot 254.386567
 7618         os    253    bbb     O1   7618 -0.62587700  16.000000   ; qtot 253.760690
 7619         hn    253    bbb    H19   7619 0.23982500   1.008000   ; qtot 254.000515
; residue  254 ccc rtp ccc q 0.0
 7620         c3    254    ccc     C1   7620 -0.33178800  12.010000   ; qtot 253.668727
 7621         c3    254    ccc     C2   7621 0.30606500  12.010000   ; qtot 253.974792
 7622         h1    254    ccc     H1   7622 0.11662300   1.008000   ; qtot 254.091415
 7623         h1    254    ccc     H2   7623 0.11526800   1.008000   ; qtot 254.206683
 7624         c3    254    ccc     C3   7624 0.15592700  12.010000   ; qtot 254.362610
 7625         c3    254    ccc     C4   7625 0.28383300  12.010000   ; qtot 254.646443
 7626         c3    254    ccc     C5   7626 0.32403300  12.010000   ; qtot 254.970476
 7627         h1    254    ccc     H3   7627 0.13386900   1.008000   ; qtot 255.104345
 7628         h1    254    ccc     H4   7628 0.10146700   1.008000   ; qtot 255.205812
 7629         h2    254    ccc     H5   7629 0.10960400   1.008000   ; qtot 255.315416
 7630         os    254    ccc     O1   7630 -0.28650000  16.000000   ; qtot 255.028916
 7631         oh    254    ccc     O2   7631 -0.86012500  16.000000   ; qtot 254.168791
 7632         oh    254    ccc     O3   7632 -0.83772800  16.000000   ; qtot 253.331063
 7633         oh    254    ccc     O4   7633 -0.77449700  16.000000   ; qtot 252.556566
 7634         c3    254    ccc     C6   7634 0.37576500  12.010000   ; qtot 252.932331
 7635         ho    254    ccc     H6   7635 0.53656000   1.008000   ; qtot 253.468891
 7636         ho    254    ccc     H7   7636 0.49492100   1.008000   ; qtot 253.963812
 7637         ho    254    ccc     H8   7637 0.51297200   1.008000   ; qtot 254.476784
 7638         h1    254    ccc     H9   7638 0.05653400   1.008000   ; qtot 254.533318
 7639         h1    254    ccc    H10   7639 0.05653400   1.008000   ; qtot 254.589852
 7640         oh    254    ccc     O5   7640 -0.84113600  16.000000   ; qtot 253.748716
 7641         ho    254    ccc    H11   7641 0.51201600   1.008000   ; qtot 254.260732
 7642         os    254    ccc     O6   7642 -0.26013600  16.000000   ; qtot 254.000596
; residue  255 ccc rtp ccc q 0.0
 7643         c3    255    ccc     C1   7643 -0.33178800  12.010000   ; qtot 253.668808
 7644         c3    255    ccc     C2   7644 0.30606500  12.010000   ; qtot 253.974873
 7645         h1    255    ccc     H1   7645 0.11662300   1.008000   ; qtot 254.091496
 7646         h1    255    ccc     H2   7646 0.11526800   1.008000   ; qtot 254.206764
 7647         c3    255    ccc     C3   7647 0.15592700  12.010000   ; qtot 254.362691
 7648         c3    255    ccc     C4   7648 0.28383300  12.010000   ; qtot 254.646524
 7649         c3    255    ccc     C5   7649 0.32403300  12.010000   ; qtot 254.970557
 7650         h1    255    ccc     H3   7650 0.13386900   1.008000   ; qtot 255.104426
 7651         h1    255    ccc     H4   7651 0.10146700   1.008000   ; qtot 255.205893
 7652         h2    255    ccc     H5   7652 0.10960400   1.008000   ; qtot 255.315497
 7653         os    255    ccc     O1   7653 -0.28650000  16.000000   ; qtot 255.028997
 7654         oh    255    ccc     O2   7654 -0.86012500  16.000000   ; qtot 254.168872
 7655         oh    255    ccc     O3   7655 -0.83772800  16.000000   ; qtot 253.331144
 7656         oh    255    ccc     O4   7656 -0.77449700  16.000000   ; qtot 252.556647
 7657         c3    255    ccc     C6   7657 0.37576500  12.010000   ; qtot 252.932412
 7658         ho    255    ccc     H6   7658 0.53656000   1.008000   ; qtot 253.468972
 7659         ho    255    ccc     H7   7659 0.49492100   1.008000   ; qtot 253.963893
 7660         ho    255    ccc     H8   7660 0.51297200   1.008000   ; qtot 254.476865
 7661         h1    255    ccc     H9   7661 0.05653400   1.008000   ; qtot 254.533399
 7662         h1    255    ccc    H10   7662 0.05653400   1.008000   ; qtot 254.589933
 7663         oh    255    ccc     O5   7663 -0.84113600  16.000000   ; qtot 253.748797
 7664         ho    255    ccc    H11   7664 0.51201600   1.008000   ; qtot 254.260813
 7665         os    255    ccc     O6   7665 -0.26013600  16.000000   ; qtot 254.000677
; residue  256 ccc rtp ccc q 0.0
 7666         c3    256    ccc     C1   7666 -0.33178800  12.010000   ; qtot 253.668889
 7667         c3    256    ccc     C2   7667 0.30606500  12.010000   ; qtot 253.974954
 7668         h1    256    ccc     H1   7668 0.11662300   1.008000   ; qtot 254.091577
 7669         h1    256    ccc     H2   7669 0.11526800   1.008000   ; qtot 254.206845
 7670         c3    256    ccc     C3   7670 0.15592700  12.010000   ; qtot 254.362772
 7671         c3    256    ccc     C4   7671 0.28383300  12.010000   ; qtot 254.646605
 7672         c3    256    ccc     C5   7672 0.32403300  12.010000   ; qtot 254.970638
 7673         h1    256    ccc     H3   7673 0.13386900   1.008000   ; qtot 255.104507
 7674         h1    256    ccc     H4   7674 0.10146700   1.008000   ; qtot 255.205974
 7675         h2    256    ccc     H5   7675 0.10960400   1.008000   ; qtot 255.315578
 7676         os    256    ccc     O1   7676 -0.28650000  16.000000   ; qtot 255.029078
 7677         oh    256    ccc     O2   7677 -0.86012500  16.000000   ; qtot 254.168953
 7678         oh    256    ccc     O3   7678 -0.83772800  16.000000   ; qtot 253.331225
 7679         oh    256    ccc     O4   7679 -0.77449700  16.000000   ; qtot 252.556728
 7680         c3    256    ccc     C6   7680 0.37576500  12.010000   ; qtot 252.932493
 7681         ho    256    ccc     H6   7681 0.53656000   1.008000   ; qtot 253.469053
 7682         ho    256    ccc     H7   7682 0.49492100   1.008000   ; qtot 253.963974
 7683         ho    256    ccc     H8   7683 0.51297200   1.008000   ; qtot 254.476946
 7684         h1    256    ccc     H9   7684 0.05653400   1.008000   ; qtot 254.533480
 7685         h1    256    ccc    H10   7685 0.05653400   1.008000   ; qtot 254.590014
 7686         oh    256    ccc     O5   7686 -0.84113600  16.000000   ; qtot 253.748878
 7687         ho    256    ccc    H11   7687 0.51201600   1.008000   ; qtot 254.260894
 7688         os    256    ccc     O6   7688 -0.26013600  16.000000   ; qtot 254.000758
; residue  257 ccc rtp ccc q 0.0
 7689         c3    257    ccc     C1   7689 -0.33178800  12.010000   ; qtot 253.668970
 7690         c3    257    ccc     C2   7690 0.30606500  12.010000   ; qtot 253.975035
 7691         h1    257    ccc     H1   7691 0.11662300   1.008000   ; qtot 254.091658
 7692         h1    257    ccc     H2   7692 0.11526800   1.008000   ; qtot 254.206926
 7693         c3    257    ccc     C3   7693 0.15592700  12.010000   ; qtot 254.362853
 7694         c3    257    ccc     C4   7694 0.28383300  12.010000   ; qtot 254.646686
 7695         c3    257    ccc     C5   7695 0.32403300  12.010000   ; qtot 254.970719
 7696         h1    257    ccc     H3   7696 0.13386900   1.008000   ; qtot 255.104588
 7697         h1    257    ccc     H4   7697 0.10146700   1.008000   ; qtot 255.206055
 7698         h2    257    ccc     H5   7698 0.10960400   1.008000   ; qtot 255.315659
 7699         os    257    ccc     O1   7699 -0.28650000  16.000000   ; qtot 255.029159
 7700         oh    257    ccc     O2   7700 -0.86012500  16.000000   ; qtot 254.169034
 7701         oh    257    ccc     O3   7701 -0.83772800  16.000000   ; qtot 253.331306
 7702         oh    257    ccc     O4   7702 -0.77449700  16.000000   ; qtot 252.556809
 7703         c3    257    ccc     C6   7703 0.37576500  12.010000   ; qtot 252.932574
 7704         ho    257    ccc     H6   7704 0.53656000   1.008000   ; qtot 253.469134
 7705         ho    257    ccc     H7   7705 0.49492100   1.008000   ; qtot 253.964055
 7706         ho    257    ccc     H8   7706 0.51297200   1.008000   ; qtot 254.477027
 7707         h1    257    ccc     H9   7707 0.05653400   1.008000   ; qtot 254.533561
 7708         h1    257    ccc    H10   7708 0.05653400   1.008000   ; qtot 254.590095
 7709         oh    257    ccc     O5   7709 -0.84113600  16.000000   ; qtot 253.748959
 7710         ho    257    ccc    H11   7710 0.51201600   1.008000   ; qtot 254.260975
 7711         os    257    ccc     O6   7711 -0.26013600  16.000000   ; qtot 254.000839
; residue  258 ccc rtp ccc q 0.0
 7712         c3    258    ccc     C1   7712 -0.33178800  12.010000   ; qtot 253.669051
 7713         c3    258    ccc     C2   7713 0.30606500  12.010000   ; qtot 253.975116
 7714         h1    258    ccc     H1   7714 0.11662300   1.008000   ; qtot 254.091739
 7715         h1    258    ccc     H2   7715 0.11526800   1.008000   ; qtot 254.207007
 7716         c3    258    ccc     C3   7716 0.15592700  12.010000   ; qtot 254.362934
 7717         c3    258    ccc     C4   7717 0.28383300  12.010000   ; qtot 254.646767
 7718         c3    258    ccc     C5   7718 0.32403300  12.010000   ; qtot 254.970800
 7719         h1    258    ccc     H3   7719 0.13386900   1.008000   ; qtot 255.104669
 7720         h1    258    ccc     H4   7720 0.10146700   1.008000   ; qtot 255.206136
 7721         h2    258    ccc     H5   7721 0.10960400   1.008000   ; qtot 255.315740
 7722         os    258    ccc     O1   7722 -0.28650000  16.000000   ; qtot 255.029240
 7723         oh    258    ccc     O2   7723 -0.86012500  16.000000   ; qtot 254.169115
 7724         oh    258    ccc     O3   7724 -0.83772800  16.000000   ; qtot 253.331387
 7725         oh    258    ccc     O4   7725 -0.77449700  16.000000   ; qtot 252.556890
 7726         c3    258    ccc     C6   7726 0.37576500  12.010000   ; qtot 252.932655
 7727         ho    258    ccc     H6   7727 0.53656000   1.008000   ; qtot 253.469215
 7728         ho    258    ccc     H7   7728 0.49492100   1.008000   ; qtot 253.964136
 7729         ho    258    ccc     H8   7729 0.51297200   1.008000   ; qtot 254.477108
 7730         h1    258    ccc     H9   7730 0.05653400   1.008000   ; qtot 254.533642
 7731         h1    258    ccc    H10   7731 0.05653400   1.008000   ; qtot 254.590176
 7732         oh    258    ccc     O5   7732 -0.84113600  16.000000   ; qtot 253.749040
 7733         ho    258    ccc    H11   7733 0.51201600   1.008000   ; qtot 254.261056
 7734         os    258    ccc     O6   7734 -0.26013600  16.000000   ; qtot 254.000920
; residue  259 ccc rtp ccc q 0.0
 7735         c3    259    ccc     C1   7735 -0.33178800  12.010000   ; qtot 253.669132
 7736         c3    259    ccc     C2   7736 0.30606500  12.010000   ; qtot 253.975197
 7737         h1    259    ccc     H1   7737 0.11662300   1.008000   ; qtot 254.091820
 7738         h1    259    ccc     H2   7738 0.11526800   1.008000   ; qtot 254.207088
 7739         c3    259    ccc     C3   7739 0.15592700  12.010000   ; qtot 254.363015
 7740         c3    259    ccc     C4   7740 0.28383300  12.010000   ; qtot 254.646848
 7741         c3    259    ccc     C5   7741 0.32403300  12.010000   ; qtot 254.970881
 7742         h1    259    ccc     H3   7742 0.13386900   1.008000   ; qtot 255.104750
 7743         h1    259    ccc     H4   7743 0.10146700   1.008000   ; qtot 255.206217
 7744         h2    259    ccc     H5   7744 0.10960400   1.008000   ; qtot 255.315821
 7745         os    259    ccc     O1   7745 -0.28650000  16.000000   ; qtot 255.029321
 7746         oh    259    ccc     O2   7746 -0.86012500  16.000000   ; qtot 254.169196
 7747         oh    259    ccc     O3   7747 -0.83772800  16.000000   ; qtot 253.331468
 7748         oh    259    ccc     O4   7748 -0.77449700  16.000000   ; qtot 252.556971
 7749         c3    259    ccc     C6   7749 0.37576500  12.010000   ; qtot 252.932736
 7750         ho    259    ccc     H6   7750 0.53656000   1.008000   ; qtot 253.469296
 7751         ho    259    ccc     H7   7751 0.49492100   1.008000   ; qtot 253.964217
 7752         ho    259    ccc     H8   7752 0.51297200   1.008000   ; qtot 254.477189
 7753         h1    259    ccc     H9   7753 0.05653400   1.008000   ; qtot 254.533723
 7754         h1    259    ccc    H10   7754 0.05653400   1.008000   ; qtot 254.590257
 7755         oh    259    ccc     O5   7755 -0.84113600  16.000000   ; qtot 253.749121
 7756         ho    259    ccc    H11   7756 0.51201600   1.008000   ; qtot 254.261137
 7757         os    259    ccc     O6   7757 -0.26013600  16.000000   ; qtot 254.001001
; residue  260 ccc rtp ccc q 0.0
 7758         c3    260    ccc     C1   7758 -0.33178800  12.010000   ; qtot 253.669213
 7759         c3    260    ccc     C2   7759 0.30606500  12.010000   ; qtot 253.975278
 7760         h1    260    ccc     H1   7760 0.11662300   1.008000   ; qtot 254.091901
 7761         h1    260    ccc     H2   7761 0.11526800   1.008000   ; qtot 254.207169
 7762         c3    260    ccc     C3   7762 0.15592700  12.010000   ; qtot 254.363096
 7763         c3    260    ccc     C4   7763 0.28383300  12.010000   ; qtot 254.646929
 7764         c3    260    ccc     C5   7764 0.32403300  12.010000   ; qtot 254.970962
 7765         h1    260    ccc     H3   7765 0.13386900   1.008000   ; qtot 255.104831
 7766         h1    260    ccc     H4   7766 0.10146700   1.008000   ; qtot 255.206298
 7767         h2    260    ccc     H5   7767 0.10960400   1.008000   ; qtot 255.315902
 7768         os    260    ccc     O1   7768 -0.28650000  16.000000   ; qtot 255.029402
 7769         oh    260    ccc     O2   7769 -0.86012500  16.000000   ; qtot 254.169277
 7770         oh    260    ccc     O3   7770 -0.83772800  16.000000   ; qtot 253.331549
 7771         oh    260    ccc     O4   7771 -0.77449700  16.000000   ; qtot 252.557052
 7772         c3    260    ccc     C6   7772 0.37576500  12.010000   ; qtot 252.932817
 7773         ho    260    ccc     H6   7773 0.53656000   1.008000   ; qtot 253.469377
 7774         ho    260    ccc     H7   7774 0.49492100   1.008000   ; qtot 253.964298
 7775         ho    260    ccc     H8   7775 0.51297200   1.008000   ; qtot 254.477270
 7776         h1    260    ccc     H9   7776 0.05653400   1.008000   ; qtot 254.533804
 7777         h1    260    ccc    H10   7777 0.05653400   1.008000   ; qtot 254.590338
 7778         oh    260    ccc     O5   7778 -0.84113600  16.000000   ; qtot 253.749202
 7779         ho    260    ccc    H11   7779 0.51201600   1.008000   ; qtot 254.261218
 7780         os    260    ccc     O6   7780 -0.26013600  16.000000   ; qtot 254.001082
; residue  261 ccc rtp ccc q 0.0
 7781         c3    261    ccc     C1   7781 -0.33178800  12.010000   ; qtot 253.669294
 7782         c3    261    ccc     C2   7782 0.30606500  12.010000   ; qtot 253.975359
 7783         h1    261    ccc     H1   7783 0.11662300   1.008000   ; qtot 254.091982
 7784         h1    261    ccc     H2   7784 0.11526800   1.008000   ; qtot 254.207250
 7785         c3    261    ccc     C3   7785 0.15592700  12.010000   ; qtot 254.363177
 7786         c3    261    ccc     C4   7786 0.28383300  12.010000   ; qtot 254.647010
 7787         c3    261    ccc     C5   7787 0.32403300  12.010000   ; qtot 254.971043
 7788         h1    261    ccc     H3   7788 0.13386900   1.008000   ; qtot 255.104912
 7789         h1    261    ccc     H4   7789 0.10146700   1.008000   ; qtot 255.206379
 7790         h2    261    ccc     H5   7790 0.10960400   1.008000   ; qtot 255.315983
 7791         os    261    ccc     O1   7791 -0.28650000  16.000000   ; qtot 255.029483
 7792         oh    261    ccc     O2   7792 -0.86012500  16.000000   ; qtot 254.169358
 7793         oh    261    ccc     O3   7793 -0.83772800  16.000000   ; qtot 253.331630
 7794         oh    261    ccc     O4   7794 -0.77449700  16.000000   ; qtot 252.557133
 7795         c3    261    ccc     C6   7795 0.37576500  12.010000   ; qtot 252.932898
 7796         ho    261    ccc     H6   7796 0.53656000   1.008000   ; qtot 253.469458
 7797         ho    261    ccc     H7   7797 0.49492100   1.008000   ; qtot 253.964379
 7798         ho    261    ccc     H8   7798 0.51297200   1.008000   ; qtot 254.477351
 7799         h1    261    ccc     H9   7799 0.05653400   1.008000   ; qtot 254.533885
 7800         h1    261    ccc    H10   7800 0.05653400   1.008000   ; qtot 254.590419
 7801         oh    261    ccc     O5   7801 -0.84113600  16.000000   ; qtot 253.749283
 7802         ho    261    ccc    H11   7802 0.51201600   1.008000   ; qtot 254.261299
 7803         os    261    ccc     O6   7803 -0.26013600  16.000000   ; qtot 254.001163
; residue  262 ccc rtp ccc q 0.0
 7804         c3    262    ccc     C1   7804 -0.33178800  12.010000   ; qtot 253.669375
 7805         c3    262    ccc     C2   7805 0.30606500  12.010000   ; qtot 253.975440
 7806         h1    262    ccc     H1   7806 0.11662300   1.008000   ; qtot 254.092063
 7807         h1    262    ccc     H2   7807 0.11526800   1.008000   ; qtot 254.207331
 7808         c3    262    ccc     C3   7808 0.15592700  12.010000   ; qtot 254.363258
 7809         c3    262    ccc     C4   7809 0.28383300  12.010000   ; qtot 254.647091
 7810         c3    262    ccc     C5   7810 0.32403300  12.010000   ; qtot 254.971124
 7811         h1    262    ccc     H3   7811 0.13386900   1.008000   ; qtot 255.104993
 7812         h1    262    ccc     H4   7812 0.10146700   1.008000   ; qtot 255.206460
 7813         h2    262    ccc     H5   7813 0.10960400   1.008000   ; qtot 255.316064
 7814         os    262    ccc     O1   7814 -0.28650000  16.000000   ; qtot 255.029564
 7815         oh    262    ccc     O2   7815 -0.86012500  16.000000   ; qtot 254.169439
 7816         oh    262    ccc     O3   7816 -0.83772800  16.000000   ; qtot 253.331711
 7817         oh    262    ccc     O4   7817 -0.77449700  16.000000   ; qtot 252.557214
 7818         c3    262    ccc     C6   7818 0.37576500  12.010000   ; qtot 252.932979
 7819         ho    262    ccc     H6   7819 0.53656000   1.008000   ; qtot 253.469539
 7820         ho    262    ccc     H7   7820 0.49492100   1.008000   ; qtot 253.964460
 7821         ho    262    ccc     H8   7821 0.51297200   1.008000   ; qtot 254.477432
 7822         h1    262    ccc     H9   7822 0.05653400   1.008000   ; qtot 254.533966
 7823         h1    262    ccc    H10   7823 0.05653400   1.008000   ; qtot 254.590500
 7824         oh    262    ccc     O5   7824 -0.84113600  16.000000   ; qtot 253.749364
 7825         ho    262    ccc    H11   7825 0.51201600   1.008000   ; qtot 254.261380
 7826         os    262    ccc     O6   7826 -0.26013600  16.000000   ; qtot 254.001244
; residue  263 ccc rtp ccc q 0.0
 7827         c3    263    ccc     C1   7827 -0.33178800  12.010000   ; qtot 253.669456
 7828         c3    263    ccc     C2   7828 0.30606500  12.010000   ; qtot 253.975521
 7829         h1    263    ccc     H1   7829 0.11662300   1.008000   ; qtot 254.092144
 7830         h1    263    ccc     H2   7830 0.11526800   1.008000   ; qtot 254.207412
 7831         c3    263    ccc     C3   7831 0.15592700  12.010000   ; qtot 254.363339
 7832         c3    263    ccc     C4   7832 0.28383300  12.010000   ; qtot 254.647172
 7833         c3    263    ccc     C5   7833 0.32403300  12.010000   ; qtot 254.971205
 7834         h1    263    ccc     H3   7834 0.13386900   1.008000   ; qtot 255.105074
 7835         h1    263    ccc     H4   7835 0.10146700   1.008000   ; qtot 255.206541
 7836         h2    263    ccc     H5   7836 0.10960400   1.008000   ; qtot 255.316145
 7837         os    263    ccc     O1   7837 -0.28650000  16.000000   ; qtot 255.029645
 7838         oh    263    ccc     O2   7838 -0.86012500  16.000000   ; qtot 254.169520
 7839         oh    263    ccc     O3   7839 -0.83772800  16.000000   ; qtot 253.331792
 7840         oh    263    ccc     O4   7840 -0.77449700  16.000000   ; qtot 252.557295
 7841         c3    263    ccc     C6   7841 0.37576500  12.010000   ; qtot 252.933060
 7842         ho    263    ccc     H6   7842 0.53656000   1.008000   ; qtot 253.469620
 7843         ho    263    ccc     H7   7843 0.49492100   1.008000   ; qtot 253.964541
 7844         ho    263    ccc     H8   7844 0.51297200   1.008000   ; qtot 254.477513
 7845         h1    263    ccc     H9   7845 0.05653400   1.008000   ; qtot 254.534047
 7846         h1    263    ccc    H10   7846 0.05653400   1.008000   ; qtot 254.590581
 7847         oh    263    ccc     O5   7847 -0.84113600  16.000000   ; qtot 253.749445
 7848         ho    263    ccc    H11   7848 0.51201600   1.008000   ; qtot 254.261461
 7849         os    263    ccc     O6   7849 -0.26013600  16.000000   ; qtot 254.001325
; residue  264 ccc rtp ccc q 0.0
 7850         c3    264    ccc     C1   7850 -0.33178800  12.010000   ; qtot 253.669537
 7851         c3    264    ccc     C2   7851 0.30606500  12.010000   ; qtot 253.975602
 7852         h1    264    ccc     H1   7852 0.11662300   1.008000   ; qtot 254.092225
 7853         h1    264    ccc     H2   7853 0.11526800   1.008000   ; qtot 254.207493
 7854         c3    264    ccc     C3   7854 0.15592700  12.010000   ; qtot 254.363420
 7855         c3    264    ccc     C4   7855 0.28383300  12.010000   ; qtot 254.647253
 7856         c3    264    ccc     C5   7856 0.32403300  12.010000   ; qtot 254.971286
 7857         h1    264    ccc     H3   7857 0.13386900   1.008000   ; qtot 255.105155
 7858         h1    264    ccc     H4   7858 0.10146700   1.008000   ; qtot 255.206622
 7859         h2    264    ccc     H5   7859 0.10960400   1.008000   ; qtot 255.316226
 7860         os    264    ccc     O1   7860 -0.28650000  16.000000   ; qtot 255.029726
 7861         oh    264    ccc     O2   7861 -0.86012500  16.000000   ; qtot 254.169601
 7862         oh    264    ccc     O3   7862 -0.83772800  16.000000   ; qtot 253.331873
 7863         oh    264    ccc     O4   7863 -0.77449700  16.000000   ; qtot 252.557376
 7864         c3    264    ccc     C6   7864 0.37576500  12.010000   ; qtot 252.933141
 7865         ho    264    ccc     H6   7865 0.53656000   1.008000   ; qtot 253.469701
 7866         ho    264    ccc     H7   7866 0.49492100   1.008000   ; qtot 253.964622
 7867         ho    264    ccc     H8   7867 0.51297200   1.008000   ; qtot 254.477594
 7868         h1    264    ccc     H9   7868 0.05653400   1.008000   ; qtot 254.534128
 7869         h1    264    ccc    H10   7869 0.05653400   1.008000   ; qtot 254.590662
 7870         oh    264    ccc     O5   7870 -0.84113600  16.000000   ; qtot 253.749526
 7871         ho    264    ccc    H11   7871 0.51201600   1.008000   ; qtot 254.261542
 7872         os    264    ccc     O6   7872 -0.26013600  16.000000   ; qtot 254.001406
; residue  265 ccc rtp ccc q 0.0
 7873         c3    265    ccc     C1   7873 -0.33178800  12.010000   ; qtot 253.669618
 7874         c3    265    ccc     C2   7874 0.30606500  12.010000   ; qtot 253.975683
 7875         h1    265    ccc     H1   7875 0.11662300   1.008000   ; qtot 254.092306
 7876         h1    265    ccc     H2   7876 0.11526800   1.008000   ; qtot 254.207574
 7877         c3    265    ccc     C3   7877 0.15592700  12.010000   ; qtot 254.363501
 7878         c3    265    ccc     C4   7878 0.28383300  12.010000   ; qtot 254.647334
 7879         c3    265    ccc     C5   7879 0.32403300  12.010000   ; qtot 254.971367
 7880         h1    265    ccc     H3   7880 0.13386900   1.008000   ; qtot 255.105236
 7881         h1    265    ccc     H4   7881 0.10146700   1.008000   ; qtot 255.206703
 7882         h2    265    ccc     H5   7882 0.10960400   1.008000   ; qtot 255.316307
 7883         os    265    ccc     O1   7883 -0.28650000  16.000000   ; qtot 255.029807
 7884         oh    265    ccc     O2   7884 -0.86012500  16.000000   ; qtot 254.169682
 7885         oh    265    ccc     O3   7885 -0.83772800  16.000000   ; qtot 253.331954
 7886         oh    265    ccc     O4   7886 -0.77449700  16.000000   ; qtot 252.557457
 7887         c3    265    ccc     C6   7887 0.37576500  12.010000   ; qtot 252.933222
 7888         ho    265    ccc     H6   7888 0.53656000   1.008000   ; qtot 253.469782
 7889         ho    265    ccc     H7   7889 0.49492100   1.008000   ; qtot 253.964703
 7890         ho    265    ccc     H8   7890 0.51297200   1.008000   ; qtot 254.477675
 7891         h1    265    ccc     H9   7891 0.05653400   1.008000   ; qtot 254.534209
 7892         h1    265    ccc    H10   7892 0.05653400   1.008000   ; qtot 254.590743
 7893         oh    265    ccc     O5   7893 -0.84113600  16.000000   ; qtot 253.749607
 7894         ho    265    ccc    H11   7894 0.51201600   1.008000   ; qtot 254.261623
 7895         os    265    ccc     O6   7895 -0.26013600  16.000000   ; qtot 254.001487
; residue  266 ccc rtp ccc q 0.0
 7896         c3    266    ccc     C1   7896 -0.33178800  12.010000   ; qtot 253.669699
 7897         c3    266    ccc     C2   7897 0.30606500  12.010000   ; qtot 253.975764
 7898         h1    266    ccc     H1   7898 0.11662300   1.008000   ; qtot 254.092387
 7899         h1    266    ccc     H2   7899 0.11526800   1.008000   ; qtot 254.207655
 7900         c3    266    ccc     C3   7900 0.15592700  12.010000   ; qtot 254.363582
 7901         c3    266    ccc     C4   7901 0.28383300  12.010000   ; qtot 254.647415
 7902         c3    266    ccc     C5   7902 0.32403300  12.010000   ; qtot 254.971448
 7903         h1    266    ccc     H3   7903 0.13386900   1.008000   ; qtot 255.105317
 7904         h1    266    ccc     H4   7904 0.10146700   1.008000   ; qtot 255.206784
 7905         h2    266    ccc     H5   7905 0.10960400   1.008000   ; qtot 255.316388
 7906         os    266    ccc     O1   7906 -0.28650000  16.000000   ; qtot 255.029888
 7907         oh    266    ccc     O2   7907 -0.86012500  16.000000   ; qtot 254.169763
 7908         oh    266    ccc     O3   7908 -0.83772800  16.000000   ; qtot 253.332035
 7909         oh    266    ccc     O4   7909 -0.77449700  16.000000   ; qtot 252.557538
 7910         c3    266    ccc     C6   7910 0.37576500  12.010000   ; qtot 252.933303
 7911         ho    266    ccc     H6   7911 0.53656000   1.008000   ; qtot 253.469863
 7912         ho    266    ccc     H7   7912 0.49492100   1.008000   ; qtot 253.964784
 7913         ho    266    ccc     H8   7913 0.51297200   1.008000   ; qtot 254.477756
 7914         h1    266    ccc     H9   7914 0.05653400   1.008000   ; qtot 254.534290
 7915         h1    266    ccc    H10   7915 0.05653400   1.008000   ; qtot 254.590824
 7916         oh    266    ccc     O5   7916 -0.84113600  16.000000   ; qtot 253.749688
 7917         ho    266    ccc    H11   7917 0.51201600   1.008000   ; qtot 254.261704
 7918         os    266    ccc     O6   7918 -0.26013600  16.000000   ; qtot 254.001568
; residue  267 ccc rtp ccc q 0.0
 7919         c3    267    ccc     C1   7919 -0.33178800  12.010000   ; qtot 253.669780
 7920         c3    267    ccc     C2   7920 0.30606500  12.010000   ; qtot 253.975845
 7921         h1    267    ccc     H1   7921 0.11662300   1.008000   ; qtot 254.092468
 7922         h1    267    ccc     H2   7922 0.11526800   1.008000   ; qtot 254.207736
 7923         c3    267    ccc     C3   7923 0.15592700  12.010000   ; qtot 254.363663
 7924         c3    267    ccc     C4   7924 0.28383300  12.010000   ; qtot 254.647496
 7925         c3    267    ccc     C5   7925 0.32403300  12.010000   ; qtot 254.971529
 7926         h1    267    ccc     H3   7926 0.13386900   1.008000   ; qtot 255.105398
 7927         h1    267    ccc     H4   7927 0.10146700   1.008000   ; qtot 255.206865
 7928         h2    267    ccc     H5   7928 0.10960400   1.008000   ; qtot 255.316469
 7929         os    267    ccc     O1   7929 -0.28650000  16.000000   ; qtot 255.029969
 7930         oh    267    ccc     O2   7930 -0.86012500  16.000000   ; qtot 254.169844
 7931         oh    267    ccc     O3   7931 -0.83772800  16.000000   ; qtot 253.332116
 7932         oh    267    ccc     O4   7932 -0.77449700  16.000000   ; qtot 252.557619
 7933         c3    267    ccc     C6   7933 0.37576500  12.010000   ; qtot 252.933384
 7934         ho    267    ccc     H6   7934 0.53656000   1.008000   ; qtot 253.469944
 7935         ho    267    ccc     H7   7935 0.49492100   1.008000   ; qtot 253.964865
 7936         ho    267    ccc     H8   7936 0.51297200   1.008000   ; qtot 254.477837
 7937         h1    267    ccc     H9   7937 0.05653400   1.008000   ; qtot 254.534371
 7938         h1    267    ccc    H10   7938 0.05653400   1.008000   ; qtot 254.590905
 7939         oh    267    ccc     O5   7939 -0.84113600  16.000000   ; qtot 253.749769
 7940         ho    267    ccc    H11   7940 0.51201600   1.008000   ; qtot 254.261785
 7941         os    267    ccc     O6   7941 -0.26013600  16.000000   ; qtot 254.001649
; residue  268 ccc rtp ccc q 0.0
 7942         c3    268    ccc     C1   7942 -0.33178800  12.010000   ; qtot 253.669861
 7943         c3    268    ccc     C2   7943 0.30606500  12.010000   ; qtot 253.975926
 7944         h1    268    ccc     H1   7944 0.11662300   1.008000   ; qtot 254.092549
 7945         h1    268    ccc     H2   7945 0.11526800   1.008000   ; qtot 254.207817
 7946         c3    268    ccc     C3   7946 0.15592700  12.010000   ; qtot 254.363744
 7947         c3    268    ccc     C4   7947 0.28383300  12.010000   ; qtot 254.647577
 7948         c3    268    ccc     C5   7948 0.32403300  12.010000   ; qtot 254.971610
 7949         h1    268    ccc     H3   7949 0.13386900   1.008000   ; qtot 255.105479
 7950         h1    268    ccc     H4   7950 0.10146700   1.008000   ; qtot 255.206946
 7951         h2    268    ccc     H5   7951 0.10960400   1.008000   ; qtot 255.316550
 7952         os    268    ccc     O1   7952 -0.28650000  16.000000   ; qtot 255.030050
 7953         oh    268    ccc     O2   7953 -0.86012500  16.000000   ; qtot 254.169925
 7954         oh    268    ccc     O3   7954 -0.83772800  16.000000   ; qtot 253.332197
 7955         oh    268    ccc     O4   7955 -0.77449700  16.000000   ; qtot 252.557700
 7956         c3    268    ccc     C6   7956 0.37576500  12.010000   ; qtot 252.933465
 7957         ho    268    ccc     H6   7957 0.53656000   1.008000   ; qtot 253.470025
 7958         ho    268    ccc     H7   7958 0.49492100   1.008000   ; qtot 253.964946
 7959         ho    268    ccc     H8   7959 0.51297200   1.008000   ; qtot 254.477918
 7960         h1    268    ccc     H9   7960 0.05653400   1.008000   ; qtot 254.534452
 7961         h1    268    ccc    H10   7961 0.05653400   1.008000   ; qtot 254.590986
 7962         oh    268    ccc     O5   7962 -0.84113600  16.000000   ; qtot 253.749850
 7963         ho    268    ccc    H11   7963 0.51201600   1.008000   ; qtot 254.261866
 7964         os    268    ccc     O6   7964 -0.26013600  16.000000   ; qtot 254.001730
; residue  269 ccc rtp ccc q 0.0
 7965         c3    269    ccc     C1   7965 -0.33178800  12.010000   ; qtot 253.669942
 7966         c3    269    ccc     C2   7966 0.30606500  12.010000   ; qtot 253.976007
 7967         h1    269    ccc     H1   7967 0.11662300   1.008000   ; qtot 254.092630
 7968         h1    269    ccc     H2   7968 0.11526800   1.008000   ; qtot 254.207898
 7969         c3    269    ccc     C3   7969 0.15592700  12.010000   ; qtot 254.363825
 7970         c3    269    ccc     C4   7970 0.28383300  12.010000   ; qtot 254.647658
 7971         c3    269    ccc     C5   7971 0.32403300  12.010000   ; qtot 254.971691
 7972         h1    269    ccc     H3   7972 0.13386900   1.008000   ; qtot 255.105560
 7973         h1    269    ccc     H4   7973 0.10146700   1.008000   ; qtot 255.207027
 7974         h2    269    ccc     H5   7974 0.10960400   1.008000   ; qtot 255.316631
 7975         os    269    ccc     O1   7975 -0.28650000  16.000000   ; qtot 255.030131
 7976         oh    269    ccc     O2   7976 -0.86012500  16.000000   ; qtot 254.170006
 7977         oh    269    ccc     O3   7977 -0.83772800  16.000000   ; qtot 253.332278
 7978         oh    269    ccc     O4   7978 -0.77449700  16.000000   ; qtot 252.557781
 7979         c3    269    ccc     C6   7979 0.37576500  12.010000   ; qtot 252.933546
 7980         ho    269    ccc     H6   7980 0.53656000   1.008000   ; qtot 253.470106
 7981         ho    269    ccc     H7   7981 0.49492100   1.008000   ; qtot 253.965027
 7982         ho    269    ccc     H8   7982 0.51297200   1.008000   ; qtot 254.477999
 7983         h1    269    ccc     H9   7983 0.05653400   1.008000   ; qtot 254.534533
 7984         h1    269    ccc    H10   7984 0.05653400   1.008000   ; qtot 254.591067
 7985         oh    269    ccc     O5   7985 -0.84113600  16.000000   ; qtot 253.749931
 7986         ho    269    ccc    H11   7986 0.51201600   1.008000   ; qtot 254.261947
 7987         os    269    ccc     O6   7987 -0.26013600  16.000000   ; qtot 254.001811
; residue  270 ccc rtp ccc q 0.0
 7988         c3    270    ccc     C1   7988 -0.33178800  12.010000   ; qtot 253.670023
 7989         c3    270    ccc     C2   7989 0.30606500  12.010000   ; qtot 253.976088
 7990         h1    270    ccc     H1   7990 0.11662300   1.008000   ; qtot 254.092711
 7991         h1    270    ccc     H2   7991 0.11526800   1.008000   ; qtot 254.207979
 7992         c3    270    ccc     C3   7992 0.15592700  12.010000   ; qtot 254.363906
 7993         c3    270    ccc     C4   7993 0.28383300  12.010000   ; qtot 254.647739
 7994         c3    270    ccc     C5   7994 0.32403300  12.010000   ; qtot 254.971772
 7995         h1    270    ccc     H3   7995 0.13386900   1.008000   ; qtot 255.105641
 7996         h1    270    ccc     H4   7996 0.10146700   1.008000   ; qtot 255.207108
 7997         h2    270    ccc     H5   7997 0.10960400   1.008000   ; qtot 255.316712
 7998         os    270    ccc     O1   7998 -0.28650000  16.000000   ; qtot 255.030212
 7999         oh    270    ccc     O2   7999 -0.86012500  16.000000   ; qtot 254.170087
 8000         oh    270    ccc     O3   8000 -0.83772800  16.000000   ; qtot 253.332359
 8001         oh    270    ccc     O4   8001 -0.77449700  16.000000   ; qtot 252.557862
 8002         c3    270    ccc     C6   8002 0.37576500  12.010000   ; qtot 252.933627
 8003         ho    270    ccc     H6   8003 0.53656000   1.008000   ; qtot 253.470187
 8004         ho    270    ccc     H7   8004 0.49492100   1.008000   ; qtot 253.965108
 8005         ho    270    ccc     H8   8005 0.51297200   1.008000   ; qtot 254.478080
 8006         h1    270    ccc     H9   8006 0.05653400   1.008000   ; qtot 254.534614
 8007         h1    270    ccc    H10   8007 0.05653400   1.008000   ; qtot 254.591148
 8008         oh    270    ccc     O5   8008 -0.84113600  16.000000   ; qtot 253.750012
 8009         ho    270    ccc    H11   8009 0.51201600   1.008000   ; qtot 254.262028
 8010         os    270    ccc     O6   8010 -0.26013600  16.000000   ; qtot 254.001892
; residue  271 ccc rtp ccc q 0.0
 8011         c3    271    ccc     C1   8011 -0.33178800  12.010000   ; qtot 253.670104
 8012         c3    271    ccc     C2   8012 0.30606500  12.010000   ; qtot 253.976169
 8013         h1    271    ccc     H1   8013 0.11662300   1.008000   ; qtot 254.092792
 8014         h1    271    ccc     H2   8014 0.11526800   1.008000   ; qtot 254.208060
 8015         c3    271    ccc     C3   8015 0.15592700  12.010000   ; qtot 254.363987
 8016         c3    271    ccc     C4   8016 0.28383300  12.010000   ; qtot 254.647820
 8017         c3    271    ccc     C5   8017 0.32403300  12.010000   ; qtot 254.971853
 8018         h1    271    ccc     H3   8018 0.13386900   1.008000   ; qtot 255.105722
 8019         h1    271    ccc     H4   8019 0.10146700   1.008000   ; qtot 255.207189
 8020         h2    271    ccc     H5   8020 0.10960400   1.008000   ; qtot 255.316793
 8021         os    271    ccc     O1   8021 -0.28650000  16.000000   ; qtot 255.030293
 8022         oh    271    ccc     O2   8022 -0.86012500  16.000000   ; qtot 254.170168
 8023         oh    271    ccc     O3   8023 -0.83772800  16.000000   ; qtot 253.332440
 8024         oh    271    ccc     O4   8024 -0.77449700  16.000000   ; qtot 252.557943
 8025         c3    271    ccc     C6   8025 0.37576500  12.010000   ; qtot 252.933708
 8026         ho    271    ccc     H6   8026 0.53656000   1.008000   ; qtot 253.470268
 8027         ho    271    ccc     H7   8027 0.49492100   1.008000   ; qtot 253.965189
 8028         ho    271    ccc     H8   8028 0.51297200   1.008000   ; qtot 254.478161
 8029         h1    271    ccc     H9   8029 0.05653400   1.008000   ; qtot 254.534695
 8030         h1    271    ccc    H10   8030 0.05653400   1.008000   ; qtot 254.591229
 8031         oh    271    ccc     O5   8031 -0.84113600  16.000000   ; qtot 253.750093
 8032         ho    271    ccc    H11   8032 0.51201600   1.008000   ; qtot 254.262109
 8033         os    271    ccc     O6   8033 -0.26013600  16.000000   ; qtot 254.001973
; residue  272 ccc rtp ccc q 0.0
 8034         c3    272    ccc     C1   8034 -0.33178800  12.010000   ; qtot 253.670185
 8035         c3    272    ccc     C2   8035 0.30606500  12.010000   ; qtot 253.976250
 8036         h1    272    ccc     H1   8036 0.11662300   1.008000   ; qtot 254.092873
 8037         h1    272    ccc     H2   8037 0.11526800   1.008000   ; qtot 254.208141
 8038         c3    272    ccc     C3   8038 0.15592700  12.010000   ; qtot 254.364068
 8039         c3    272    ccc     C4   8039 0.28383300  12.010000   ; qtot 254.647901
 8040         c3    272    ccc     C5   8040 0.32403300  12.010000   ; qtot 254.971934
 8041         h1    272    ccc     H3   8041 0.13386900   1.008000   ; qtot 255.105803
 8042         h1    272    ccc     H4   8042 0.10146700   1.008000   ; qtot 255.207270
 8043         h2    272    ccc     H5   8043 0.10960400   1.008000   ; qtot 255.316874
 8044         os    272    ccc     O1   8044 -0.28650000  16.000000   ; qtot 255.030374
 8045         oh    272    ccc     O2   8045 -0.86012500  16.000000   ; qtot 254.170249
 8046         oh    272    ccc     O3   8046 -0.83772800  16.000000   ; qtot 253.332521
 8047         oh    272    ccc     O4   8047 -0.77449700  16.000000   ; qtot 252.558024
 8048         c3    272    ccc     C6   8048 0.37576500  12.010000   ; qtot 252.933789
 8049         ho    272    ccc     H6   8049 0.53656000   1.008000   ; qtot 253.470349
 8050         ho    272    ccc     H7   8050 0.49492100   1.008000   ; qtot 253.965270
 8051         ho    272    ccc     H8   8051 0.51297200   1.008000   ; qtot 254.478242
 8052         h1    272    ccc     H9   8052 0.05653400   1.008000   ; qtot 254.534776
 8053         h1    272    ccc    H10   8053 0.05653400   1.008000   ; qtot 254.591310
 8054         oh    272    ccc     O5   8054 -0.84113600  16.000000   ; qtot 253.750174
 8055         ho    272    ccc    H11   8055 0.51201600   1.008000   ; qtot 254.262190
 8056         os    272    ccc     O6   8056 -0.26013600  16.000000   ; qtot 254.002054
; residue  273 ccc rtp ccc q 0.0
 8057         c3    273    ccc     C1   8057 -0.33178800  12.010000   ; qtot 253.670266
 8058         c3    273    ccc     C2   8058 0.30606500  12.010000   ; qtot 253.976331
 8059         h1    273    ccc     H1   8059 0.11662300   1.008000   ; qtot 254.092954
 8060         h1    273    ccc     H2   8060 0.11526800   1.008000   ; qtot 254.208222
 8061         c3    273    ccc     C3   8061 0.15592700  12.010000   ; qtot 254.364149
 8062         c3    273    ccc     C4   8062 0.28383300  12.010000   ; qtot 254.647982
 8063         c3    273    ccc     C5   8063 0.32403300  12.010000   ; qtot 254.972015
 8064         h1    273    ccc     H3   8064 0.13386900   1.008000   ; qtot 255.105884
 8065         h1    273    ccc     H4   8065 0.10146700   1.008000   ; qtot 255.207351
 8066         h2    273    ccc     H5   8066 0.10960400   1.008000   ; qtot 255.316955
 8067         os    273    ccc     O1   8067 -0.28650000  16.000000   ; qtot 255.030455
 8068         oh    273    ccc     O2   8068 -0.86012500  16.000000   ; qtot 254.170330
 8069         oh    273    ccc     O3   8069 -0.83772800  16.000000   ; qtot 253.332602
 8070         oh    273    ccc     O4   8070 -0.77449700  16.000000   ; qtot 252.558105
 8071         c3    273    ccc     C6   8071 0.37576500  12.010000   ; qtot 252.933870
 8072         ho    273    ccc     H6   8072 0.53656000   1.008000   ; qtot 253.470430
 8073         ho    273    ccc     H7   8073 0.49492100   1.008000   ; qtot 253.965351
 8074         ho    273    ccc     H8   8074 0.51297200   1.008000   ; qtot 254.478323
 8075         h1    273    ccc     H9   8075 0.05653400   1.008000   ; qtot 254.534857
 8076         h1    273    ccc    H10   8076 0.05653400   1.008000   ; qtot 254.591391
 8077         oh    273    ccc     O5   8077 -0.84113600  16.000000   ; qtot 253.750255
 8078         ho    273    ccc    H11   8078 0.51201600   1.008000   ; qtot 254.262271
 8079         os    273    ccc     O6   8079 -0.26013600  16.000000   ; qtot 254.002135
; residue  274 ccc rtp ccc q 0.0
 8080         c3    274    ccc     C1   8080 -0.33178800  12.010000   ; qtot 253.670347
 8081         c3    274    ccc     C2   8081 0.30606500  12.010000   ; qtot 253.976412
 8082         h1    274    ccc     H1   8082 0.11662300   1.008000   ; qtot 254.093035
 8083         h1    274    ccc     H2   8083 0.11526800   1.008000   ; qtot 254.208303
 8084         c3    274    ccc     C3   8084 0.15592700  12.010000   ; qtot 254.364230
 8085         c3    274    ccc     C4   8085 0.28383300  12.010000   ; qtot 254.648063
 8086         c3    274    ccc     C5   8086 0.32403300  12.010000   ; qtot 254.972096
 8087         h1    274    ccc     H3   8087 0.13386900   1.008000   ; qtot 255.105965
 8088         h1    274    ccc     H4   8088 0.10146700   1.008000   ; qtot 255.207432
 8089         h2    274    ccc     H5   8089 0.10960400   1.008000   ; qtot 255.317036
 8090         os    274    ccc     O1   8090 -0.28650000  16.000000   ; qtot 255.030536
 8091         oh    274    ccc     O2   8091 -0.86012500  16.000000   ; qtot 254.170411
 8092         oh    274    ccc     O3   8092 -0.83772800  16.000000   ; qtot 253.332683
 8093         oh    274    ccc     O4   8093 -0.77449700  16.000000   ; qtot 252.558186
 8094         c3    274    ccc     C6   8094 0.37576500  12.010000   ; qtot 252.933951
 8095         ho    274    ccc     H6   8095 0.53656000   1.008000   ; qtot 253.470511
 8096         ho    274    ccc     H7   8096 0.49492100   1.008000   ; qtot 253.965432
 8097         ho    274    ccc     H8   8097 0.51297200   1.008000   ; qtot 254.478404
 8098         h1    274    ccc     H9   8098 0.05653400   1.008000   ; qtot 254.534938
 8099         h1    274    ccc    H10   8099 0.05653400   1.008000   ; qtot 254.591472
 8100         oh    274    ccc     O5   8100 -0.84113600  16.000000   ; qtot 253.750336
 8101         ho    274    ccc    H11   8101 0.51201600   1.008000   ; qtot 254.262352
 8102         os    274    ccc     O6   8102 -0.26013600  16.000000   ; qtot 254.002216
; residue  275 ccc rtp ccc q 0.0
 8103         c3    275    ccc     C1   8103 -0.33178800  12.010000   ; qtot 253.670428
 8104         c3    275    ccc     C2   8104 0.30606500  12.010000   ; qtot 253.976493
 8105         h1    275    ccc     H1   8105 0.11662300   1.008000   ; qtot 254.093116
 8106         h1    275    ccc     H2   8106 0.11526800   1.008000   ; qtot 254.208384
 8107         c3    275    ccc     C3   8107 0.15592700  12.010000   ; qtot 254.364311
 8108         c3    275    ccc     C4   8108 0.28383300  12.010000   ; qtot 254.648144
 8109         c3    275    ccc     C5   8109 0.32403300  12.010000   ; qtot 254.972177
 8110         h1    275    ccc     H3   8110 0.13386900   1.008000   ; qtot 255.106046
 8111         h1    275    ccc     H4   8111 0.10146700   1.008000   ; qtot 255.207513
 8112         h2    275    ccc     H5   8112 0.10960400   1.008000   ; qtot 255.317117
 8113         os    275    ccc     O1   8113 -0.28650000  16.000000   ; qtot 255.030617
 8114         oh    275    ccc     O2   8114 -0.86012500  16.000000   ; qtot 254.170492
 8115         oh    275    ccc     O3   8115 -0.83772800  16.000000   ; qtot 253.332764
 8116         oh    275    ccc     O4   8116 -0.77449700  16.000000   ; qtot 252.558267
 8117         c3    275    ccc     C6   8117 0.37576500  12.010000   ; qtot 252.934032
 8118         ho    275    ccc     H6   8118 0.53656000   1.008000   ; qtot 253.470592
 8119         ho    275    ccc     H7   8119 0.49492100   1.008000   ; qtot 253.965513
 8120         ho    275    ccc     H8   8120 0.51297200   1.008000   ; qtot 254.478485
 8121         h1    275    ccc     H9   8121 0.05653400   1.008000   ; qtot 254.535019
 8122         h1    275    ccc    H10   8122 0.05653400   1.008000   ; qtot 254.591553
 8123         oh    275    ccc     O5   8123 -0.84113600  16.000000   ; qtot 253.750417
 8124         ho    275    ccc    H11   8124 0.51201600   1.008000   ; qtot 254.262433
 8125         os    275    ccc     O6   8125 -0.26013600  16.000000   ; qtot 254.002297
; residue  276 ccc rtp ccc q 0.0
 8126         c3    276    ccc     C1   8126 -0.33178800  12.010000   ; qtot 253.670509
 8127         c3    276    ccc     C2   8127 0.30606500  12.010000   ; qtot 253.976574
 8128         h1    276    ccc     H1   8128 0.11662300   1.008000   ; qtot 254.093197
 8129         h1    276    ccc     H2   8129 0.11526800   1.008000   ; qtot 254.208465
 8130         c3    276    ccc     C3   8130 0.15592700  12.010000   ; qtot 254.364392
 8131         c3    276    ccc     C4   8131 0.28383300  12.010000   ; qtot 254.648225
 8132         c3    276    ccc     C5   8132 0.32403300  12.010000   ; qtot 254.972258
 8133         h1    276    ccc     H3   8133 0.13386900   1.008000   ; qtot 255.106127
 8134         h1    276    ccc     H4   8134 0.10146700   1.008000   ; qtot 255.207594
 8135         h2    276    ccc     H5   8135 0.10960400   1.008000   ; qtot 255.317198
 8136         os    276    ccc     O1   8136 -0.28650000  16.000000   ; qtot 255.030698
 8137         oh    276    ccc     O2   8137 -0.86012500  16.000000   ; qtot 254.170573
 8138         oh    276    ccc     O3   8138 -0.83772800  16.000000   ; qtot 253.332845
 8139         oh    276    ccc     O4   8139 -0.77449700  16.000000   ; qtot 252.558348
 8140         c3    276    ccc     C6   8140 0.37576500  12.010000   ; qtot 252.934113
 8141         ho    276    ccc     H6   8141 0.53656000   1.008000   ; qtot 253.470673
 8142         ho    276    ccc     H7   8142 0.49492100   1.008000   ; qtot 253.965594
 8143         ho    276    ccc     H8   8143 0.51297200   1.008000   ; qtot 254.478566
 8144         h1    276    ccc     H9   8144 0.05653400   1.008000   ; qtot 254.535100
 8145         h1    276    ccc    H10   8145 0.05653400   1.008000   ; qtot 254.591634
 8146         oh    276    ccc     O5   8146 -0.84113600  16.000000   ; qtot 253.750498
 8147         ho    276    ccc    H11   8147 0.51201600   1.008000   ; qtot 254.262514
 8148         os    276    ccc     O6   8148 -0.26013600  16.000000   ; qtot 254.002378
; residue  277 ccc rtp ccc q 0.0
 8149         c3    277    ccc     C1   8149 -0.33178800  12.010000   ; qtot 253.670590
 8150         c3    277    ccc     C2   8150 0.30606500  12.010000   ; qtot 253.976655
 8151         h1    277    ccc     H1   8151 0.11662300   1.008000   ; qtot 254.093278
 8152         h1    277    ccc     H2   8152 0.11526800   1.008000   ; qtot 254.208546
 8153         c3    277    ccc     C3   8153 0.15592700  12.010000   ; qtot 254.364473
 8154         c3    277    ccc     C4   8154 0.28383300  12.010000   ; qtot 254.648306
 8155         c3    277    ccc     C5   8155 0.32403300  12.010000   ; qtot 254.972339
 8156         h1    277    ccc     H3   8156 0.13386900   1.008000   ; qtot 255.106208
 8157         h1    277    ccc     H4   8157 0.10146700   1.008000   ; qtot 255.207675
 8158         h2    277    ccc     H5   8158 0.10960400   1.008000   ; qtot 255.317279
 8159         os    277    ccc     O1   8159 -0.28650000  16.000000   ; qtot 255.030779
 8160         oh    277    ccc     O2   8160 -0.86012500  16.000000   ; qtot 254.170654
 8161         oh    277    ccc     O3   8161 -0.83772800  16.000000   ; qtot 253.332926
 8162         oh    277    ccc     O4   8162 -0.77449700  16.000000   ; qtot 252.558429
 8163         c3    277    ccc     C6   8163 0.37576500  12.010000   ; qtot 252.934194
 8164         ho    277    ccc     H6   8164 0.53656000   1.008000   ; qtot 253.470754
 8165         ho    277    ccc     H7   8165 0.49492100   1.008000   ; qtot 253.965675
 8166         ho    277    ccc     H8   8166 0.51297200   1.008000   ; qtot 254.478647
 8167         h1    277    ccc     H9   8167 0.05653400   1.008000   ; qtot 254.535181
 8168         h1    277    ccc    H10   8168 0.05653400   1.008000   ; qtot 254.591715
 8169         oh    277    ccc     O5   8169 -0.84113600  16.000000   ; qtot 253.750579
 8170         ho    277    ccc    H11   8170 0.51201600   1.008000   ; qtot 254.262595
 8171         os    277    ccc     O6   8171 -0.26013600  16.000000   ; qtot 254.002459
; residue  278 ccc rtp ccc q 0.0
 8172         c3    278    ccc     C1   8172 -0.33178800  12.010000   ; qtot 253.670671
 8173         c3    278    ccc     C2   8173 0.30606500  12.010000   ; qtot 253.976736
 8174         h1    278    ccc     H1   8174 0.11662300   1.008000   ; qtot 254.093359
 8175         h1    278    ccc     H2   8175 0.11526800   1.008000   ; qtot 254.208627
 8176         c3    278    ccc     C3   8176 0.15592700  12.010000   ; qtot 254.364554
 8177         c3    278    ccc     C4   8177 0.28383300  12.010000   ; qtot 254.648387
 8178         c3    278    ccc     C5   8178 0.32403300  12.010000   ; qtot 254.972420
 8179         h1    278    ccc     H3   8179 0.13386900   1.008000   ; qtot 255.106289
 8180         h1    278    ccc     H4   8180 0.10146700   1.008000   ; qtot 255.207756
 8181         h2    278    ccc     H5   8181 0.10960400   1.008000   ; qtot 255.317360
 8182         os    278    ccc     O1   8182 -0.28650000  16.000000   ; qtot 255.030860
 8183         oh    278    ccc     O2   8183 -0.86012500  16.000000   ; qtot 254.170735
 8184         oh    278    ccc     O3   8184 -0.83772800  16.000000   ; qtot 253.333007
 8185         oh    278    ccc     O4   8185 -0.77449700  16.000000   ; qtot 252.558510
 8186         c3    278    ccc     C6   8186 0.37576500  12.010000   ; qtot 252.934275
 8187         ho    278    ccc     H6   8187 0.53656000   1.008000   ; qtot 253.470835
 8188         ho    278    ccc     H7   8188 0.49492100   1.008000   ; qtot 253.965756
 8189         ho    278    ccc     H8   8189 0.51297200   1.008000   ; qtot 254.478728
 8190         h1    278    ccc     H9   8190 0.05653400   1.008000   ; qtot 254.535262
 8191         h1    278    ccc    H10   8191 0.05653400   1.008000   ; qtot 254.591796
 8192         oh    278    ccc     O5   8192 -0.84113600  16.000000   ; qtot 253.750660
 8193         ho    278    ccc    H11   8193 0.51201600   1.008000   ; qtot 254.262676
 8194         os    278    ccc     O6   8194 -0.26013600  16.000000   ; qtot 254.002540
; residue  279 ccc rtp ccc q 0.0
 8195         c3    279    ccc     C1   8195 -0.33178800  12.010000   ; qtot 253.670752
 8196         c3    279    ccc     C2   8196 0.30606500  12.010000   ; qtot 253.976817
 8197         h1    279    ccc     H1   8197 0.11662300   1.008000   ; qtot 254.093440
 8198         h1    279    ccc     H2   8198 0.11526800   1.008000   ; qtot 254.208708
 8199         c3    279    ccc     C3   8199 0.15592700  12.010000   ; qtot 254.364635
 8200         c3    279    ccc     C4   8200 0.28383300  12.010000   ; qtot 254.648468
 8201         c3    279    ccc     C5   8201 0.32403300  12.010000   ; qtot 254.972501
 8202         h1    279    ccc     H3   8202 0.13386900   1.008000   ; qtot 255.106370
 8203         h1    279    ccc     H4   8203 0.10146700   1.008000   ; qtot 255.207837
 8204         h2    279    ccc     H5   8204 0.10960400   1.008000   ; qtot 255.317441
 8205         os    279    ccc     O1   8205 -0.28650000  16.000000   ; qtot 255.030941
 8206         oh    279    ccc     O2   8206 -0.86012500  16.000000   ; qtot 254.170816
 8207         oh    279    ccc     O3   8207 -0.83772800  16.000000   ; qtot 253.333088
 8208         oh    279    ccc     O4   8208 -0.77449700  16.000000   ; qtot 252.558591
 8209         c3    279    ccc     C6   8209 0.37576500  12.010000   ; qtot 252.934356
 8210         ho    279    ccc     H6   8210 0.53656000   1.008000   ; qtot 253.470916
 8211         ho    279    ccc     H7   8211 0.49492100   1.008000   ; qtot 253.965837
 8212         ho    279    ccc     H8   8212 0.51297200   1.008000   ; qtot 254.478809
 8213         h1    279    ccc     H9   8213 0.05653400   1.008000   ; qtot 254.535343
 8214         h1    279    ccc    H10   8214 0.05653400   1.008000   ; qtot 254.591877
 8215         oh    279    ccc     O5   8215 -0.84113600  16.000000   ; qtot 253.750741
 8216         ho    279    ccc    H11   8216 0.51201600   1.008000   ; qtot 254.262757
 8217         os    279    ccc     O6   8217 -0.26013600  16.000000   ; qtot 254.002621
; residue  280 ccc rtp ccc q 0.0
 8218         c3    280    ccc     C1   8218 -0.33178800  12.010000   ; qtot 253.670833
 8219         c3    280    ccc     C2   8219 0.30606500  12.010000   ; qtot 253.976898
 8220         h1    280    ccc     H1   8220 0.11662300   1.008000   ; qtot 254.093521
 8221         h1    280    ccc     H2   8221 0.11526800   1.008000   ; qtot 254.208789
 8222         c3    280    ccc     C3   8222 0.15592700  12.010000   ; qtot 254.364716
 8223         c3    280    ccc     C4   8223 0.28383300  12.010000   ; qtot 254.648549
 8224         c3    280    ccc     C5   8224 0.32403300  12.010000   ; qtot 254.972582
 8225         h1    280    ccc     H3   8225 0.13386900   1.008000   ; qtot 255.106451
 8226         h1    280    ccc     H4   8226 0.10146700   1.008000   ; qtot 255.207918
 8227         h2    280    ccc     H5   8227 0.10960400   1.008000   ; qtot 255.317522
 8228         os    280    ccc     O1   8228 -0.28650000  16.000000   ; qtot 255.031022
 8229         oh    280    ccc     O2   8229 -0.86012500  16.000000   ; qtot 254.170897
 8230         oh    280    ccc     O3   8230 -0.83772800  16.000000   ; qtot 253.333169
 8231         oh    280    ccc     O4   8231 -0.77449700  16.000000   ; qtot 252.558672
 8232         c3    280    ccc     C6   8232 0.37576500  12.010000   ; qtot 252.934437
 8233         ho    280    ccc     H6   8233 0.53656000   1.008000   ; qtot 253.470997
 8234         ho    280    ccc     H7   8234 0.49492100   1.008000   ; qtot 253.965918
 8235         ho    280    ccc     H8   8235 0.51297200   1.008000   ; qtot 254.478890
 8236         h1    280    ccc     H9   8236 0.05653400   1.008000   ; qtot 254.535424
 8237         h1    280    ccc    H10   8237 0.05653400   1.008000   ; qtot 254.591958
 8238         oh    280    ccc     O5   8238 -0.84113600  16.000000   ; qtot 253.750822
 8239         ho    280    ccc    H11   8239 0.51201600   1.008000   ; qtot 254.262838
 8240         os    280    ccc     O6   8240 -0.26013600  16.000000   ; qtot 254.002702
; residue  281 ccc rtp ccc q 0.0
 8241         c3    281    ccc     C1   8241 -0.33178800  12.010000   ; qtot 253.670914
 8242         c3    281    ccc     C2   8242 0.30606500  12.010000   ; qtot 253.976979
 8243         h1    281    ccc     H1   8243 0.11662300   1.008000   ; qtot 254.093602
 8244         h1    281    ccc     H2   8244 0.11526800   1.008000   ; qtot 254.208870
 8245         c3    281    ccc     C3   8245 0.15592700  12.010000   ; qtot 254.364797
 8246         c3    281    ccc     C4   8246 0.28383300  12.010000   ; qtot 254.648630
 8247         c3    281    ccc     C5   8247 0.32403300  12.010000   ; qtot 254.972663
 8248         h1    281    ccc     H3   8248 0.13386900   1.008000   ; qtot 255.106532
 8249         h1    281    ccc     H4   8249 0.10146700   1.008000   ; qtot 255.207999
 8250         h2    281    ccc     H5   8250 0.10960400   1.008000   ; qtot 255.317603
 8251         os    281    ccc     O1   8251 -0.28650000  16.000000   ; qtot 255.031103
 8252         oh    281    ccc     O2   8252 -0.86012500  16.000000   ; qtot 254.170978
 8253         oh    281    ccc     O3   8253 -0.83772800  16.000000   ; qtot 253.333250
 8254         oh    281    ccc     O4   8254 -0.77449700  16.000000   ; qtot 252.558753
 8255         c3    281    ccc     C6   8255 0.37576500  12.010000   ; qtot 252.934518
 8256         ho    281    ccc     H6   8256 0.53656000   1.008000   ; qtot 253.471078
 8257         ho    281    ccc     H7   8257 0.49492100   1.008000   ; qtot 253.965999
 8258         ho    281    ccc     H8   8258 0.51297200   1.008000   ; qtot 254.478971
 8259         h1    281    ccc     H9   8259 0.05653400   1.008000   ; qtot 254.535505
 8260         h1    281    ccc    H10   8260 0.05653400   1.008000   ; qtot 254.592039
 8261         oh    281    ccc     O5   8261 -0.84113600  16.000000   ; qtot 253.750903
 8262         ho    281    ccc    H11   8262 0.51201600   1.008000   ; qtot 254.262919
 8263         os    281    ccc     O6   8263 -0.26013600  16.000000   ; qtot 254.002783
; residue  282 ccc rtp ccc q 0.0
 8264         c3    282    ccc     C1   8264 -0.33178800  12.010000   ; qtot 253.670995
 8265         c3    282    ccc     C2   8265 0.30606500  12.010000   ; qtot 253.977060
 8266         h1    282    ccc     H1   8266 0.11662300   1.008000   ; qtot 254.093683
 8267         h1    282    ccc     H2   8267 0.11526800   1.008000   ; qtot 254.208951
 8268         c3    282    ccc     C3   8268 0.15592700  12.010000   ; qtot 254.364878
 8269         c3    282    ccc     C4   8269 0.28383300  12.010000   ; qtot 254.648711
 8270         c3    282    ccc     C5   8270 0.32403300  12.010000   ; qtot 254.972744
 8271         h1    282    ccc     H3   8271 0.13386900   1.008000   ; qtot 255.106613
 8272         h1    282    ccc     H4   8272 0.10146700   1.008000   ; qtot 255.208080
 8273         h2    282    ccc     H5   8273 0.10960400   1.008000   ; qtot 255.317684
 8274         os    282    ccc     O1   8274 -0.28650000  16.000000   ; qtot 255.031184
 8275         oh    282    ccc     O2   8275 -0.86012500  16.000000   ; qtot 254.171059
 8276         oh    282    ccc     O3   8276 -0.83772800  16.000000   ; qtot 253.333331
 8277         oh    282    ccc     O4   8277 -0.77449700  16.000000   ; qtot 252.558834
 8278         c3    282    ccc     C6   8278 0.37576500  12.010000   ; qtot 252.934599
 8279         ho    282    ccc     H6   8279 0.53656000   1.008000   ; qtot 253.471159
 8280         ho    282    ccc     H7   8280 0.49492100   1.008000   ; qtot 253.966080
 8281         ho    282    ccc     H8   8281 0.51297200   1.008000   ; qtot 254.479052
 8282         h1    282    ccc     H9   8282 0.05653400   1.008000   ; qtot 254.535586
 8283         h1    282    ccc    H10   8283 0.05653400   1.008000   ; qtot 254.592120
 8284         oh    282    ccc     O5   8284 -0.84113600  16.000000   ; qtot 253.750984
 8285         ho    282    ccc    H11   8285 0.51201600   1.008000   ; qtot 254.263000
 8286         os    282    ccc     O6   8286 -0.26013600  16.000000   ; qtot 254.002864
; residue  283 ccc rtp ccc q 0.0
 8287         c3    283    ccc     C1   8287 -0.33178800  12.010000   ; qtot 253.671076
 8288         c3    283    ccc     C2   8288 0.30606500  12.010000   ; qtot 253.977141
 8289         h1    283    ccc     H1   8289 0.11662300   1.008000   ; qtot 254.093764
 8290         h1    283    ccc     H2   8290 0.11526800   1.008000   ; qtot 254.209032
 8291         c3    283    ccc     C3   8291 0.15592700  12.010000   ; qtot 254.364959
 8292         c3    283    ccc     C4   8292 0.28383300  12.010000   ; qtot 254.648792
 8293         c3    283    ccc     C5   8293 0.32403300  12.010000   ; qtot 254.972825
 8294         h1    283    ccc     H3   8294 0.13386900   1.008000   ; qtot 255.106694
 8295         h1    283    ccc     H4   8295 0.10146700   1.008000   ; qtot 255.208161
 8296         h2    283    ccc     H5   8296 0.10960400   1.008000   ; qtot 255.317765
 8297         os    283    ccc     O1   8297 -0.28650000  16.000000   ; qtot 255.031265
 8298         oh    283    ccc     O2   8298 -0.86012500  16.000000   ; qtot 254.171140
 8299         oh    283    ccc     O3   8299 -0.83772800  16.000000   ; qtot 253.333412
 8300         oh    283    ccc     O4   8300 -0.77449700  16.000000   ; qtot 252.558915
 8301         c3    283    ccc     C6   8301 0.37576500  12.010000   ; qtot 252.934680
 8302         ho    283    ccc     H6   8302 0.53656000   1.008000   ; qtot 253.471240
 8303         ho    283    ccc     H7   8303 0.49492100   1.008000   ; qtot 253.966161
 8304         ho    283    ccc     H8   8304 0.51297200   1.008000   ; qtot 254.479133
 8305         h1    283    ccc     H9   8305 0.05653400   1.008000   ; qtot 254.535667
 8306         h1    283    ccc    H10   8306 0.05653400   1.008000   ; qtot 254.592201
 8307         oh    283    ccc     O5   8307 -0.84113600  16.000000   ; qtot 253.751065
 8308         ho    283    ccc    H11   8308 0.51201600   1.008000   ; qtot 254.263081
 8309         os    283    ccc     O6   8309 -0.26013600  16.000000   ; qtot 254.002945
; residue  284 ccc rtp ccc q 0.0
 8310         c3    284    ccc     C1   8310 -0.33178800  12.010000   ; qtot 253.671157
 8311         c3    284    ccc     C2   8311 0.30606500  12.010000   ; qtot 253.977222
 8312         h1    284    ccc     H1   8312 0.11662300   1.008000   ; qtot 254.093845
 8313         h1    284    ccc     H2   8313 0.11526800   1.008000   ; qtot 254.209113
 8314         c3    284    ccc     C3   8314 0.15592700  12.010000   ; qtot 254.365040
 8315         c3    284    ccc     C4   8315 0.28383300  12.010000   ; qtot 254.648873
 8316         c3    284    ccc     C5   8316 0.32403300  12.010000   ; qtot 254.972906
 8317         h1    284    ccc     H3   8317 0.13386900   1.008000   ; qtot 255.106775
 8318         h1    284    ccc     H4   8318 0.10146700   1.008000   ; qtot 255.208242
 8319         h2    284    ccc     H5   8319 0.10960400   1.008000   ; qtot 255.317846
 8320         os    284    ccc     O1   8320 -0.28650000  16.000000   ; qtot 255.031346
 8321         oh    284    ccc     O2   8321 -0.86012500  16.000000   ; qtot 254.171221
 8322         oh    284    ccc     O3   8322 -0.83772800  16.000000   ; qtot 253.333493
 8323         oh    284    ccc     O4   8323 -0.77449700  16.000000   ; qtot 252.558996
 8324         c3    284    ccc     C6   8324 0.37576500  12.010000   ; qtot 252.934761
 8325         ho    284    ccc     H6   8325 0.53656000   1.008000   ; qtot 253.471321
 8326         ho    284    ccc     H7   8326 0.49492100   1.008000   ; qtot 253.966242
 8327         ho    284    ccc     H8   8327 0.51297200   1.008000   ; qtot 254.479214
 8328         h1    284    ccc     H9   8328 0.05653400   1.008000   ; qtot 254.535748
 8329         h1    284    ccc    H10   8329 0.05653400   1.008000   ; qtot 254.592282
 8330         oh    284    ccc     O5   8330 -0.84113600  16.000000   ; qtot 253.751146
 8331         ho    284    ccc    H11   8331 0.51201600   1.008000   ; qtot 254.263162
 8332         os    284    ccc     O6   8332 -0.26013600  16.000000   ; qtot 254.003026
; residue  285 ccc rtp ccc q 0.0
 8333         c3    285    ccc     C1   8333 -0.33178800  12.010000   ; qtot 253.671238
 8334         c3    285    ccc     C2   8334 0.30606500  12.010000   ; qtot 253.977303
 8335         h1    285    ccc     H1   8335 0.11662300   1.008000   ; qtot 254.093926
 8336         h1    285    ccc     H2   8336 0.11526800   1.008000   ; qtot 254.209194
 8337         c3    285    ccc     C3   8337 0.15592700  12.010000   ; qtot 254.365121
 8338         c3    285    ccc     C4   8338 0.28383300  12.010000   ; qtot 254.648954
 8339         c3    285    ccc     C5   8339 0.32403300  12.010000   ; qtot 254.972987
 8340         h1    285    ccc     H3   8340 0.13386900   1.008000   ; qtot 255.106856
 8341         h1    285    ccc     H4   8341 0.10146700   1.008000   ; qtot 255.208323
 8342         h2    285    ccc     H5   8342 0.10960400   1.008000   ; qtot 255.317927
 8343         os    285    ccc     O1   8343 -0.28650000  16.000000   ; qtot 255.031427
 8344         oh    285    ccc     O2   8344 -0.86012500  16.000000   ; qtot 254.171302
 8345         oh    285    ccc     O3   8345 -0.83772800  16.000000   ; qtot 253.333574
 8346         oh    285    ccc     O4   8346 -0.77449700  16.000000   ; qtot 252.559077
 8347         c3    285    ccc     C6   8347 0.37576500  12.010000   ; qtot 252.934842
 8348         ho    285    ccc     H6   8348 0.53656000   1.008000   ; qtot 253.471402
 8349         ho    285    ccc     H7   8349 0.49492100   1.008000   ; qtot 253.966323
 8350         ho    285    ccc     H8   8350 0.51297200   1.008000   ; qtot 254.479295
 8351         h1    285    ccc     H9   8351 0.05653400   1.008000   ; qtot 254.535829
 8352         h1    285    ccc    H10   8352 0.05653400   1.008000   ; qtot 254.592363
 8353         oh    285    ccc     O5   8353 -0.84113600  16.000000   ; qtot 253.751227
 8354         ho    285    ccc    H11   8354 0.51201600   1.008000   ; qtot 254.263243
 8355         os    285    ccc     O6   8355 -0.26013600  16.000000   ; qtot 254.003107
; residue  286 ccc rtp ccc q 0.0
 8356         c3    286    ccc     C1   8356 -0.33178800  12.010000   ; qtot 253.671319
 8357         c3    286    ccc     C2   8357 0.30606500  12.010000   ; qtot 253.977384
 8358         h1    286    ccc     H1   8358 0.11662300   1.008000   ; qtot 254.094007
 8359         h1    286    ccc     H2   8359 0.11526800   1.008000   ; qtot 254.209275
 8360         c3    286    ccc     C3   8360 0.15592700  12.010000   ; qtot 254.365202
 8361         c3    286    ccc     C4   8361 0.28383300  12.010000   ; qtot 254.649035
 8362         c3    286    ccc     C5   8362 0.32403300  12.010000   ; qtot 254.973068
 8363         h1    286    ccc     H3   8363 0.13386900   1.008000   ; qtot 255.106937
 8364         h1    286    ccc     H4   8364 0.10146700   1.008000   ; qtot 255.208404
 8365         h2    286    ccc     H5   8365 0.10960400   1.008000   ; qtot 255.318008
 8366         os    286    ccc     O1   8366 -0.28650000  16.000000   ; qtot 255.031508
 8367         oh    286    ccc     O2   8367 -0.86012500  16.000000   ; qtot 254.171383
 8368         oh    286    ccc     O3   8368 -0.83772800  16.000000   ; qtot 253.333655
 8369         oh    286    ccc     O4   8369 -0.77449700  16.000000   ; qtot 252.559158
 8370         c3    286    ccc     C6   8370 0.37576500  12.010000   ; qtot 252.934923
 8371         ho    286    ccc     H6   8371 0.53656000   1.008000   ; qtot 253.471483
 8372         ho    286    ccc     H7   8372 0.49492100   1.008000   ; qtot 253.966404
 8373         ho    286    ccc     H8   8373 0.51297200   1.008000   ; qtot 254.479376
 8374         h1    286    ccc     H9   8374 0.05653400   1.008000   ; qtot 254.535910
 8375         h1    286    ccc    H10   8375 0.05653400   1.008000   ; qtot 254.592444
 8376         oh    286    ccc     O5   8376 -0.84113600  16.000000   ; qtot 253.751308
 8377         ho    286    ccc    H11   8377 0.51201600   1.008000   ; qtot 254.263324
 8378         os    286    ccc     O6   8378 -0.26013600  16.000000   ; qtot 254.003188
; residue  287 ccc rtp ccc q 0.0
 8379         c3    287    ccc     C1   8379 -0.33178800  12.010000   ; qtot 253.671400
 8380         c3    287    ccc     C2   8380 0.30606500  12.010000   ; qtot 253.977465
 8381         h1    287    ccc     H1   8381 0.11662300   1.008000   ; qtot 254.094088
 8382         h1    287    ccc     H2   8382 0.11526800   1.008000   ; qtot 254.209356
 8383         c3    287    ccc     C3   8383 0.15592700  12.010000   ; qtot 254.365283
 8384         c3    287    ccc     C4   8384 0.28383300  12.010000   ; qtot 254.649116
 8385         c3    287    ccc     C5   8385 0.32403300  12.010000   ; qtot 254.973149
 8386         h1    287    ccc     H3   8386 0.13386900   1.008000   ; qtot 255.107018
 8387         h1    287    ccc     H4   8387 0.10146700   1.008000   ; qtot 255.208485
 8388         h2    287    ccc     H5   8388 0.10960400   1.008000   ; qtot 255.318089
 8389         os    287    ccc     O1   8389 -0.28650000  16.000000   ; qtot 255.031589
 8390         oh    287    ccc     O2   8390 -0.86012500  16.000000   ; qtot 254.171464
 8391         oh    287    ccc     O3   8391 -0.83772800  16.000000   ; qtot 253.333736
 8392         oh    287    ccc     O4   8392 -0.77449700  16.000000   ; qtot 252.559239
 8393         c3    287    ccc     C6   8393 0.37576500  12.010000   ; qtot 252.935004
 8394         ho    287    ccc     H6   8394 0.53656000   1.008000   ; qtot 253.471564
 8395         ho    287    ccc     H7   8395 0.49492100   1.008000   ; qtot 253.966485
 8396         ho    287    ccc     H8   8396 0.51297200   1.008000   ; qtot 254.479457
 8397         h1    287    ccc     H9   8397 0.05653400   1.008000   ; qtot 254.535991
 8398         h1    287    ccc    H10   8398 0.05653400   1.008000   ; qtot 254.592525
 8399         oh    287    ccc     O5   8399 -0.84113600  16.000000   ; qtot 253.751389
 8400         ho    287    ccc    H11   8400 0.51201600   1.008000   ; qtot 254.263405
 8401         os    287    ccc     O6   8401 -0.26013600  16.000000   ; qtot 254.003269
; residue  288 ccc rtp ccc q 0.0
 8402         c3    288    ccc     C1   8402 -0.33178800  12.010000   ; qtot 253.671481
 8403         c3    288    ccc     C2   8403 0.30606500  12.010000   ; qtot 253.977546
 8404         h1    288    ccc     H1   8404 0.11662300   1.008000   ; qtot 254.094169
 8405         h1    288    ccc     H2   8405 0.11526800   1.008000   ; qtot 254.209437
 8406         c3    288    ccc     C3   8406 0.15592700  12.010000   ; qtot 254.365364
 8407         c3    288    ccc     C4   8407 0.28383300  12.010000   ; qtot 254.649197
 8408         c3    288    ccc     C5   8408 0.32403300  12.010000   ; qtot 254.973230
 8409         h1    288    ccc     H3   8409 0.13386900   1.008000   ; qtot 255.107099
 8410         h1    288    ccc     H4   8410 0.10146700   1.008000   ; qtot 255.208566
 8411         h2    288    ccc     H5   8411 0.10960400   1.008000   ; qtot 255.318170
 8412         os    288    ccc     O1   8412 -0.28650000  16.000000   ; qtot 255.031670
 8413         oh    288    ccc     O2   8413 -0.86012500  16.000000   ; qtot 254.171545
 8414         oh    288    ccc     O3   8414 -0.83772800  16.000000   ; qtot 253.333817
 8415         oh    288    ccc     O4   8415 -0.77449700  16.000000   ; qtot 252.559320
 8416         c3    288    ccc     C6   8416 0.37576500  12.010000   ; qtot 252.935085
 8417         ho    288    ccc     H6   8417 0.53656000   1.008000   ; qtot 253.471645
 8418         ho    288    ccc     H7   8418 0.49492100   1.008000   ; qtot 253.966566
 8419         ho    288    ccc     H8   8419 0.51297200   1.008000   ; qtot 254.479538
 8420         h1    288    ccc     H9   8420 0.05653400   1.008000   ; qtot 254.536072
 8421         h1    288    ccc    H10   8421 0.05653400   1.008000   ; qtot 254.592606
 8422         oh    288    ccc     O5   8422 -0.84113600  16.000000   ; qtot 253.751470
 8423         ho    288    ccc    H11   8423 0.51201600   1.008000   ; qtot 254.263486
 8424         os    288    ccc     O6   8424 -0.26013600  16.000000   ; qtot 254.003350
; residue  289 ccc rtp ccc q 0.0
 8425         c3    289    ccc     C1   8425 -0.33178800  12.010000   ; qtot 253.671562
 8426         c3    289    ccc     C2   8426 0.30606500  12.010000   ; qtot 253.977627
 8427         h1    289    ccc     H1   8427 0.11662300   1.008000   ; qtot 254.094250
 8428         h1    289    ccc     H2   8428 0.11526800   1.008000   ; qtot 254.209518
 8429         c3    289    ccc     C3   8429 0.15592700  12.010000   ; qtot 254.365445
 8430         c3    289    ccc     C4   8430 0.28383300  12.010000   ; qtot 254.649278
 8431         c3    289    ccc     C5   8431 0.32403300  12.010000   ; qtot 254.973311
 8432         h1    289    ccc     H3   8432 0.13386900   1.008000   ; qtot 255.107180
 8433         h1    289    ccc     H4   8433 0.10146700   1.008000   ; qtot 255.208647
 8434         h2    289    ccc     H5   8434 0.10960400   1.008000   ; qtot 255.318251
 8435         os    289    ccc     O1   8435 -0.28650000  16.000000   ; qtot 255.031751
 8436         oh    289    ccc     O2   8436 -0.86012500  16.000000   ; qtot 254.171626
 8437         oh    289    ccc     O3   8437 -0.83772800  16.000000   ; qtot 253.333898
 8438         oh    289    ccc     O4   8438 -0.77449700  16.000000   ; qtot 252.559401
 8439         c3    289    ccc     C6   8439 0.37576500  12.010000   ; qtot 252.935166
 8440         ho    289    ccc     H6   8440 0.53656000   1.008000   ; qtot 253.471726
 8441         ho    289    ccc     H7   8441 0.49492100   1.008000   ; qtot 253.966647
 8442         ho    289    ccc     H8   8442 0.51297200   1.008000   ; qtot 254.479619
 8443         h1    289    ccc     H9   8443 0.05653400   1.008000   ; qtot 254.536153
 8444         h1    289    ccc    H10   8444 0.05653400   1.008000   ; qtot 254.592687
 8445         oh    289    ccc     O5   8445 -0.84113600  16.000000   ; qtot 253.751551
 8446         ho    289    ccc    H11   8446 0.51201600   1.008000   ; qtot 254.263567
 8447         os    289    ccc     O6   8447 -0.26013600  16.000000   ; qtot 254.003431
; residue  290 ccc rtp ccc q 0.0
 8448         c3    290    ccc     C1   8448 -0.33178800  12.010000   ; qtot 253.671643
 8449         c3    290    ccc     C2   8449 0.30606500  12.010000   ; qtot 253.977708
 8450         h1    290    ccc     H1   8450 0.11662300   1.008000   ; qtot 254.094331
 8451         h1    290    ccc     H2   8451 0.11526800   1.008000   ; qtot 254.209599
 8452         c3    290    ccc     C3   8452 0.15592700  12.010000   ; qtot 254.365526
 8453         c3    290    ccc     C4   8453 0.28383300  12.010000   ; qtot 254.649359
 8454         c3    290    ccc     C5   8454 0.32403300  12.010000   ; qtot 254.973392
 8455         h1    290    ccc     H3   8455 0.13386900   1.008000   ; qtot 255.107261
 8456         h1    290    ccc     H4   8456 0.10146700   1.008000   ; qtot 255.208728
 8457         h2    290    ccc     H5   8457 0.10960400   1.008000   ; qtot 255.318332
 8458         os    290    ccc     O1   8458 -0.28650000  16.000000   ; qtot 255.031832
 8459         oh    290    ccc     O2   8459 -0.86012500  16.000000   ; qtot 254.171707
 8460         oh    290    ccc     O3   8460 -0.83772800  16.000000   ; qtot 253.333979
 8461         oh    290    ccc     O4   8461 -0.77449700  16.000000   ; qtot 252.559482
 8462         c3    290    ccc     C6   8462 0.37576500  12.010000   ; qtot 252.935247
 8463         ho    290    ccc     H6   8463 0.53656000   1.008000   ; qtot 253.471807
 8464         ho    290    ccc     H7   8464 0.49492100   1.008000   ; qtot 253.966728
 8465         ho    290    ccc     H8   8465 0.51297200   1.008000   ; qtot 254.479700
 8466         h1    290    ccc     H9   8466 0.05653400   1.008000   ; qtot 254.536234
 8467         h1    290    ccc    H10   8467 0.05653400   1.008000   ; qtot 254.592768
 8468         oh    290    ccc     O5   8468 -0.84113600  16.000000   ; qtot 253.751632
 8469         ho    290    ccc    H11   8469 0.51201600   1.008000   ; qtot 254.263648
 8470         os    290    ccc     O6   8470 -0.26013600  16.000000   ; qtot 254.003512
; residue  291 ccc rtp ccc q 0.0
 8471         c3    291    ccc     C1   8471 -0.33178800  12.010000   ; qtot 253.671724
 8472         c3    291    ccc     C2   8472 0.30606500  12.010000   ; qtot 253.977789
 8473         h1    291    ccc     H1   8473 0.11662300   1.008000   ; qtot 254.094412
 8474         h1    291    ccc     H2   8474 0.11526800   1.008000   ; qtot 254.209680
 8475         c3    291    ccc     C3   8475 0.15592700  12.010000   ; qtot 254.365607
 8476         c3    291    ccc     C4   8476 0.28383300  12.010000   ; qtot 254.649440
 8477         c3    291    ccc     C5   8477 0.32403300  12.010000   ; qtot 254.973473
 8478         h1    291    ccc     H3   8478 0.13386900   1.008000   ; qtot 255.107342
 8479         h1    291    ccc     H4   8479 0.10146700   1.008000   ; qtot 255.208809
 8480         h2    291    ccc     H5   8480 0.10960400   1.008000   ; qtot 255.318413
 8481         os    291    ccc     O1   8481 -0.28650000  16.000000   ; qtot 255.031913
 8482         oh    291    ccc     O2   8482 -0.86012500  16.000000   ; qtot 254.171788
 8483         oh    291    ccc     O3   8483 -0.83772800  16.000000   ; qtot 253.334060
 8484         oh    291    ccc     O4   8484 -0.77449700  16.000000   ; qtot 252.559563
 8485         c3    291    ccc     C6   8485 0.37576500  12.010000   ; qtot 252.935328
 8486         ho    291    ccc     H6   8486 0.53656000   1.008000   ; qtot 253.471888
 8487         ho    291    ccc     H7   8487 0.49492100   1.008000   ; qtot 253.966809
 8488         ho    291    ccc     H8   8488 0.51297200   1.008000   ; qtot 254.479781
 8489         h1    291    ccc     H9   8489 0.05653400   1.008000   ; qtot 254.536315
 8490         h1    291    ccc    H10   8490 0.05653400   1.008000   ; qtot 254.592849
 8491         oh    291    ccc     O5   8491 -0.84113600  16.000000   ; qtot 253.751713
 8492         ho    291    ccc    H11   8492 0.51201600   1.008000   ; qtot 254.263729
 8493         os    291    ccc     O6   8493 -0.26013600  16.000000   ; qtot 254.003593
; residue  292 ccc rtp ccc q 0.0
 8494         c3    292    ccc     C1   8494 -0.33178800  12.010000   ; qtot 253.671805
 8495         c3    292    ccc     C2   8495 0.30606500  12.010000   ; qtot 253.977870
 8496         h1    292    ccc     H1   8496 0.11662300   1.008000   ; qtot 254.094493
 8497         h1    292    ccc     H2   8497 0.11526800   1.008000   ; qtot 254.209761
 8498         c3    292    ccc     C3   8498 0.15592700  12.010000   ; qtot 254.365688
 8499         c3    292    ccc     C4   8499 0.28383300  12.010000   ; qtot 254.649521
 8500         c3    292    ccc     C5   8500 0.32403300  12.010000   ; qtot 254.973554
 8501         h1    292    ccc     H3   8501 0.13386900   1.008000   ; qtot 255.107423
 8502         h1    292    ccc     H4   8502 0.10146700   1.008000   ; qtot 255.208890
 8503         h2    292    ccc     H5   8503 0.10960400   1.008000   ; qtot 255.318494
 8504         os    292    ccc     O1   8504 -0.28650000  16.000000   ; qtot 255.031994
 8505         oh    292    ccc     O2   8505 -0.86012500  16.000000   ; qtot 254.171869
 8506         oh    292    ccc     O3   8506 -0.83772800  16.000000   ; qtot 253.334141
 8507         oh    292    ccc     O4   8507 -0.77449700  16.000000   ; qtot 252.559644
 8508         c3    292    ccc     C6   8508 0.37576500  12.010000   ; qtot 252.935409
 8509         ho    292    ccc     H6   8509 0.53656000   1.008000   ; qtot 253.471969
 8510         ho    292    ccc     H7   8510 0.49492100   1.008000   ; qtot 253.966890
 8511         ho    292    ccc     H8   8511 0.51297200   1.008000   ; qtot 254.479862
 8512         h1    292    ccc     H9   8512 0.05653400   1.008000   ; qtot 254.536396
 8513         h1    292    ccc    H10   8513 0.05653400   1.008000   ; qtot 254.592930
 8514         oh    292    ccc     O5   8514 -0.84113600  16.000000   ; qtot 253.751794
 8515         ho    292    ccc    H11   8515 0.51201600   1.008000   ; qtot 254.263810
 8516         os    292    ccc     O6   8516 -0.26013600  16.000000   ; qtot 254.003674
; residue  293 ccc rtp ccc q 0.0
 8517         c3    293    ccc     C1   8517 -0.33178800  12.010000   ; qtot 253.671886
 8518         c3    293    ccc     C2   8518 0.30606500  12.010000   ; qtot 253.977951
 8519         h1    293    ccc     H1   8519 0.11662300   1.008000   ; qtot 254.094574
 8520         h1    293    ccc     H2   8520 0.11526800   1.008000   ; qtot 254.209842
 8521         c3    293    ccc     C3   8521 0.15592700  12.010000   ; qtot 254.365769
 8522         c3    293    ccc     C4   8522 0.28383300  12.010000   ; qtot 254.649602
 8523         c3    293    ccc     C5   8523 0.32403300  12.010000   ; qtot 254.973635
 8524         h1    293    ccc     H3   8524 0.13386900   1.008000   ; qtot 255.107504
 8525         h1    293    ccc     H4   8525 0.10146700   1.008000   ; qtot 255.208971
 8526         h2    293    ccc     H5   8526 0.10960400   1.008000   ; qtot 255.318575
 8527         os    293    ccc     O1   8527 -0.28650000  16.000000   ; qtot 255.032075
 8528         oh    293    ccc     O2   8528 -0.86012500  16.000000   ; qtot 254.171950
 8529         oh    293    ccc     O3   8529 -0.83772800  16.000000   ; qtot 253.334222
 8530         oh    293    ccc     O4   8530 -0.77449700  16.000000   ; qtot 252.559725
 8531         c3    293    ccc     C6   8531 0.37576500  12.010000   ; qtot 252.935490
 8532         ho    293    ccc     H6   8532 0.53656000   1.008000   ; qtot 253.472050
 8533         ho    293    ccc     H7   8533 0.49492100   1.008000   ; qtot 253.966971
 8534         ho    293    ccc     H8   8534 0.51297200   1.008000   ; qtot 254.479943
 8535         h1    293    ccc     H9   8535 0.05653400   1.008000   ; qtot 254.536477
 8536         h1    293    ccc    H10   8536 0.05653400   1.008000   ; qtot 254.593011
 8537         oh    293    ccc     O5   8537 -0.84113600  16.000000   ; qtot 253.751875
 8538         ho    293    ccc    H11   8538 0.51201600   1.008000   ; qtot 254.263891
 8539         os    293    ccc     O6   8539 -0.26013600  16.000000   ; qtot 254.003755
; residue  294 ccc rtp ccc q 0.0
 8540         c3    294    ccc     C1   8540 -0.33178800  12.010000   ; qtot 253.671967
 8541         c3    294    ccc     C2   8541 0.30606500  12.010000   ; qtot 253.978032
 8542         h1    294    ccc     H1   8542 0.11662300   1.008000   ; qtot 254.094655
 8543         h1    294    ccc     H2   8543 0.11526800   1.008000   ; qtot 254.209923
 8544         c3    294    ccc     C3   8544 0.15592700  12.010000   ; qtot 254.365850
 8545         c3    294    ccc     C4   8545 0.28383300  12.010000   ; qtot 254.649683
 8546         c3    294    ccc     C5   8546 0.32403300  12.010000   ; qtot 254.973716
 8547         h1    294    ccc     H3   8547 0.13386900   1.008000   ; qtot 255.107585
 8548         h1    294    ccc     H4   8548 0.10146700   1.008000   ; qtot 255.209052
 8549         h2    294    ccc     H5   8549 0.10960400   1.008000   ; qtot 255.318656
 8550         os    294    ccc     O1   8550 -0.28650000  16.000000   ; qtot 255.032156
 8551         oh    294    ccc     O2   8551 -0.86012500  16.000000   ; qtot 254.172031
 8552         oh    294    ccc     O3   8552 -0.83772800  16.000000   ; qtot 253.334303
 8553         oh    294    ccc     O4   8553 -0.77449700  16.000000   ; qtot 252.559806
 8554         c3    294    ccc     C6   8554 0.37576500  12.010000   ; qtot 252.935571
 8555         ho    294    ccc     H6   8555 0.53656000   1.008000   ; qtot 253.472131
 8556         ho    294    ccc     H7   8556 0.49492100   1.008000   ; qtot 253.967052
 8557         ho    294    ccc     H8   8557 0.51297200   1.008000   ; qtot 254.480024
 8558         h1    294    ccc     H9   8558 0.05653400   1.008000   ; qtot 254.536558
 8559         h1    294    ccc    H10   8559 0.05653400   1.008000   ; qtot 254.593092
 8560         oh    294    ccc     O5   8560 -0.84113600  16.000000   ; qtot 253.751956
 8561         ho    294    ccc    H11   8561 0.51201600   1.008000   ; qtot 254.263972
 8562         os    294    ccc     O6   8562 -0.26013600  16.000000   ; qtot 254.003836
; residue  295 ccc rtp ccc q 0.0
 8563         c3    295    ccc     C1   8563 -0.33178800  12.010000   ; qtot 253.672048
 8564         c3    295    ccc     C2   8564 0.30606500  12.010000   ; qtot 253.978113
 8565         h1    295    ccc     H1   8565 0.11662300   1.008000   ; qtot 254.094736
 8566         h1    295    ccc     H2   8566 0.11526800   1.008000   ; qtot 254.210004
 8567         c3    295    ccc     C3   8567 0.15592700  12.010000   ; qtot 254.365931
 8568         c3    295    ccc     C4   8568 0.28383300  12.010000   ; qtot 254.649764
 8569         c3    295    ccc     C5   8569 0.32403300  12.010000   ; qtot 254.973797
 8570         h1    295    ccc     H3   8570 0.13386900   1.008000   ; qtot 255.107666
 8571         h1    295    ccc     H4   8571 0.10146700   1.008000   ; qtot 255.209133
 8572         h2    295    ccc     H5   8572 0.10960400   1.008000   ; qtot 255.318737
 8573         os    295    ccc     O1   8573 -0.28650000  16.000000   ; qtot 255.032237
 8574         oh    295    ccc     O2   8574 -0.86012500  16.000000   ; qtot 254.172112
 8575         oh    295    ccc     O3   8575 -0.83772800  16.000000   ; qtot 253.334384
 8576         oh    295    ccc     O4   8576 -0.77449700  16.000000   ; qtot 252.559887
 8577         c3    295    ccc     C6   8577 0.37576500  12.010000   ; qtot 252.935652
 8578         ho    295    ccc     H6   8578 0.53656000   1.008000   ; qtot 253.472212
 8579         ho    295    ccc     H7   8579 0.49492100   1.008000   ; qtot 253.967133
 8580         ho    295    ccc     H8   8580 0.51297200   1.008000   ; qtot 254.480105
 8581         h1    295    ccc     H9   8581 0.05653400   1.008000   ; qtot 254.536639
 8582         h1    295    ccc    H10   8582 0.05653400   1.008000   ; qtot 254.593173
 8583         oh    295    ccc     O5   8583 -0.84113600  16.000000   ; qtot 253.752037
 8584         ho    295    ccc    H11   8584 0.51201600   1.008000   ; qtot 254.264053
 8585         os    295    ccc     O6   8585 -0.26013600  16.000000   ; qtot 254.003917
; residue  296 ccc rtp ccc q 0.0
 8586         c3    296    ccc     C1   8586 -0.33178800  12.010000   ; qtot 253.672129
 8587         c3    296    ccc     C2   8587 0.30606500  12.010000   ; qtot 253.978194
 8588         h1    296    ccc     H1   8588 0.11662300   1.008000   ; qtot 254.094817
 8589         h1    296    ccc     H2   8589 0.11526800   1.008000   ; qtot 254.210085
 8590         c3    296    ccc     C3   8590 0.15592700  12.010000   ; qtot 254.366012
 8591         c3    296    ccc     C4   8591 0.28383300  12.010000   ; qtot 254.649845
 8592         c3    296    ccc     C5   8592 0.32403300  12.010000   ; qtot 254.973878
 8593         h1    296    ccc     H3   8593 0.13386900   1.008000   ; qtot 255.107747
 8594         h1    296    ccc     H4   8594 0.10146700   1.008000   ; qtot 255.209214
 8595         h2    296    ccc     H5   8595 0.10960400   1.008000   ; qtot 255.318818
 8596         os    296    ccc     O1   8596 -0.28650000  16.000000   ; qtot 255.032318
 8597         oh    296    ccc     O2   8597 -0.86012500  16.000000   ; qtot 254.172193
 8598         oh    296    ccc     O3   8598 -0.83772800  16.000000   ; qtot 253.334465
 8599         oh    296    ccc     O4   8599 -0.77449700  16.000000   ; qtot 252.559968
 8600         c3    296    ccc     C6   8600 0.37576500  12.010000   ; qtot 252.935733
 8601         ho    296    ccc     H6   8601 0.53656000   1.008000   ; qtot 253.472293
 8602         ho    296    ccc     H7   8602 0.49492100   1.008000   ; qtot 253.967214
 8603         ho    296    ccc     H8   8603 0.51297200   1.008000   ; qtot 254.480186
 8604         h1    296    ccc     H9   8604 0.05653400   1.008000   ; qtot 254.536720
 8605         h1    296    ccc    H10   8605 0.05653400   1.008000   ; qtot 254.593254
 8606         oh    296    ccc     O5   8606 -0.84113600  16.000000   ; qtot 253.752118
 8607         ho    296    ccc    H11   8607 0.51201600   1.008000   ; qtot 254.264134
 8608         os    296    ccc     O6   8608 -0.26013600  16.000000   ; qtot 254.003998
; residue  297 ccc rtp ccc q 0.0
 8609         c3    297    ccc     C1   8609 -0.33178800  12.010000   ; qtot 253.672210
 8610         c3    297    ccc     C2   8610 0.30606500  12.010000   ; qtot 253.978275
 8611         h1    297    ccc     H1   8611 0.11662300   1.008000   ; qtot 254.094898
 8612         h1    297    ccc     H2   8612 0.11526800   1.008000   ; qtot 254.210166
 8613         c3    297    ccc     C3   8613 0.15592700  12.010000   ; qtot 254.366093
 8614         c3    297    ccc     C4   8614 0.28383300  12.010000   ; qtot 254.649926
 8615         c3    297    ccc     C5   8615 0.32403300  12.010000   ; qtot 254.973959
 8616         h1    297    ccc     H3   8616 0.13386900   1.008000   ; qtot 255.107828
 8617         h1    297    ccc     H4   8617 0.10146700   1.008000   ; qtot 255.209295
 8618         h2    297    ccc     H5   8618 0.10960400   1.008000   ; qtot 255.318899
 8619         os    297    ccc     O1   8619 -0.28650000  16.000000   ; qtot 255.032399
 8620         oh    297    ccc     O2   8620 -0.86012500  16.000000   ; qtot 254.172274
 8621         oh    297    ccc     O3   8621 -0.83772800  16.000000   ; qtot 253.334546
 8622         oh    297    ccc     O4   8622 -0.77449700  16.000000   ; qtot 252.560049
 8623         c3    297    ccc     C6   8623 0.37576500  12.010000   ; qtot 252.935814
 8624         ho    297    ccc     H6   8624 0.53656000   1.008000   ; qtot 253.472374
 8625         ho    297    ccc     H7   8625 0.49492100   1.008000   ; qtot 253.967295
 8626         ho    297    ccc     H8   8626 0.51297200   1.008000   ; qtot 254.480267
 8627         h1    297    ccc     H9   8627 0.05653400   1.008000   ; qtot 254.536801
 8628         h1    297    ccc    H10   8628 0.05653400   1.008000   ; qtot 254.593335
 8629         oh    297    ccc     O5   8629 -0.84113600  16.000000   ; qtot 253.752199
 8630         ho    297    ccc    H11   8630 0.51201600   1.008000   ; qtot 254.264215
 8631         os    297    ccc     O6   8631 -0.26013600  16.000000   ; qtot 254.004079
; residue  298 ccc rtp ccc q 0.0
 8632         c3    298    ccc     C1   8632 -0.33178800  12.010000   ; qtot 253.672291
 8633         c3    298    ccc     C2   8633 0.30606500  12.010000   ; qtot 253.978356
 8634         h1    298    ccc     H1   8634 0.11662300   1.008000   ; qtot 254.094979
 8635         h1    298    ccc     H2   8635 0.11526800   1.008000   ; qtot 254.210247
 8636         c3    298    ccc     C3   8636 0.15592700  12.010000   ; qtot 254.366174
 8637         c3    298    ccc     C4   8637 0.28383300  12.010000   ; qtot 254.650007
 8638         c3    298    ccc     C5   8638 0.32403300  12.010000   ; qtot 254.974040
 8639         h1    298    ccc     H3   8639 0.13386900   1.008000   ; qtot 255.107909
 8640         h1    298    ccc     H4   8640 0.10146700   1.008000   ; qtot 255.209376
 8641         h2    298    ccc     H5   8641 0.10960400   1.008000   ; qtot 255.318980
 8642         os    298    ccc     O1   8642 -0.28650000  16.000000   ; qtot 255.032480
 8643         oh    298    ccc     O2   8643 -0.86012500  16.000000   ; qtot 254.172355
 8644         oh    298    ccc     O3   8644 -0.83772800  16.000000   ; qtot 253.334627
 8645         oh    298    ccc     O4   8645 -0.77449700  16.000000   ; qtot 252.560130
 8646         c3    298    ccc     C6   8646 0.37576500  12.010000   ; qtot 252.935895
 8647         ho    298    ccc     H6   8647 0.53656000   1.008000   ; qtot 253.472455
 8648         ho    298    ccc     H7   8648 0.49492100   1.008000   ; qtot 253.967376
 8649         ho    298    ccc     H8   8649 0.51297200   1.008000   ; qtot 254.480348
 8650         h1    298    ccc     H9   8650 0.05653400   1.008000   ; qtot 254.536882
 8651         h1    298    ccc    H10   8651 0.05653400   1.008000   ; qtot 254.593416
 8652         oh    298    ccc     O5   8652 -0.84113600  16.000000   ; qtot 253.752280
 8653         ho    298    ccc    H11   8653 0.51201600   1.008000   ; qtot 254.264296
 8654         os    298    ccc     O6   8654 -0.26013600  16.000000   ; qtot 254.004160
; residue  299 ccc rtp ccc q 0.0
 8655         c3    299    ccc     C1   8655 -0.33178800  12.010000   ; qtot 253.672372
 8656         c3    299    ccc     C2   8656 0.30606500  12.010000   ; qtot 253.978437
 8657         h1    299    ccc     H1   8657 0.11662300   1.008000   ; qtot 254.095060
 8658         h1    299    ccc     H2   8658 0.11526800   1.008000   ; qtot 254.210328
 8659         c3    299    ccc     C3   8659 0.15592700  12.010000   ; qtot 254.366255
 8660         c3    299    ccc     C4   8660 0.28383300  12.010000   ; qtot 254.650088
 8661         c3    299    ccc     C5   8661 0.32403300  12.010000   ; qtot 254.974121
 8662         h1    299    ccc     H3   8662 0.13386900   1.008000   ; qtot 255.107990
 8663         h1    299    ccc     H4   8663 0.10146700   1.008000   ; qtot 255.209457
 8664         h2    299    ccc     H5   8664 0.10960400   1.008000   ; qtot 255.319061
 8665         os    299    ccc     O1   8665 -0.28650000  16.000000   ; qtot 255.032561
 8666         oh    299    ccc     O2   8666 -0.86012500  16.000000   ; qtot 254.172436
 8667         oh    299    ccc     O3   8667 -0.83772800  16.000000   ; qtot 253.334708
 8668         oh    299    ccc     O4   8668 -0.77449700  16.000000   ; qtot 252.560211
 8669         c3    299    ccc     C6   8669 0.37576500  12.010000   ; qtot 252.935976
 8670         ho    299    ccc     H6   8670 0.53656000   1.008000   ; qtot 253.472536
 8671         ho    299    ccc     H7   8671 0.49492100   1.008000   ; qtot 253.967457
 8672         ho    299    ccc     H8   8672 0.51297200   1.008000   ; qtot 254.480429
 8673         h1    299    ccc     H9   8673 0.05653400   1.008000   ; qtot 254.536963
 8674         h1    299    ccc    H10   8674 0.05653400   1.008000   ; qtot 254.593497
 8675         oh    299    ccc     O5   8675 -0.84113600  16.000000   ; qtot 253.752361
 8676         ho    299    ccc    H11   8676 0.51201600   1.008000   ; qtot 254.264377
 8677         os    299    ccc     O6   8677 -0.26013600  16.000000   ; qtot 254.004241
; residue  300 ccc rtp ccc q 0.0
 8678         c3    300    ccc     C1   8678 -0.33178800  12.010000   ; qtot 253.672453
 8679         c3    300    ccc     C2   8679 0.30606500  12.010000   ; qtot 253.978518
 8680         h1    300    ccc     H1   8680 0.11662300   1.008000   ; qtot 254.095141
 8681         h1    300    ccc     H2   8681 0.11526800   1.008000   ; qtot 254.210409
 8682         c3    300    ccc     C3   8682 0.15592700  12.010000   ; qtot 254.366336
 8683         c3    300    ccc     C4   8683 0.28383300  12.010000   ; qtot 254.650169
 8684         c3    300    ccc     C5   8684 0.32403300  12.010000   ; qtot 254.974202
 8685         h1    300    ccc     H3   8685 0.13386900   1.008000   ; qtot 255.108071
 8686         h1    300    ccc     H4   8686 0.10146700   1.008000   ; qtot 255.209538
 8687         h2    300    ccc     H5   8687 0.10960400   1.008000   ; qtot 255.319142
 8688         os    300    ccc     O1   8688 -0.28650000  16.000000   ; qtot 255.032642
 8689         oh    300    ccc     O2   8689 -0.86012500  16.000000   ; qtot 254.172517
 8690         oh    300    ccc     O3   8690 -0.83772800  16.000000   ; qtot 253.334789
 8691         oh    300    ccc     O4   8691 -0.77449700  16.000000   ; qtot 252.560292
 8692         c3    300    ccc     C6   8692 0.37576500  12.010000   ; qtot 252.936057
 8693         ho    300    ccc     H6   8693 0.53656000   1.008000   ; qtot 253.472617
 8694         ho    300    ccc     H7   8694 0.49492100   1.008000   ; qtot 253.967538
 8695         ho    300    ccc     H8   8695 0.51297200   1.008000   ; qtot 254.480510
 8696         h1    300    ccc     H9   8696 0.05653400   1.008000   ; qtot 254.537044
 8697         h1    300    ccc    H10   8697 0.05653400   1.008000   ; qtot 254.593578
 8698         oh    300    ccc     O5   8698 -0.84113600  16.000000   ; qtot 253.752442
 8699         ho    300    ccc    H11   8699 0.51201600   1.008000   ; qtot 254.264458
 8700         os    300    ccc     O6   8700 -0.26013600  16.000000   ; qtot 254.004322
; residue  301 ccc rtp ccc q 0.0
 8701         c3    301    ccc     C1   8701 -0.33178800  12.010000   ; qtot 253.672534
 8702         c3    301    ccc     C2   8702 0.30606500  12.010000   ; qtot 253.978599
 8703         h1    301    ccc     H1   8703 0.11662300   1.008000   ; qtot 254.095222
 8704         h1    301    ccc     H2   8704 0.11526800   1.008000   ; qtot 254.210490
 8705         c3    301    ccc     C3   8705 0.15592700  12.010000   ; qtot 254.366417
 8706         c3    301    ccc     C4   8706 0.28383300  12.010000   ; qtot 254.650250
 8707         c3    301    ccc     C5   8707 0.32403300  12.010000   ; qtot 254.974283
 8708         h1    301    ccc     H3   8708 0.13386900   1.008000   ; qtot 255.108152
 8709         h1    301    ccc     H4   8709 0.10146700   1.008000   ; qtot 255.209619
 8710         h2    301    ccc     H5   8710 0.10960400   1.008000   ; qtot 255.319223
 8711         os    301    ccc     O1   8711 -0.28650000  16.000000   ; qtot 255.032723
 8712         oh    301    ccc     O2   8712 -0.86012500  16.000000   ; qtot 254.172598
 8713         oh    301    ccc     O3   8713 -0.83772800  16.000000   ; qtot 253.334870
 8714         oh    301    ccc     O4   8714 -0.77449700  16.000000   ; qtot 252.560373
 8715         c3    301    ccc     C6   8715 0.37576500  12.010000   ; qtot 252.936138
 8716         ho    301    ccc     H6   8716 0.53656000   1.008000   ; qtot 253.472698
 8717         ho    301    ccc     H7   8717 0.49492100   1.008000   ; qtot 253.967619
 8718         ho    301    ccc     H8   8718 0.51297200   1.008000   ; qtot 254.480591
 8719         h1    301    ccc     H9   8719 0.05653400   1.008000   ; qtot 254.537125
 8720         h1    301    ccc    H10   8720 0.05653400   1.008000   ; qtot 254.593659
 8721         oh    301    ccc     O5   8721 -0.84113600  16.000000   ; qtot 253.752523
 8722         ho    301    ccc    H11   8722 0.51201600   1.008000   ; qtot 254.264539
 8723         os    301    ccc     O6   8723 -0.26013600  16.000000   ; qtot 254.004403
; residue  302 ccc rtp ccc q 0.0
 8724         c3    302    ccc     C1   8724 -0.33178800  12.010000   ; qtot 253.672615
 8725         c3    302    ccc     C2   8725 0.30606500  12.010000   ; qtot 253.978680
 8726         h1    302    ccc     H1   8726 0.11662300   1.008000   ; qtot 254.095303
 8727         h1    302    ccc     H2   8727 0.11526800   1.008000   ; qtot 254.210571
 8728         c3    302    ccc     C3   8728 0.15592700  12.010000   ; qtot 254.366498
 8729         c3    302    ccc     C4   8729 0.28383300  12.010000   ; qtot 254.650331
 8730         c3    302    ccc     C5   8730 0.32403300  12.010000   ; qtot 254.974364
 8731         h1    302    ccc     H3   8731 0.13386900   1.008000   ; qtot 255.108233
 8732         h1    302    ccc     H4   8732 0.10146700   1.008000   ; qtot 255.209700
 8733         h2    302    ccc     H5   8733 0.10960400   1.008000   ; qtot 255.319304
 8734         os    302    ccc     O1   8734 -0.28650000  16.000000   ; qtot 255.032804
 8735         oh    302    ccc     O2   8735 -0.86012500  16.000000   ; qtot 254.172679
 8736         oh    302    ccc     O3   8736 -0.83772800  16.000000   ; qtot 253.334951
 8737         oh    302    ccc     O4   8737 -0.77449700  16.000000   ; qtot 252.560454
 8738         c3    302    ccc     C6   8738 0.37576500  12.010000   ; qtot 252.936219
 8739         ho    302    ccc     H6   8739 0.53656000   1.008000   ; qtot 253.472779
 8740         ho    302    ccc     H7   8740 0.49492100   1.008000   ; qtot 253.967700
 8741         ho    302    ccc     H8   8741 0.51297200   1.008000   ; qtot 254.480672
 8742         h1    302    ccc     H9   8742 0.05653400   1.008000   ; qtot 254.537206
 8743         h1    302    ccc    H10   8743 0.05653400   1.008000   ; qtot 254.593740
 8744         oh    302    ccc     O5   8744 -0.84113600  16.000000   ; qtot 253.752604
 8745         ho    302    ccc    H11   8745 0.51201600   1.008000   ; qtot 254.264620
 8746         os    302    ccc     O6   8746 -0.26013600  16.000000   ; qtot 254.004484
; residue  303 ccc rtp ccc q 0.0
 8747         c3    303    ccc     C1   8747 -0.33178800  12.010000   ; qtot 253.672696
 8748         c3    303    ccc     C2   8748 0.30606500  12.010000   ; qtot 253.978761
 8749         h1    303    ccc     H1   8749 0.11662300   1.008000   ; qtot 254.095384
 8750         h1    303    ccc     H2   8750 0.11526800   1.008000   ; qtot 254.210652
 8751         c3    303    ccc     C3   8751 0.15592700  12.010000   ; qtot 254.366579
 8752         c3    303    ccc     C4   8752 0.28383300  12.010000   ; qtot 254.650412
 8753         c3    303    ccc     C5   8753 0.32403300  12.010000   ; qtot 254.974445
 8754         h1    303    ccc     H3   8754 0.13386900   1.008000   ; qtot 255.108314
 8755         h1    303    ccc     H4   8755 0.10146700   1.008000   ; qtot 255.209781
 8756         h2    303    ccc     H5   8756 0.10960400   1.008000   ; qtot 255.319385
 8757         os    303    ccc     O1   8757 -0.28650000  16.000000   ; qtot 255.032885
 8758         oh    303    ccc     O2   8758 -0.86012500  16.000000   ; qtot 254.172760
 8759         oh    303    ccc     O3   8759 -0.83772800  16.000000   ; qtot 253.335032
 8760         oh    303    ccc     O4   8760 -0.77449700  16.000000   ; qtot 252.560535
 8761         c3    303    ccc     C6   8761 0.37576500  12.010000   ; qtot 252.936300
 8762         ho    303    ccc     H6   8762 0.53656000   1.008000   ; qtot 253.472860
 8763         ho    303    ccc     H7   8763 0.49492100   1.008000   ; qtot 253.967781
 8764         ho    303    ccc     H8   8764 0.51297200   1.008000   ; qtot 254.480753
 8765         h1    303    ccc     H9   8765 0.05653400   1.008000   ; qtot 254.537287
 8766         h1    303    ccc    H10   8766 0.05653400   1.008000   ; qtot 254.593821
 8767         oh    303    ccc     O5   8767 -0.84113600  16.000000   ; qtot 253.752685
 8768         ho    303    ccc    H11   8768 0.51201600   1.008000   ; qtot 254.264701
 8769         os    303    ccc     O6   8769 -0.26013600  16.000000   ; qtot 254.004565
; residue  304 ccc rtp ccc q 0.0
 8770         c3    304    ccc     C1   8770 -0.33178800  12.010000   ; qtot 253.672777
 8771         c3    304    ccc     C2   8771 0.30606500  12.010000   ; qtot 253.978842
 8772         h1    304    ccc     H1   8772 0.11662300   1.008000   ; qtot 254.095465
 8773         h1    304    ccc     H2   8773 0.11526800   1.008000   ; qtot 254.210733
 8774         c3    304    ccc     C3   8774 0.15592700  12.010000   ; qtot 254.366660
 8775         c3    304    ccc     C4   8775 0.28383300  12.010000   ; qtot 254.650493
 8776         c3    304    ccc     C5   8776 0.32403300  12.010000   ; qtot 254.974526
 8777         h1    304    ccc     H3   8777 0.13386900   1.008000   ; qtot 255.108395
 8778         h1    304    ccc     H4   8778 0.10146700   1.008000   ; qtot 255.209862
 8779         h2    304    ccc     H5   8779 0.10960400   1.008000   ; qtot 255.319466
 8780         os    304    ccc     O1   8780 -0.28650000  16.000000   ; qtot 255.032966
 8781         oh    304    ccc     O2   8781 -0.86012500  16.000000   ; qtot 254.172841
 8782         oh    304    ccc     O3   8782 -0.83772800  16.000000   ; qtot 253.335113
 8783         oh    304    ccc     O4   8783 -0.77449700  16.000000   ; qtot 252.560616
 8784         c3    304    ccc     C6   8784 0.37576500  12.010000   ; qtot 252.936381
 8785         ho    304    ccc     H6   8785 0.53656000   1.008000   ; qtot 253.472941
 8786         ho    304    ccc     H7   8786 0.49492100   1.008000   ; qtot 253.967862
 8787         ho    304    ccc     H8   8787 0.51297200   1.008000   ; qtot 254.480834
 8788         h1    304    ccc     H9   8788 0.05653400   1.008000   ; qtot 254.537368
 8789         h1    304    ccc    H10   8789 0.05653400   1.008000   ; qtot 254.593902
 8790         oh    304    ccc     O5   8790 -0.84113600  16.000000   ; qtot 253.752766
 8791         ho    304    ccc    H11   8791 0.51201600   1.008000   ; qtot 254.264782
 8792         os    304    ccc     O6   8792 -0.26013600  16.000000   ; qtot 254.004646
; residue  305 ccc rtp ccc q 0.0
 8793         c3    305    ccc     C1   8793 -0.33178800  12.010000   ; qtot 253.672858
 8794         c3    305    ccc     C2   8794 0.30606500  12.010000   ; qtot 253.978923
 8795         h1    305    ccc     H1   8795 0.11662300   1.008000   ; qtot 254.095546
 8796         h1    305    ccc     H2   8796 0.11526800   1.008000   ; qtot 254.210814
 8797         c3    305    ccc     C3   8797 0.15592700  12.010000   ; qtot 254.366741
 8798         c3    305    ccc     C4   8798 0.28383300  12.010000   ; qtot 254.650574
 8799         c3    305    ccc     C5   8799 0.32403300  12.010000   ; qtot 254.974607
 8800         h1    305    ccc     H3   8800 0.13386900   1.008000   ; qtot 255.108476
 8801         h1    305    ccc     H4   8801 0.10146700   1.008000   ; qtot 255.209943
 8802         h2    305    ccc     H5   8802 0.10960400   1.008000   ; qtot 255.319547
 8803         os    305    ccc     O1   8803 -0.28650000  16.000000   ; qtot 255.033047
 8804         oh    305    ccc     O2   8804 -0.86012500  16.000000   ; qtot 254.172922
 8805         oh    305    ccc     O3   8805 -0.83772800  16.000000   ; qtot 253.335194
 8806         oh    305    ccc     O4   8806 -0.77449700  16.000000   ; qtot 252.560697
 8807         c3    305    ccc     C6   8807 0.37576500  12.010000   ; qtot 252.936462
 8808         ho    305    ccc     H6   8808 0.53656000   1.008000   ; qtot 253.473022
 8809         ho    305    ccc     H7   8809 0.49492100   1.008000   ; qtot 253.967943
 8810         ho    305    ccc     H8   8810 0.51297200   1.008000   ; qtot 254.480915
 8811         h1    305    ccc     H9   8811 0.05653400   1.008000   ; qtot 254.537449
 8812         h1    305    ccc    H10   8812 0.05653400   1.008000   ; qtot 254.593983
 8813         oh    305    ccc     O5   8813 -0.84113600  16.000000   ; qtot 253.752847
 8814         ho    305    ccc    H11   8814 0.51201600   1.008000   ; qtot 254.264863
 8815         os    305    ccc     O6   8815 -0.26013600  16.000000   ; qtot 254.004727
; residue  306 ccc rtp ccc q 0.0
 8816         c3    306    ccc     C1   8816 -0.33178800  12.010000   ; qtot 253.672939
 8817         c3    306    ccc     C2   8817 0.30606500  12.010000   ; qtot 253.979004
 8818         h1    306    ccc     H1   8818 0.11662300   1.008000   ; qtot 254.095627
 8819         h1    306    ccc     H2   8819 0.11526800   1.008000   ; qtot 254.210895
 8820         c3    306    ccc     C3   8820 0.15592700  12.010000   ; qtot 254.366822
 8821         c3    306    ccc     C4   8821 0.28383300  12.010000   ; qtot 254.650655
 8822         c3    306    ccc     C5   8822 0.32403300  12.010000   ; qtot 254.974688
 8823         h1    306    ccc     H3   8823 0.13386900   1.008000   ; qtot 255.108557
 8824         h1    306    ccc     H4   8824 0.10146700   1.008000   ; qtot 255.210024
 8825         h2    306    ccc     H5   8825 0.10960400   1.008000   ; qtot 255.319628
 8826         os    306    ccc     O1   8826 -0.28650000  16.000000   ; qtot 255.033128
 8827         oh    306    ccc     O2   8827 -0.86012500  16.000000   ; qtot 254.173003
 8828         oh    306    ccc     O3   8828 -0.83772800  16.000000   ; qtot 253.335275
 8829         oh    306    ccc     O4   8829 -0.77449700  16.000000   ; qtot 252.560778
 8830         c3    306    ccc     C6   8830 0.37576500  12.010000   ; qtot 252.936543
 8831         ho    306    ccc     H6   8831 0.53656000   1.008000   ; qtot 253.473103
 8832         ho    306    ccc     H7   8832 0.49492100   1.008000   ; qtot 253.968024
 8833         ho    306    ccc     H8   8833 0.51297200   1.008000   ; qtot 254.480996
 8834         h1    306    ccc     H9   8834 0.05653400   1.008000   ; qtot 254.537530
 8835         h1    306    ccc    H10   8835 0.05653400   1.008000   ; qtot 254.594064
 8836         oh    306    ccc     O5   8836 -0.84113600  16.000000   ; qtot 253.752928
 8837         ho    306    ccc    H11   8837 0.51201600   1.008000   ; qtot 254.264944
 8838         os    306    ccc     O6   8838 -0.26013600  16.000000   ; qtot 254.004808
; residue  307 ccc rtp ccc q 0.0
 8839         c3    307    ccc     C1   8839 -0.33178800  12.010000   ; qtot 253.673020
 8840         c3    307    ccc     C2   8840 0.30606500  12.010000   ; qtot 253.979085
 8841         h1    307    ccc     H1   8841 0.11662300   1.008000   ; qtot 254.095708
 8842         h1    307    ccc     H2   8842 0.11526800   1.008000   ; qtot 254.210976
 8843         c3    307    ccc     C3   8843 0.15592700  12.010000   ; qtot 254.366903
 8844         c3    307    ccc     C4   8844 0.28383300  12.010000   ; qtot 254.650736
 8845         c3    307    ccc     C5   8845 0.32403300  12.010000   ; qtot 254.974769
 8846         h1    307    ccc     H3   8846 0.13386900   1.008000   ; qtot 255.108638
 8847         h1    307    ccc     H4   8847 0.10146700   1.008000   ; qtot 255.210105
 8848         h2    307    ccc     H5   8848 0.10960400   1.008000   ; qtot 255.319709
 8849         os    307    ccc     O1   8849 -0.28650000  16.000000   ; qtot 255.033209
 8850         oh    307    ccc     O2   8850 -0.86012500  16.000000   ; qtot 254.173084
 8851         oh    307    ccc     O3   8851 -0.83772800  16.000000   ; qtot 253.335356
 8852         oh    307    ccc     O4   8852 -0.77449700  16.000000   ; qtot 252.560859
 8853         c3    307    ccc     C6   8853 0.37576500  12.010000   ; qtot 252.936624
 8854         ho    307    ccc     H6   8854 0.53656000   1.008000   ; qtot 253.473184
 8855         ho    307    ccc     H7   8855 0.49492100   1.008000   ; qtot 253.968105
 8856         ho    307    ccc     H8   8856 0.51297200   1.008000   ; qtot 254.481077
 8857         h1    307    ccc     H9   8857 0.05653400   1.008000   ; qtot 254.537611
 8858         h1    307    ccc    H10   8858 0.05653400   1.008000   ; qtot 254.594145
 8859         oh    307    ccc     O5   8859 -0.84113600  16.000000   ; qtot 253.753009
 8860         ho    307    ccc    H11   8860 0.51201600   1.008000   ; qtot 254.265025
 8861         os    307    ccc     O6   8861 -0.26013600  16.000000   ; qtot 254.004889
; residue  308 ccc rtp ccc q 0.0
 8862         c3    308    ccc     C1   8862 -0.33178800  12.010000   ; qtot 253.673101
 8863         c3    308    ccc     C2   8863 0.30606500  12.010000   ; qtot 253.979166
 8864         h1    308    ccc     H1   8864 0.11662300   1.008000   ; qtot 254.095789
 8865         h1    308    ccc     H2   8865 0.11526800   1.008000   ; qtot 254.211057
 8866         c3    308    ccc     C3   8866 0.15592700  12.010000   ; qtot 254.366984
 8867         c3    308    ccc     C4   8867 0.28383300  12.010000   ; qtot 254.650817
 8868         c3    308    ccc     C5   8868 0.32403300  12.010000   ; qtot 254.974850
 8869         h1    308    ccc     H3   8869 0.13386900   1.008000   ; qtot 255.108719
 8870         h1    308    ccc     H4   8870 0.10146700   1.008000   ; qtot 255.210186
 8871         h2    308    ccc     H5   8871 0.10960400   1.008000   ; qtot 255.319790
 8872         os    308    ccc     O1   8872 -0.28650000  16.000000   ; qtot 255.033290
 8873         oh    308    ccc     O2   8873 -0.86012500  16.000000   ; qtot 254.173165
 8874         oh    308    ccc     O3   8874 -0.83772800  16.000000   ; qtot 253.335437
 8875         oh    308    ccc     O4   8875 -0.77449700  16.000000   ; qtot 252.560940
 8876         c3    308    ccc     C6   8876 0.37576500  12.010000   ; qtot 252.936705
 8877         ho    308    ccc     H6   8877 0.53656000   1.008000   ; qtot 253.473265
 8878         ho    308    ccc     H7   8878 0.49492100   1.008000   ; qtot 253.968186
 8879         ho    308    ccc     H8   8879 0.51297200   1.008000   ; qtot 254.481158
 8880         h1    308    ccc     H9   8880 0.05653400   1.008000   ; qtot 254.537692
 8881         h1    308    ccc    H10   8881 0.05653400   1.008000   ; qtot 254.594226
 8882         oh    308    ccc     O5   8882 -0.84113600  16.000000   ; qtot 253.753090
 8883         ho    308    ccc    H11   8883 0.51201600   1.008000   ; qtot 254.265106
 8884         os    308    ccc     O6   8884 -0.26013600  16.000000   ; qtot 254.004970
; residue  309 ccc rtp ccc q 0.0
 8885         c3    309    ccc     C1   8885 -0.33178800  12.010000   ; qtot 253.673182
 8886         c3    309    ccc     C2   8886 0.30606500  12.010000   ; qtot 253.979247
 8887         h1    309    ccc     H1   8887 0.11662300   1.008000   ; qtot 254.095870
 8888         h1    309    ccc     H2   8888 0.11526800   1.008000   ; qtot 254.211138
 8889         c3    309    ccc     C3   8889 0.15592700  12.010000   ; qtot 254.367065
 8890         c3    309    ccc     C4   8890 0.28383300  12.010000   ; qtot 254.650898
 8891         c3    309    ccc     C5   8891 0.32403300  12.010000   ; qtot 254.974931
 8892         h1    309    ccc     H3   8892 0.13386900   1.008000   ; qtot 255.108800
 8893         h1    309    ccc     H4   8893 0.10146700   1.008000   ; qtot 255.210267
 8894         h2    309    ccc     H5   8894 0.10960400   1.008000   ; qtot 255.319871
 8895         os    309    ccc     O1   8895 -0.28650000  16.000000   ; qtot 255.033371
 8896         oh    309    ccc     O2   8896 -0.86012500  16.000000   ; qtot 254.173246
 8897         oh    309    ccc     O3   8897 -0.83772800  16.000000   ; qtot 253.335518
 8898         oh    309    ccc     O4   8898 -0.77449700  16.000000   ; qtot 252.561021
 8899         c3    309    ccc     C6   8899 0.37576500  12.010000   ; qtot 252.936786
 8900         ho    309    ccc     H6   8900 0.53656000   1.008000   ; qtot 253.473346
 8901         ho    309    ccc     H7   8901 0.49492100   1.008000   ; qtot 253.968267
 8902         ho    309    ccc     H8   8902 0.51297200   1.008000   ; qtot 254.481239
 8903         h1    309    ccc     H9   8903 0.05653400   1.008000   ; qtot 254.537773
 8904         h1    309    ccc    H10   8904 0.05653400   1.008000   ; qtot 254.594307
 8905         oh    309    ccc     O5   8905 -0.84113600  16.000000   ; qtot 253.753171
 8906         ho    309    ccc    H11   8906 0.51201600   1.008000   ; qtot 254.265187
 8907         os    309    ccc     O6   8907 -0.26013600  16.000000   ; qtot 254.005051
; residue  310 ccc rtp ccc q 0.0
 8908         c3    310    ccc     C1   8908 -0.33178800  12.010000   ; qtot 253.673263
 8909         c3    310    ccc     C2   8909 0.30606500  12.010000   ; qtot 253.979328
 8910         h1    310    ccc     H1   8910 0.11662300   1.008000   ; qtot 254.095951
 8911         h1    310    ccc     H2   8911 0.11526800   1.008000   ; qtot 254.211219
 8912         c3    310    ccc     C3   8912 0.15592700  12.010000   ; qtot 254.367146
 8913         c3    310    ccc     C4   8913 0.28383300  12.010000   ; qtot 254.650979
 8914         c3    310    ccc     C5   8914 0.32403300  12.010000   ; qtot 254.975012
 8915         h1    310    ccc     H3   8915 0.13386900   1.008000   ; qtot 255.108881
 8916         h1    310    ccc     H4   8916 0.10146700   1.008000   ; qtot 255.210348
 8917         h2    310    ccc     H5   8917 0.10960400   1.008000   ; qtot 255.319952
 8918         os    310    ccc     O1   8918 -0.28650000  16.000000   ; qtot 255.033452
 8919         oh    310    ccc     O2   8919 -0.86012500  16.000000   ; qtot 254.173327
 8920         oh    310    ccc     O3   8920 -0.83772800  16.000000   ; qtot 253.335599
 8921         oh    310    ccc     O4   8921 -0.77449700  16.000000   ; qtot 252.561102
 8922         c3    310    ccc     C6   8922 0.37576500  12.010000   ; qtot 252.936867
 8923         ho    310    ccc     H6   8923 0.53656000   1.008000   ; qtot 253.473427
 8924         ho    310    ccc     H7   8924 0.49492100   1.008000   ; qtot 253.968348
 8925         ho    310    ccc     H8   8925 0.51297200   1.008000   ; qtot 254.481320
 8926         h1    310    ccc     H9   8926 0.05653400   1.008000   ; qtot 254.537854
 8927         h1    310    ccc    H10   8927 0.05653400   1.008000   ; qtot 254.594388
 8928         oh    310    ccc     O5   8928 -0.84113600  16.000000   ; qtot 253.753252
 8929         ho    310    ccc    H11   8929 0.51201600   1.008000   ; qtot 254.265268
 8930         os    310    ccc     O6   8930 -0.26013600  16.000000   ; qtot 254.005132
; residue  311 ccc rtp ccc q 0.0
 8931         c3    311    ccc     C1   8931 -0.33178800  12.010000   ; qtot 253.673344
 8932         c3    311    ccc     C2   8932 0.30606500  12.010000   ; qtot 253.979409
 8933         h1    311    ccc     H1   8933 0.11662300   1.008000   ; qtot 254.096032
 8934         h1    311    ccc     H2   8934 0.11526800   1.008000   ; qtot 254.211300
 8935         c3    311    ccc     C3   8935 0.15592700  12.010000   ; qtot 254.367227
 8936         c3    311    ccc     C4   8936 0.28383300  12.010000   ; qtot 254.651060
 8937         c3    311    ccc     C5   8937 0.32403300  12.010000   ; qtot 254.975093
 8938         h1    311    ccc     H3   8938 0.13386900   1.008000   ; qtot 255.108962
 8939         h1    311    ccc     H4   8939 0.10146700   1.008000   ; qtot 255.210429
 8940         h2    311    ccc     H5   8940 0.10960400   1.008000   ; qtot 255.320033
 8941         os    311    ccc     O1   8941 -0.28650000  16.000000   ; qtot 255.033533
 8942         oh    311    ccc     O2   8942 -0.86012500  16.000000   ; qtot 254.173408
 8943         oh    311    ccc     O3   8943 -0.83772800  16.000000   ; qtot 253.335680
 8944         oh    311    ccc     O4   8944 -0.77449700  16.000000   ; qtot 252.561183
 8945         c3    311    ccc     C6   8945 0.37576500  12.010000   ; qtot 252.936948
 8946         ho    311    ccc     H6   8946 0.53656000   1.008000   ; qtot 253.473508
 8947         ho    311    ccc     H7   8947 0.49492100   1.008000   ; qtot 253.968429
 8948         ho    311    ccc     H8   8948 0.51297200   1.008000   ; qtot 254.481401
 8949         h1    311    ccc     H9   8949 0.05653400   1.008000   ; qtot 254.537935
 8950         h1    311    ccc    H10   8950 0.05653400   1.008000   ; qtot 254.594469
 8951         oh    311    ccc     O5   8951 -0.84113600  16.000000   ; qtot 253.753333
 8952         ho    311    ccc    H11   8952 0.51201600   1.008000   ; qtot 254.265349
 8953         os    311    ccc     O6   8953 -0.26013600  16.000000   ; qtot 254.005213
; residue  312 ccc rtp ccc q 0.0
 8954         c3    312    ccc     C1   8954 -0.33178800  12.010000   ; qtot 253.673425
 8955         c3    312    ccc     C2   8955 0.30606500  12.010000   ; qtot 253.979490
 8956         h1    312    ccc     H1   8956 0.11662300   1.008000   ; qtot 254.096113
 8957         h1    312    ccc     H2   8957 0.11526800   1.008000   ; qtot 254.211381
 8958         c3    312    ccc     C3   8958 0.15592700  12.010000   ; qtot 254.367308
 8959         c3    312    ccc     C4   8959 0.28383300  12.010000   ; qtot 254.651141
 8960         c3    312    ccc     C5   8960 0.32403300  12.010000   ; qtot 254.975174
 8961         h1    312    ccc     H3   8961 0.13386900   1.008000   ; qtot 255.109043
 8962         h1    312    ccc     H4   8962 0.10146700   1.008000   ; qtot 255.210510
 8963         h2    312    ccc     H5   8963 0.10960400   1.008000   ; qtot 255.320114
 8964         os    312    ccc     O1   8964 -0.28650000  16.000000   ; qtot 255.033614
 8965         oh    312    ccc     O2   8965 -0.86012500  16.000000   ; qtot 254.173489
 8966         oh    312    ccc     O3   8966 -0.83772800  16.000000   ; qtot 253.335761
 8967         oh    312    ccc     O4   8967 -0.77449700  16.000000   ; qtot 252.561264
 8968         c3    312    ccc     C6   8968 0.37576500  12.010000   ; qtot 252.937029
 8969         ho    312    ccc     H6   8969 0.53656000   1.008000   ; qtot 253.473589
 8970         ho    312    ccc     H7   8970 0.49492100   1.008000   ; qtot 253.968510
 8971         ho    312    ccc     H8   8971 0.51297200   1.008000   ; qtot 254.481482
 8972         h1    312    ccc     H9   8972 0.05653400   1.008000   ; qtot 254.538016
 8973         h1    312    ccc    H10   8973 0.05653400   1.008000   ; qtot 254.594550
 8974         oh    312    ccc     O5   8974 -0.84113600  16.000000   ; qtot 253.753414
 8975         ho    312    ccc    H11   8975 0.51201600   1.008000   ; qtot 254.265430
 8976         os    312    ccc     O6   8976 -0.26013600  16.000000   ; qtot 254.005294
; residue  313 ccc rtp ccc q 0.0
 8977         c3    313    ccc     C1   8977 -0.33178800  12.010000   ; qtot 253.673506
 8978         c3    313    ccc     C2   8978 0.30606500  12.010000   ; qtot 253.979571
 8979         h1    313    ccc     H1   8979 0.11662300   1.008000   ; qtot 254.096194
 8980         h1    313    ccc     H2   8980 0.11526800   1.008000   ; qtot 254.211462
 8981         c3    313    ccc     C3   8981 0.15592700  12.010000   ; qtot 254.367389
 8982         c3    313    ccc     C4   8982 0.28383300  12.010000   ; qtot 254.651222
 8983         c3    313    ccc     C5   8983 0.32403300  12.010000   ; qtot 254.975255
 8984         h1    313    ccc     H3   8984 0.13386900   1.008000   ; qtot 255.109124
 8985         h1    313    ccc     H4   8985 0.10146700   1.008000   ; qtot 255.210591
 8986         h2    313    ccc     H5   8986 0.10960400   1.008000   ; qtot 255.320195
 8987         os    313    ccc     O1   8987 -0.28650000  16.000000   ; qtot 255.033695
 8988         oh    313    ccc     O2   8988 -0.86012500  16.000000   ; qtot 254.173570
 8989         oh    313    ccc     O3   8989 -0.83772800  16.000000   ; qtot 253.335842
 8990         oh    313    ccc     O4   8990 -0.77449700  16.000000   ; qtot 252.561345
 8991         c3    313    ccc     C6   8991 0.37576500  12.010000   ; qtot 252.937110
 8992         ho    313    ccc     H6   8992 0.53656000   1.008000   ; qtot 253.473670
 8993         ho    313    ccc     H7   8993 0.49492100   1.008000   ; qtot 253.968591
 8994         ho    313    ccc     H8   8994 0.51297200   1.008000   ; qtot 254.481563
 8995         h1    313    ccc     H9   8995 0.05653400   1.008000   ; qtot 254.538097
 8996         h1    313    ccc    H10   8996 0.05653400   1.008000   ; qtot 254.594631
 8997         oh    313    ccc     O5   8997 -0.84113600  16.000000   ; qtot 253.753495
 8998         ho    313    ccc    H11   8998 0.51201600   1.008000   ; qtot 254.265511
 8999         os    313    ccc     O6   8999 -0.26013600  16.000000   ; qtot 254.005375
; residue  314 ccc rtp ccc q 0.0
 9000         c3    314    ccc     C1   9000 -0.33178800  12.010000   ; qtot 253.673587
 9001         c3    314    ccc     C2   9001 0.30606500  12.010000   ; qtot 253.979652
 9002         h1    314    ccc     H1   9002 0.11662300   1.008000   ; qtot 254.096275
 9003         h1    314    ccc     H2   9003 0.11526800   1.008000   ; qtot 254.211543
 9004         c3    314    ccc     C3   9004 0.15592700  12.010000   ; qtot 254.367470
 9005         c3    314    ccc     C4   9005 0.28383300  12.010000   ; qtot 254.651303
 9006         c3    314    ccc     C5   9006 0.32403300  12.010000   ; qtot 254.975336
 9007         h1    314    ccc     H3   9007 0.13386900   1.008000   ; qtot 255.109205
 9008         h1    314    ccc     H4   9008 0.10146700   1.008000   ; qtot 255.210672
 9009         h2    314    ccc     H5   9009 0.10960400   1.008000   ; qtot 255.320276
 9010         os    314    ccc     O1   9010 -0.28650000  16.000000   ; qtot 255.033776
 9011         oh    314    ccc     O2   9011 -0.86012500  16.000000   ; qtot 254.173651
 9012         oh    314    ccc     O3   9012 -0.83772800  16.000000   ; qtot 253.335923
 9013         oh    314    ccc     O4   9013 -0.77449700  16.000000   ; qtot 252.561426
 9014         c3    314    ccc     C6   9014 0.37576500  12.010000   ; qtot 252.937191
 9015         ho    314    ccc     H6   9015 0.53656000   1.008000   ; qtot 253.473751
 9016         ho    314    ccc     H7   9016 0.49492100   1.008000   ; qtot 253.968672
 9017         ho    314    ccc     H8   9017 0.51297200   1.008000   ; qtot 254.481644
 9018         h1    314    ccc     H9   9018 0.05653400   1.008000   ; qtot 254.538178
 9019         h1    314    ccc    H10   9019 0.05653400   1.008000   ; qtot 254.594712
 9020         oh    314    ccc     O5   9020 -0.84113600  16.000000   ; qtot 253.753576
 9021         ho    314    ccc    H11   9021 0.51201600   1.008000   ; qtot 254.265592
 9022         os    314    ccc     O6   9022 -0.26013600  16.000000   ; qtot 254.005456
; residue  315 ccc rtp ccc q 0.0
 9023         c3    315    ccc     C1   9023 -0.33178800  12.010000   ; qtot 253.673668
 9024         c3    315    ccc     C2   9024 0.30606500  12.010000   ; qtot 253.979733
 9025         h1    315    ccc     H1   9025 0.11662300   1.008000   ; qtot 254.096356
 9026         h1    315    ccc     H2   9026 0.11526800   1.008000   ; qtot 254.211624
 9027         c3    315    ccc     C3   9027 0.15592700  12.010000   ; qtot 254.367551
 9028         c3    315    ccc     C4   9028 0.28383300  12.010000   ; qtot 254.651384
 9029         c3    315    ccc     C5   9029 0.32403300  12.010000   ; qtot 254.975417
 9030         h1    315    ccc     H3   9030 0.13386900   1.008000   ; qtot 255.109286
 9031         h1    315    ccc     H4   9031 0.10146700   1.008000   ; qtot 255.210753
 9032         h2    315    ccc     H5   9032 0.10960400   1.008000   ; qtot 255.320357
 9033         os    315    ccc     O1   9033 -0.28650000  16.000000   ; qtot 255.033857
 9034         oh    315    ccc     O2   9034 -0.86012500  16.000000   ; qtot 254.173732
 9035         oh    315    ccc     O3   9035 -0.83772800  16.000000   ; qtot 253.336004
 9036         oh    315    ccc     O4   9036 -0.77449700  16.000000   ; qtot 252.561507
 9037         c3    315    ccc     C6   9037 0.37576500  12.010000   ; qtot 252.937272
 9038         ho    315    ccc     H6   9038 0.53656000   1.008000   ; qtot 253.473832
 9039         ho    315    ccc     H7   9039 0.49492100   1.008000   ; qtot 253.968753
 9040         ho    315    ccc     H8   9040 0.51297200   1.008000   ; qtot 254.481725
 9041         h1    315    ccc     H9   9041 0.05653400   1.008000   ; qtot 254.538259
 9042         h1    315    ccc    H10   9042 0.05653400   1.008000   ; qtot 254.594793
 9043         oh    315    ccc     O5   9043 -0.84113600  16.000000   ; qtot 253.753657
 9044         ho    315    ccc    H11   9044 0.51201600   1.008000   ; qtot 254.265673
 9045         os    315    ccc     O6   9045 -0.26013600  16.000000   ; qtot 254.005537
; residue  316 ccc rtp ccc q 0.0
 9046         c3    316    ccc     C1   9046 -0.33178800  12.010000   ; qtot 253.673749
 9047         c3    316    ccc     C2   9047 0.30606500  12.010000   ; qtot 253.979814
 9048         h1    316    ccc     H1   9048 0.11662300   1.008000   ; qtot 254.096437
 9049         h1    316    ccc     H2   9049 0.11526800   1.008000   ; qtot 254.211705
 9050         c3    316    ccc     C3   9050 0.15592700  12.010000   ; qtot 254.367632
 9051         c3    316    ccc     C4   9051 0.28383300  12.010000   ; qtot 254.651465
 9052         c3    316    ccc     C5   9052 0.32403300  12.010000   ; qtot 254.975498
 9053         h1    316    ccc     H3   9053 0.13386900   1.008000   ; qtot 255.109367
 9054         h1    316    ccc     H4   9054 0.10146700   1.008000   ; qtot 255.210834
 9055         h2    316    ccc     H5   9055 0.10960400   1.008000   ; qtot 255.320438
 9056         os    316    ccc     O1   9056 -0.28650000  16.000000   ; qtot 255.033938
 9057         oh    316    ccc     O2   9057 -0.86012500  16.000000   ; qtot 254.173813
 9058         oh    316    ccc     O3   9058 -0.83772800  16.000000   ; qtot 253.336085
 9059         oh    316    ccc     O4   9059 -0.77449700  16.000000   ; qtot 252.561588
 9060         c3    316    ccc     C6   9060 0.37576500  12.010000   ; qtot 252.937353
 9061         ho    316    ccc     H6   9061 0.53656000   1.008000   ; qtot 253.473913
 9062         ho    316    ccc     H7   9062 0.49492100   1.008000   ; qtot 253.968834
 9063         ho    316    ccc     H8   9063 0.51297200   1.008000   ; qtot 254.481806
 9064         h1    316    ccc     H9   9064 0.05653400   1.008000   ; qtot 254.538340
 9065         h1    316    ccc    H10   9065 0.05653400   1.008000   ; qtot 254.594874
 9066         oh    316    ccc     O5   9066 -0.84113600  16.000000   ; qtot 253.753738
 9067         ho    316    ccc    H11   9067 0.51201600   1.008000   ; qtot 254.265754
 9068         os    316    ccc     O6   9068 -0.26013600  16.000000   ; qtot 254.005618
; residue  317 ccc rtp ccc q 0.0
 9069         c3    317    ccc     C1   9069 -0.33178800  12.010000   ; qtot 253.673830
 9070         c3    317    ccc     C2   9070 0.30606500  12.010000   ; qtot 253.979895
 9071         h1    317    ccc     H1   9071 0.11662300   1.008000   ; qtot 254.096518
 9072         h1    317    ccc     H2   9072 0.11526800   1.008000   ; qtot 254.211786
 9073         c3    317    ccc     C3   9073 0.15592700  12.010000   ; qtot 254.367713
 9074         c3    317    ccc     C4   9074 0.28383300  12.010000   ; qtot 254.651546
 9075         c3    317    ccc     C5   9075 0.32403300  12.010000   ; qtot 254.975579
 9076         h1    317    ccc     H3   9076 0.13386900   1.008000   ; qtot 255.109448
 9077         h1    317    ccc     H4   9077 0.10146700   1.008000   ; qtot 255.210915
 9078         h2    317    ccc     H5   9078 0.10960400   1.008000   ; qtot 255.320519
 9079         os    317    ccc     O1   9079 -0.28650000  16.000000   ; qtot 255.034019
 9080         oh    317    ccc     O2   9080 -0.86012500  16.000000   ; qtot 254.173894
 9081         oh    317    ccc     O3   9081 -0.83772800  16.000000   ; qtot 253.336166
 9082         oh    317    ccc     O4   9082 -0.77449700  16.000000   ; qtot 252.561669
 9083         c3    317    ccc     C6   9083 0.37576500  12.010000   ; qtot 252.937434
 9084         ho    317    ccc     H6   9084 0.53656000   1.008000   ; qtot 253.473994
 9085         ho    317    ccc     H7   9085 0.49492100   1.008000   ; qtot 253.968915
 9086         ho    317    ccc     H8   9086 0.51297200   1.008000   ; qtot 254.481887
 9087         h1    317    ccc     H9   9087 0.05653400   1.008000   ; qtot 254.538421
 9088         h1    317    ccc    H10   9088 0.05653400   1.008000   ; qtot 254.594955
 9089         oh    317    ccc     O5   9089 -0.84113600  16.000000   ; qtot 253.753819
 9090         ho    317    ccc    H11   9090 0.51201600   1.008000   ; qtot 254.265835
 9091         os    317    ccc     O6   9091 -0.26013600  16.000000   ; qtot 254.005699
; residue  318 ccc rtp ccc q 0.0
 9092         c3    318    ccc     C1   9092 -0.33178800  12.010000   ; qtot 253.673911
 9093         c3    318    ccc     C2   9093 0.30606500  12.010000   ; qtot 253.979976
 9094         h1    318    ccc     H1   9094 0.11662300   1.008000   ; qtot 254.096599
 9095         h1    318    ccc     H2   9095 0.11526800   1.008000   ; qtot 254.211867
 9096         c3    318    ccc     C3   9096 0.15592700  12.010000   ; qtot 254.367794
 9097         c3    318    ccc     C4   9097 0.28383300  12.010000   ; qtot 254.651627
 9098         c3    318    ccc     C5   9098 0.32403300  12.010000   ; qtot 254.975660
 9099         h1    318    ccc     H3   9099 0.13386900   1.008000   ; qtot 255.109529
 9100         h1    318    ccc     H4   9100 0.10146700   1.008000   ; qtot 255.210996
 9101         h2    318    ccc     H5   9101 0.10960400   1.008000   ; qtot 255.320600
 9102         os    318    ccc     O1   9102 -0.28650000  16.000000   ; qtot 255.034100
 9103         oh    318    ccc     O2   9103 -0.86012500  16.000000   ; qtot 254.173975
 9104         oh    318    ccc     O3   9104 -0.83772800  16.000000   ; qtot 253.336247
 9105         oh    318    ccc     O4   9105 -0.77449700  16.000000   ; qtot 252.561750
 9106         c3    318    ccc     C6   9106 0.37576500  12.010000   ; qtot 252.937515
 9107         ho    318    ccc     H6   9107 0.53656000   1.008000   ; qtot 253.474075
 9108         ho    318    ccc     H7   9108 0.49492100   1.008000   ; qtot 253.968996
 9109         ho    318    ccc     H8   9109 0.51297200   1.008000   ; qtot 254.481968
 9110         h1    318    ccc     H9   9110 0.05653400   1.008000   ; qtot 254.538502
 9111         h1    318    ccc    H10   9111 0.05653400   1.008000   ; qtot 254.595036
 9112         oh    318    ccc     O5   9112 -0.84113600  16.000000   ; qtot 253.753900
 9113         ho    318    ccc    H11   9113 0.51201600   1.008000   ; qtot 254.265916
 9114         os    318    ccc     O6   9114 -0.26013600  16.000000   ; qtot 254.005780
; residue  319 ccc rtp ccc q 0.0
 9115         c3    319    ccc     C1   9115 -0.33178800  12.010000   ; qtot 253.673992
 9116         c3    319    ccc     C2   9116 0.30606500  12.010000   ; qtot 253.980057
 9117         h1    319    ccc     H1   9117 0.11662300   1.008000   ; qtot 254.096680
 9118         h1    319    ccc     H2   9118 0.11526800   1.008000   ; qtot 254.211948
 9119         c3    319    ccc     C3   9119 0.15592700  12.010000   ; qtot 254.367875
 9120         c3    319    ccc     C4   9120 0.28383300  12.010000   ; qtot 254.651708
 9121         c3    319    ccc     C5   9121 0.32403300  12.010000   ; qtot 254.975741
 9122         h1    319    ccc     H3   9122 0.13386900   1.008000   ; qtot 255.109610
 9123         h1    319    ccc     H4   9123 0.10146700   1.008000   ; qtot 255.211077
 9124         h2    319    ccc     H5   9124 0.10960400   1.008000   ; qtot 255.320681
 9125         os    319    ccc     O1   9125 -0.28650000  16.000000   ; qtot 255.034181
 9126         oh    319    ccc     O2   9126 -0.86012500  16.000000   ; qtot 254.174056
 9127         oh    319    ccc     O3   9127 -0.83772800  16.000000   ; qtot 253.336328
 9128         oh    319    ccc     O4   9128 -0.77449700  16.000000   ; qtot 252.561831
 9129         c3    319    ccc     C6   9129 0.37576500  12.010000   ; qtot 252.937596
 9130         ho    319    ccc     H6   9130 0.53656000   1.008000   ; qtot 253.474156
 9131         ho    319    ccc     H7   9131 0.49492100   1.008000   ; qtot 253.969077
 9132         ho    319    ccc     H8   9132 0.51297200   1.008000   ; qtot 254.482049
 9133         h1    319    ccc     H9   9133 0.05653400   1.008000   ; qtot 254.538583
 9134         h1    319    ccc    H10   9134 0.05653400   1.008000   ; qtot 254.595117
 9135         oh    319    ccc     O5   9135 -0.84113600  16.000000   ; qtot 253.753981
 9136         ho    319    ccc    H11   9136 0.51201600   1.008000   ; qtot 254.265997
 9137         os    319    ccc     O6   9137 -0.26013600  16.000000   ; qtot 254.005861
; residue  320 ccc rtp ccc q 0.0
 9138         c3    320    ccc     C1   9138 -0.33178800  12.010000   ; qtot 253.674073
 9139         c3    320    ccc     C2   9139 0.30606500  12.010000   ; qtot 253.980138
 9140         h1    320    ccc     H1   9140 0.11662300   1.008000   ; qtot 254.096761
 9141         h1    320    ccc     H2   9141 0.11526800   1.008000   ; qtot 254.212029
 9142         c3    320    ccc     C3   9142 0.15592700  12.010000   ; qtot 254.367956
 9143         c3    320    ccc     C4   9143 0.28383300  12.010000   ; qtot 254.651789
 9144         c3    320    ccc     C5   9144 0.32403300  12.010000   ; qtot 254.975822
 9145         h1    320    ccc     H3   9145 0.13386900   1.008000   ; qtot 255.109691
 9146         h1    320    ccc     H4   9146 0.10146700   1.008000   ; qtot 255.211158
 9147         h2    320    ccc     H5   9147 0.10960400   1.008000   ; qtot 255.320762
 9148         os    320    ccc     O1   9148 -0.28650000  16.000000   ; qtot 255.034262
 9149         oh    320    ccc     O2   9149 -0.86012500  16.000000   ; qtot 254.174137
 9150         oh    320    ccc     O3   9150 -0.83772800  16.000000   ; qtot 253.336409
 9151         oh    320    ccc     O4   9151 -0.77449700  16.000000   ; qtot 252.561912
 9152         c3    320    ccc     C6   9152 0.37576500  12.010000   ; qtot 252.937677
 9153         ho    320    ccc     H6   9153 0.53656000   1.008000   ; qtot 253.474237
 9154         ho    320    ccc     H7   9154 0.49492100   1.008000   ; qtot 253.969158
 9155         ho    320    ccc     H8   9155 0.51297200   1.008000   ; qtot 254.482130
 9156         h1    320    ccc     H9   9156 0.05653400   1.008000   ; qtot 254.538664
 9157         h1    320    ccc    H10   9157 0.05653400   1.008000   ; qtot 254.595198
 9158         oh    320    ccc     O5   9158 -0.84113600  16.000000   ; qtot 253.754062
 9159         ho    320    ccc    H11   9159 0.51201600   1.008000   ; qtot 254.266078
 9160         os    320    ccc     O6   9160 -0.26013600  16.000000   ; qtot 254.005942
; residue  321 ccc rtp ccc q 0.0
 9161         c3    321    ccc     C1   9161 -0.33178800  12.010000   ; qtot 253.674154
 9162         c3    321    ccc     C2   9162 0.30606500  12.010000   ; qtot 253.980219
 9163         h1    321    ccc     H1   9163 0.11662300   1.008000   ; qtot 254.096842
 9164         h1    321    ccc     H2   9164 0.11526800   1.008000   ; qtot 254.212110
 9165         c3    321    ccc     C3   9165 0.15592700  12.010000   ; qtot 254.368037
 9166         c3    321    ccc     C4   9166 0.28383300  12.010000   ; qtot 254.651870
 9167         c3    321    ccc     C5   9167 0.32403300  12.010000   ; qtot 254.975903
 9168         h1    321    ccc     H3   9168 0.13386900   1.008000   ; qtot 255.109772
 9169         h1    321    ccc     H4   9169 0.10146700   1.008000   ; qtot 255.211239
 9170         h2    321    ccc     H5   9170 0.10960400   1.008000   ; qtot 255.320843
 9171         os    321    ccc     O1   9171 -0.28650000  16.000000   ; qtot 255.034343
 9172         oh    321    ccc     O2   9172 -0.86012500  16.000000   ; qtot 254.174218
 9173         oh    321    ccc     O3   9173 -0.83772800  16.000000   ; qtot 253.336490
 9174         oh    321    ccc     O4   9174 -0.77449700  16.000000   ; qtot 252.561993
 9175         c3    321    ccc     C6   9175 0.37576500  12.010000   ; qtot 252.937758
 9176         ho    321    ccc     H6   9176 0.53656000   1.008000   ; qtot 253.474318
 9177         ho    321    ccc     H7   9177 0.49492100   1.008000   ; qtot 253.969239
 9178         ho    321    ccc     H8   9178 0.51297200   1.008000   ; qtot 254.482211
 9179         h1    321    ccc     H9   9179 0.05653400   1.008000   ; qtot 254.538745
 9180         h1    321    ccc    H10   9180 0.05653400   1.008000   ; qtot 254.595279
 9181         oh    321    ccc     O5   9181 -0.84113600  16.000000   ; qtot 253.754143
 9182         ho    321    ccc    H11   9182 0.51201600   1.008000   ; qtot 254.266159
 9183         os    321    ccc     O6   9183 -0.26013600  16.000000   ; qtot 254.006023
; residue  322 ccc rtp ccc q 0.0
 9184         c3    322    ccc     C1   9184 -0.33178800  12.010000   ; qtot 253.674235
 9185         c3    322    ccc     C2   9185 0.30606500  12.010000   ; qtot 253.980300
 9186         h1    322    ccc     H1   9186 0.11662300   1.008000   ; qtot 254.096923
 9187         h1    322    ccc     H2   9187 0.11526800   1.008000   ; qtot 254.212191
 9188         c3    322    ccc     C3   9188 0.15592700  12.010000   ; qtot 254.368118
 9189         c3    322    ccc     C4   9189 0.28383300  12.010000   ; qtot 254.651951
 9190         c3    322    ccc     C5   9190 0.32403300  12.010000   ; qtot 254.975984
 9191         h1    322    ccc     H3   9191 0.13386900   1.008000   ; qtot 255.109853
 9192         h1    322    ccc     H4   9192 0.10146700   1.008000   ; qtot 255.211320
 9193         h2    322    ccc     H5   9193 0.10960400   1.008000   ; qtot 255.320924
 9194         os    322    ccc     O1   9194 -0.28650000  16.000000   ; qtot 255.034424
 9195         oh    322    ccc     O2   9195 -0.86012500  16.000000   ; qtot 254.174299
 9196         oh    322    ccc     O3   9196 -0.83772800  16.000000   ; qtot 253.336571
 9197         oh    322    ccc     O4   9197 -0.77449700  16.000000   ; qtot 252.562074
 9198         c3    322    ccc     C6   9198 0.37576500  12.010000   ; qtot 252.937839
 9199         ho    322    ccc     H6   9199 0.53656000   1.008000   ; qtot 253.474399
 9200         ho    322    ccc     H7   9200 0.49492100   1.008000   ; qtot 253.969320
 9201         ho    322    ccc     H8   9201 0.51297200   1.008000   ; qtot 254.482292
 9202         h1    322    ccc     H9   9202 0.05653400   1.008000   ; qtot 254.538826
 9203         h1    322    ccc    H10   9203 0.05653400   1.008000   ; qtot 254.595360
 9204         oh    322    ccc     O5   9204 -0.84113600  16.000000   ; qtot 253.754224
 9205         ho    322    ccc    H11   9205 0.51201600   1.008000   ; qtot 254.266240
 9206         os    322    ccc     O6   9206 -0.26013600  16.000000   ; qtot 254.006104
; residue  323 ccc rtp ccc q 0.0
 9207         c3    323    ccc     C1   9207 -0.33178800  12.010000   ; qtot 253.674317
 9208         c3    323    ccc     C2   9208 0.30606500  12.010000   ; qtot 253.980382
 9209         h1    323    ccc     H1   9209 0.11662300   1.008000   ; qtot 254.097004
 9210         h1    323    ccc     H2   9210 0.11526800   1.008000   ; qtot 254.212273
 9211         c3    323    ccc     C3   9211 0.15592700  12.010000   ; qtot 254.368200
 9212         c3    323    ccc     C4   9212 0.28383300  12.010000   ; qtot 254.652033
 9213         c3    323    ccc     C5   9213 0.32403300  12.010000   ; qtot 254.976066
 9214         h1    323    ccc     H3   9214 0.13386900   1.008000   ; qtot 255.109935
 9215         h1    323    ccc     H4   9215 0.10146700   1.008000   ; qtot 255.211402
 9216         h2    323    ccc     H5   9216 0.10960400   1.008000   ; qtot 255.321006
 9217         os    323    ccc     O1   9217 -0.28650000  16.000000   ; qtot 255.034506
 9218         oh    323    ccc     O2   9218 -0.86012500  16.000000   ; qtot 254.174380
 9219         oh    323    ccc     O3   9219 -0.83772800  16.000000   ; qtot 253.336653
 9220         oh    323    ccc     O4   9220 -0.77449700  16.000000   ; qtot 252.562156
 9221         c3    323    ccc     C6   9221 0.37576500  12.010000   ; qtot 252.937921
 9222         ho    323    ccc     H6   9222 0.53656000   1.008000   ; qtot 253.474481
 9223         ho    323    ccc     H7   9223 0.49492100   1.008000   ; qtot 253.969402
 9224         ho    323    ccc     H8   9224 0.51297200   1.008000   ; qtot 254.482374
 9225         h1    323    ccc     H9   9225 0.05653400   1.008000   ; qtot 254.538908
 9226         h1    323    ccc    H10   9226 0.05653400   1.008000   ; qtot 254.595442
 9227         oh    323    ccc     O5   9227 -0.84113600  16.000000   ; qtot 253.754306
 9228         ho    323    ccc    H11   9228 0.51201600   1.008000   ; qtot 254.266322
 9229         os    323    ccc     O6   9229 -0.26013600  16.000000   ; qtot 254.006186
; residue  324 ccc rtp ccc q 0.0
 9230         c3    324    ccc     C1   9230 -0.33178800  12.010000   ; qtot 253.674398
 9231         c3    324    ccc     C2   9231 0.30606500  12.010000   ; qtot 253.980463
 9232         h1    324    ccc     H1   9232 0.11662300   1.008000   ; qtot 254.097086
 9233         h1    324    ccc     H2   9233 0.11526800   1.008000   ; qtot 254.212354
 9234         c3    324    ccc     C3   9234 0.15592700  12.010000   ; qtot 254.368281
 9235         c3    324    ccc     C4   9235 0.28383300  12.010000   ; qtot 254.652114
 9236         c3    324    ccc     C5   9236 0.32403300  12.010000   ; qtot 254.976147
 9237         h1    324    ccc     H3   9237 0.13386900   1.008000   ; qtot 255.110016
 9238         h1    324    ccc     H4   9238 0.10146700   1.008000   ; qtot 255.211483
 9239         h2    324    ccc     H5   9239 0.10960400   1.008000   ; qtot 255.321087
 9240         os    324    ccc     O1   9240 -0.28650000  16.000000   ; qtot 255.034587
 9241         oh    324    ccc     O2   9241 -0.86012500  16.000000   ; qtot 254.174462
 9242         oh    324    ccc     O3   9242 -0.83772800  16.000000   ; qtot 253.336734
 9243         oh    324    ccc     O4   9243 -0.77449700  16.000000   ; qtot 252.562237
 9244         c3    324    ccc     C6   9244 0.37576500  12.010000   ; qtot 252.938002
 9245         ho    324    ccc     H6   9245 0.53656000   1.008000   ; qtot 253.474562
 9246         ho    324    ccc     H7   9246 0.49492100   1.008000   ; qtot 253.969483
 9247         ho    324    ccc     H8   9247 0.51297200   1.008000   ; qtot 254.482455
 9248         h1    324    ccc     H9   9248 0.05653400   1.008000   ; qtot 254.538989
 9249         h1    324    ccc    H10   9249 0.05653400   1.008000   ; qtot 254.595523
 9250         oh    324    ccc     O5   9250 -0.84113600  16.000000   ; qtot 253.754387
 9251         ho    324    ccc    H11   9251 0.51201600   1.008000   ; qtot 254.266403
 9252         os    324    ccc     O6   9252 -0.26013600  16.000000   ; qtot 254.006267
; residue  325 ccc rtp ccc q 0.0
 9253         c3    325    ccc     C1   9253 -0.33178800  12.010000   ; qtot 253.674479
 9254         c3    325    ccc     C2   9254 0.30606500  12.010000   ; qtot 253.980544
 9255         h1    325    ccc     H1   9255 0.11662300   1.008000   ; qtot 254.097167
 9256         h1    325    ccc     H2   9256 0.11526800   1.008000   ; qtot 254.212435
 9257         c3    325    ccc     C3   9257 0.15592700  12.010000   ; qtot 254.368362
 9258         c3    325    ccc     C4   9258 0.28383300  12.010000   ; qtot 254.652195
 9259         c3    325    ccc     C5   9259 0.32403300  12.010000   ; qtot 254.976228
 9260         h1    325    ccc     H3   9260 0.13386900   1.008000   ; qtot 255.110097
 9261         h1    325    ccc     H4   9261 0.10146700   1.008000   ; qtot 255.211564
 9262         h2    325    ccc     H5   9262 0.10960400   1.008000   ; qtot 255.321168
 9263         os    325    ccc     O1   9263 -0.28650000  16.000000   ; qtot 255.034668
 9264         oh    325    ccc     O2   9264 -0.86012500  16.000000   ; qtot 254.174543
 9265         oh    325    ccc     O3   9265 -0.83772800  16.000000   ; qtot 253.336815
 9266         oh    325    ccc     O4   9266 -0.77449700  16.000000   ; qtot 252.562318
 9267         c3    325    ccc     C6   9267 0.37576500  12.010000   ; qtot 252.938083
 9268         ho    325    ccc     H6   9268 0.53656000   1.008000   ; qtot 253.474643
 9269         ho    325    ccc     H7   9269 0.49492100   1.008000   ; qtot 253.969564
 9270         ho    325    ccc     H8   9270 0.51297200   1.008000   ; qtot 254.482536
 9271         h1    325    ccc     H9   9271 0.05653400   1.008000   ; qtot 254.539070
 9272         h1    325    ccc    H10   9272 0.05653400   1.008000   ; qtot 254.595604
 9273         oh    325    ccc     O5   9273 -0.84113600  16.000000   ; qtot 253.754468
 9274         ho    325    ccc    H11   9274 0.51201600   1.008000   ; qtot 254.266484
 9275         os    325    ccc     O6   9275 -0.26013600  16.000000   ; qtot 254.006348
; residue  326 ccc rtp ccc q 0.0
 9276         c3    326    ccc     C1   9276 -0.33178800  12.010000   ; qtot 253.674560
 9277         c3    326    ccc     C2   9277 0.30606500  12.010000   ; qtot 253.980625
 9278         h1    326    ccc     H1   9278 0.11662300   1.008000   ; qtot 254.097248
 9279         h1    326    ccc     H2   9279 0.11526800   1.008000   ; qtot 254.212516
 9280         c3    326    ccc     C3   9280 0.15592700  12.010000   ; qtot 254.368443
 9281         c3    326    ccc     C4   9281 0.28383300  12.010000   ; qtot 254.652276
 9282         c3    326    ccc     C5   9282 0.32403300  12.010000   ; qtot 254.976309
 9283         h1    326    ccc     H3   9283 0.13386900   1.008000   ; qtot 255.110178
 9284         h1    326    ccc     H4   9284 0.10146700   1.008000   ; qtot 255.211645
 9285         h2    326    ccc     H5   9285 0.10960400   1.008000   ; qtot 255.321249
 9286         os    326    ccc     O1   9286 -0.28650000  16.000000   ; qtot 255.034749
 9287         oh    326    ccc     O2   9287 -0.86012500  16.000000   ; qtot 254.174624
 9288         oh    326    ccc     O3   9288 -0.83772800  16.000000   ; qtot 253.336896
 9289         oh    326    ccc     O4   9289 -0.77449700  16.000000   ; qtot 252.562399
 9290         c3    326    ccc     C6   9290 0.37576500  12.010000   ; qtot 252.938164
 9291         ho    326    ccc     H6   9291 0.53656000   1.008000   ; qtot 253.474724
 9292         ho    326    ccc     H7   9292 0.49492100   1.008000   ; qtot 253.969645
 9293         ho    326    ccc     H8   9293 0.51297200   1.008000   ; qtot 254.482617
 9294         h1    326    ccc     H9   9294 0.05653400   1.008000   ; qtot 254.539151
 9295         h1    326    ccc    H10   9295 0.05653400   1.008000   ; qtot 254.595685
 9296         oh    326    ccc     O5   9296 -0.84113600  16.000000   ; qtot 253.754549
 9297         ho    326    ccc    H11   9297 0.51201600   1.008000   ; qtot 254.266565
 9298         os    326    ccc     O6   9298 -0.26013600  16.000000   ; qtot 254.006429
; residue  327 ccc rtp ccc q 0.0
 9299         c3    327    ccc     C1   9299 -0.33178800  12.010000   ; qtot 253.674641
 9300         c3    327    ccc     C2   9300 0.30606500  12.010000   ; qtot 253.980706
 9301         h1    327    ccc     H1   9301 0.11662300   1.008000   ; qtot 254.097329
 9302         h1    327    ccc     H2   9302 0.11526800   1.008000   ; qtot 254.212597
 9303         c3    327    ccc     C3   9303 0.15592700  12.010000   ; qtot 254.368524
 9304         c3    327    ccc     C4   9304 0.28383300  12.010000   ; qtot 254.652357
 9305         c3    327    ccc     C5   9305 0.32403300  12.010000   ; qtot 254.976390
 9306         h1    327    ccc     H3   9306 0.13386900   1.008000   ; qtot 255.110259
 9307         h1    327    ccc     H4   9307 0.10146700   1.008000   ; qtot 255.211726
 9308         h2    327    ccc     H5   9308 0.10960400   1.008000   ; qtot 255.321330
 9309         os    327    ccc     O1   9309 -0.28650000  16.000000   ; qtot 255.034830
 9310         oh    327    ccc     O2   9310 -0.86012500  16.000000   ; qtot 254.174705
 9311         oh    327    ccc     O3   9311 -0.83772800  16.000000   ; qtot 253.336977
 9312         oh    327    ccc     O4   9312 -0.77449700  16.000000   ; qtot 252.562480
 9313         c3    327    ccc     C6   9313 0.37576500  12.010000   ; qtot 252.938245
 9314         ho    327    ccc     H6   9314 0.53656000   1.008000   ; qtot 253.474805
 9315         ho    327    ccc     H7   9315 0.49492100   1.008000   ; qtot 253.969726
 9316         ho    327    ccc     H8   9316 0.51297200   1.008000   ; qtot 254.482698
 9317         h1    327    ccc     H9   9317 0.05653400   1.008000   ; qtot 254.539232
 9318         h1    327    ccc    H10   9318 0.05653400   1.008000   ; qtot 254.595766
 9319         oh    327    ccc     O5   9319 -0.84113600  16.000000   ; qtot 253.754630
 9320         ho    327    ccc    H11   9320 0.51201600   1.008000   ; qtot 254.266646
 9321         os    327    ccc     O6   9321 -0.26013600  16.000000   ; qtot 254.006510
; residue  328 ccc rtp ccc q 0.0
 9322         c3    328    ccc     C1   9322 -0.33178800  12.010000   ; qtot 253.674722
 9323         c3    328    ccc     C2   9323 0.30606500  12.010000   ; qtot 253.980787
 9324         h1    328    ccc     H1   9324 0.11662300   1.008000   ; qtot 254.097410
 9325         h1    328    ccc     H2   9325 0.11526800   1.008000   ; qtot 254.212678
 9326         c3    328    ccc     C3   9326 0.15592700  12.010000   ; qtot 254.368605
 9327         c3    328    ccc     C4   9327 0.28383300  12.010000   ; qtot 254.652438
 9328         c3    328    ccc     C5   9328 0.32403300  12.010000   ; qtot 254.976471
 9329         h1    328    ccc     H3   9329 0.13386900   1.008000   ; qtot 255.110340
 9330         h1    328    ccc     H4   9330 0.10146700   1.008000   ; qtot 255.211807
 9331         h2    328    ccc     H5   9331 0.10960400   1.008000   ; qtot 255.321411
 9332         os    328    ccc     O1   9332 -0.28650000  16.000000   ; qtot 255.034911
 9333         oh    328    ccc     O2   9333 -0.86012500  16.000000   ; qtot 254.174786
 9334         oh    328    ccc     O3   9334 -0.83772800  16.000000   ; qtot 253.337058
 9335         oh    328    ccc     O4   9335 -0.77449700  16.000000   ; qtot 252.562561
 9336         c3    328    ccc     C6   9336 0.37576500  12.010000   ; qtot 252.938326
 9337         ho    328    ccc     H6   9337 0.53656000   1.008000   ; qtot 253.474886
 9338         ho    328    ccc     H7   9338 0.49492100   1.008000   ; qtot 253.969807
 9339         ho    328    ccc     H8   9339 0.51297200   1.008000   ; qtot 254.482779
 9340         h1    328    ccc     H9   9340 0.05653400   1.008000   ; qtot 254.539313
 9341         h1    328    ccc    H10   9341 0.05653400   1.008000   ; qtot 254.595847
 9342         oh    328    ccc     O5   9342 -0.84113600  16.000000   ; qtot 253.754711
 9343         ho    328    ccc    H11   9343 0.51201600   1.008000   ; qtot 254.266727
 9344         os    328    ccc     O6   9344 -0.26013600  16.000000   ; qtot 254.006591
; residue  329 ccc rtp ccc q 0.0
 9345         c3    329    ccc     C1   9345 -0.33178800  12.010000   ; qtot 253.674803
 9346         c3    329    ccc     C2   9346 0.30606500  12.010000   ; qtot 253.980868
 9347         h1    329    ccc     H1   9347 0.11662300   1.008000   ; qtot 254.097491
 9348         h1    329    ccc     H2   9348 0.11526800   1.008000   ; qtot 254.212759
 9349         c3    329    ccc     C3   9349 0.15592700  12.010000   ; qtot 254.368686
 9350         c3    329    ccc     C4   9350 0.28383300  12.010000   ; qtot 254.652519
 9351         c3    329    ccc     C5   9351 0.32403300  12.010000   ; qtot 254.976552
 9352         h1    329    ccc     H3   9352 0.13386900   1.008000   ; qtot 255.110421
 9353         h1    329    ccc     H4   9353 0.10146700   1.008000   ; qtot 255.211888
 9354         h2    329    ccc     H5   9354 0.10960400   1.008000   ; qtot 255.321492
 9355         os    329    ccc     O1   9355 -0.28650000  16.000000   ; qtot 255.034992
 9356         oh    329    ccc     O2   9356 -0.86012500  16.000000   ; qtot 254.174867
 9357         oh    329    ccc     O3   9357 -0.83772800  16.000000   ; qtot 253.337139
 9358         oh    329    ccc     O4   9358 -0.77449700  16.000000   ; qtot 252.562642
 9359         c3    329    ccc     C6   9359 0.37576500  12.010000   ; qtot 252.938407
 9360         ho    329    ccc     H6   9360 0.53656000   1.008000   ; qtot 253.474967
 9361         ho    329    ccc     H7   9361 0.49492100   1.008000   ; qtot 253.969888
 9362         ho    329    ccc     H8   9362 0.51297200   1.008000   ; qtot 254.482860
 9363         h1    329    ccc     H9   9363 0.05653400   1.008000   ; qtot 254.539394
 9364         h1    329    ccc    H10   9364 0.05653400   1.008000   ; qtot 254.595928
 9365         oh    329    ccc     O5   9365 -0.84113600  16.000000   ; qtot 253.754792
 9366         ho    329    ccc    H11   9366 0.51201600   1.008000   ; qtot 254.266808
 9367         os    329    ccc     O6   9367 -0.26013600  16.000000   ; qtot 254.006672
; residue  330 ccc rtp ccc q 0.0
 9368         c3    330    ccc     C1   9368 -0.33178800  12.010000   ; qtot 253.674884
 9369         c3    330    ccc     C2   9369 0.30606500  12.010000   ; qtot 253.980949
 9370         h1    330    ccc     H1   9370 0.11662300   1.008000   ; qtot 254.097572
 9371         h1    330    ccc     H2   9371 0.11526800   1.008000   ; qtot 254.212840
 9372         c3    330    ccc     C3   9372 0.15592700  12.010000   ; qtot 254.368767
 9373         c3    330    ccc     C4   9373 0.28383300  12.010000   ; qtot 254.652600
 9374         c3    330    ccc     C5   9374 0.32403300  12.010000   ; qtot 254.976633
 9375         h1    330    ccc     H3   9375 0.13386900   1.008000   ; qtot 255.110502
 9376         h1    330    ccc     H4   9376 0.10146700   1.008000   ; qtot 255.211969
 9377         h2    330    ccc     H5   9377 0.10960400   1.008000   ; qtot 255.321573
 9378         os    330    ccc     O1   9378 -0.28650000  16.000000   ; qtot 255.035073
 9379         oh    330    ccc     O2   9379 -0.86012500  16.000000   ; qtot 254.174948
 9380         oh    330    ccc     O3   9380 -0.83772800  16.000000   ; qtot 253.337220
 9381         oh    330    ccc     O4   9381 -0.77449700  16.000000   ; qtot 252.562723
 9382         c3    330    ccc     C6   9382 0.37576500  12.010000   ; qtot 252.938488
 9383         ho    330    ccc     H6   9383 0.53656000   1.008000   ; qtot 253.475048
 9384         ho    330    ccc     H7   9384 0.49492100   1.008000   ; qtot 253.969969
 9385         ho    330    ccc     H8   9385 0.51297200   1.008000   ; qtot 254.482941
 9386         h1    330    ccc     H9   9386 0.05653400   1.008000   ; qtot 254.539475
 9387         h1    330    ccc    H10   9387 0.05653400   1.008000   ; qtot 254.596009
 9388         oh    330    ccc     O5   9388 -0.84113600  16.000000   ; qtot 253.754873
 9389         ho    330    ccc    H11   9389 0.51201600   1.008000   ; qtot 254.266889
 9390         os    330    ccc     O6   9390 -0.26013600  16.000000   ; qtot 254.006753
; residue  331 ccc rtp ccc q 0.0
 9391         c3    331    ccc     C1   9391 -0.33178800  12.010000   ; qtot 253.674965
 9392         c3    331    ccc     C2   9392 0.30606500  12.010000   ; qtot 253.981030
 9393         h1    331    ccc     H1   9393 0.11662300   1.008000   ; qtot 254.097653
 9394         h1    331    ccc     H2   9394 0.11526800   1.008000   ; qtot 254.212921
 9395         c3    331    ccc     C3   9395 0.15592700  12.010000   ; qtot 254.368848
 9396         c3    331    ccc     C4   9396 0.28383300  12.010000   ; qtot 254.652681
 9397         c3    331    ccc     C5   9397 0.32403300  12.010000   ; qtot 254.976714
 9398         h1    331    ccc     H3   9398 0.13386900   1.008000   ; qtot 255.110583
 9399         h1    331    ccc     H4   9399 0.10146700   1.008000   ; qtot 255.212050
 9400         h2    331    ccc     H5   9400 0.10960400   1.008000   ; qtot 255.321654
 9401         os    331    ccc     O1   9401 -0.28650000  16.000000   ; qtot 255.035154
 9402         oh    331    ccc     O2   9402 -0.86012500  16.000000   ; qtot 254.175029
 9403         oh    331    ccc     O3   9403 -0.83772800  16.000000   ; qtot 253.337301
 9404         oh    331    ccc     O4   9404 -0.77449700  16.000000   ; qtot 252.562804
 9405         c3    331    ccc     C6   9405 0.37576500  12.010000   ; qtot 252.938569
 9406         ho    331    ccc     H6   9406 0.53656000   1.008000   ; qtot 253.475129
 9407         ho    331    ccc     H7   9407 0.49492100   1.008000   ; qtot 253.970050
 9408         ho    331    ccc     H8   9408 0.51297200   1.008000   ; qtot 254.483022
 9409         h1    331    ccc     H9   9409 0.05653400   1.008000   ; qtot 254.539556
 9410         h1    331    ccc    H10   9410 0.05653400   1.008000   ; qtot 254.596090
 9411         oh    331    ccc     O5   9411 -0.84113600  16.000000   ; qtot 253.754954
 9412         ho    331    ccc    H11   9412 0.51201600   1.008000   ; qtot 254.266970
 9413         os    331    ccc     O6   9413 -0.26013600  16.000000   ; qtot 254.006834
; residue  332 ccc rtp ccc q 0.0
 9414         c3    332    ccc     C1   9414 -0.33178800  12.010000   ; qtot 253.675046
 9415         c3    332    ccc     C2   9415 0.30606500  12.010000   ; qtot 253.981111
 9416         h1    332    ccc     H1   9416 0.11662300   1.008000   ; qtot 254.097734
 9417         h1    332    ccc     H2   9417 0.11526800   1.008000   ; qtot 254.213002
 9418         c3    332    ccc     C3   9418 0.15592700  12.010000   ; qtot 254.368929
 9419         c3    332    ccc     C4   9419 0.28383300  12.010000   ; qtot 254.652762
 9420         c3    332    ccc     C5   9420 0.32403300  12.010000   ; qtot 254.976795
 9421         h1    332    ccc     H3   9421 0.13386900   1.008000   ; qtot 255.110664
 9422         h1    332    ccc     H4   9422 0.10146700   1.008000   ; qtot 255.212131
 9423         h2    332    ccc     H5   9423 0.10960400   1.008000   ; qtot 255.321735
 9424         os    332    ccc     O1   9424 -0.28650000  16.000000   ; qtot 255.035235
 9425         oh    332    ccc     O2   9425 -0.86012500  16.000000   ; qtot 254.175110
 9426         oh    332    ccc     O3   9426 -0.83772800  16.000000   ; qtot 253.337382
 9427         oh    332    ccc     O4   9427 -0.77449700  16.000000   ; qtot 252.562885
 9428         c3    332    ccc     C6   9428 0.37576500  12.010000   ; qtot 252.938650
 9429         ho    332    ccc     H6   9429 0.53656000   1.008000   ; qtot 253.475210
 9430         ho    332    ccc     H7   9430 0.49492100   1.008000   ; qtot 253.970131
 9431         ho    332    ccc     H8   9431 0.51297200   1.008000   ; qtot 254.483103
 9432         h1    332    ccc     H9   9432 0.05653400   1.008000   ; qtot 254.539637
 9433         h1    332    ccc    H10   9433 0.05653400   1.008000   ; qtot 254.596171
 9434         oh    332    ccc     O5   9434 -0.84113600  16.000000   ; qtot 253.755035
 9435         ho    332    ccc    H11   9435 0.51201600   1.008000   ; qtot 254.267051
 9436         os    332    ccc     O6   9436 -0.26013600  16.000000   ; qtot 254.006915
; residue  333 ccc rtp ccc q 0.0
 9437         c3    333    ccc     C1   9437 -0.33178800  12.010000   ; qtot 253.675127
 9438         c3    333    ccc     C2   9438 0.30606500  12.010000   ; qtot 253.981192
 9439         h1    333    ccc     H1   9439 0.11662300   1.008000   ; qtot 254.097815
 9440         h1    333    ccc     H2   9440 0.11526800   1.008000   ; qtot 254.213083
 9441         c3    333    ccc     C3   9441 0.15592700  12.010000   ; qtot 254.369010
 9442         c3    333    ccc     C4   9442 0.28383300  12.010000   ; qtot 254.652843
 9443         c3    333    ccc     C5   9443 0.32403300  12.010000   ; qtot 254.976876
 9444         h1    333    ccc     H3   9444 0.13386900   1.008000   ; qtot 255.110745
 9445         h1    333    ccc     H4   9445 0.10146700   1.008000   ; qtot 255.212212
 9446         h2    333    ccc     H5   9446 0.10960400   1.008000   ; qtot 255.321816
 9447         os    333    ccc     O1   9447 -0.28650000  16.000000   ; qtot 255.035316
 9448         oh    333    ccc     O2   9448 -0.86012500  16.000000   ; qtot 254.175191
 9449         oh    333    ccc     O3   9449 -0.83772800  16.000000   ; qtot 253.337463
 9450         oh    333    ccc     O4   9450 -0.77449700  16.000000   ; qtot 252.562966
 9451         c3    333    ccc     C6   9451 0.37576500  12.010000   ; qtot 252.938731
 9452         ho    333    ccc     H6   9452 0.53656000   1.008000   ; qtot 253.475291
 9453         ho    333    ccc     H7   9453 0.49492100   1.008000   ; qtot 253.970212
 9454         ho    333    ccc     H8   9454 0.51297200   1.008000   ; qtot 254.483184
 9455         h1    333    ccc     H9   9455 0.05653400   1.008000   ; qtot 254.539718
 9456         h1    333    ccc    H10   9456 0.05653400   1.008000   ; qtot 254.596252
 9457         oh    333    ccc     O5   9457 -0.84113600  16.000000   ; qtot 253.755116
 9458         ho    333    ccc    H11   9458 0.51201600   1.008000   ; qtot 254.267132
 9459         os    333    ccc     O6   9459 -0.26013600  16.000000   ; qtot 254.006996
; residue  334 ccc rtp ccc q 0.0
 9460         c3    334    ccc     C1   9460 -0.33178800  12.010000   ; qtot 253.675208
 9461         c3    334    ccc     C2   9461 0.30606500  12.010000   ; qtot 253.981273
 9462         h1    334    ccc     H1   9462 0.11662300   1.008000   ; qtot 254.097896
 9463         h1    334    ccc     H2   9463 0.11526800   1.008000   ; qtot 254.213164
 9464         c3    334    ccc     C3   9464 0.15592700  12.010000   ; qtot 254.369091
 9465         c3    334    ccc     C4   9465 0.28383300  12.010000   ; qtot 254.652924
 9466         c3    334    ccc     C5   9466 0.32403300  12.010000   ; qtot 254.976957
 9467         h1    334    ccc     H3   9467 0.13386900   1.008000   ; qtot 255.110826
 9468         h1    334    ccc     H4   9468 0.10146700   1.008000   ; qtot 255.212293
 9469         h2    334    ccc     H5   9469 0.10960400   1.008000   ; qtot 255.321897
 9470         os    334    ccc     O1   9470 -0.28650000  16.000000   ; qtot 255.035397
 9471         oh    334    ccc     O2   9471 -0.86012500  16.000000   ; qtot 254.175272
 9472         oh    334    ccc     O3   9472 -0.83772800  16.000000   ; qtot 253.337544
 9473         oh    334    ccc     O4   9473 -0.77449700  16.000000   ; qtot 252.563047
 9474         c3    334    ccc     C6   9474 0.37576500  12.010000   ; qtot 252.938812
 9475         ho    334    ccc     H6   9475 0.53656000   1.008000   ; qtot 253.475372
 9476         ho    334    ccc     H7   9476 0.49492100   1.008000   ; qtot 253.970293
 9477         ho    334    ccc     H8   9477 0.51297200   1.008000   ; qtot 254.483265
 9478         h1    334    ccc     H9   9478 0.05653400   1.008000   ; qtot 254.539799
 9479         h1    334    ccc    H10   9479 0.05653400   1.008000   ; qtot 254.596333
 9480         oh    334    ccc     O5   9480 -0.84113600  16.000000   ; qtot 253.755197
 9481         ho    334    ccc    H11   9481 0.51201600   1.008000   ; qtot 254.267213
 9482         os    334    ccc     O6   9482 -0.26013600  16.000000   ; qtot 254.007077
; residue  335 ccc rtp ccc q 0.0
 9483         c3    335    ccc     C1   9483 -0.33178800  12.010000   ; qtot 253.675289
 9484         c3    335    ccc     C2   9484 0.30606500  12.010000   ; qtot 253.981354
 9485         h1    335    ccc     H1   9485 0.11662300   1.008000   ; qtot 254.097977
 9486         h1    335    ccc     H2   9486 0.11526800   1.008000   ; qtot 254.213245
 9487         c3    335    ccc     C3   9487 0.15592700  12.010000   ; qtot 254.369172
 9488         c3    335    ccc     C4   9488 0.28383300  12.010000   ; qtot 254.653005
 9489         c3    335    ccc     C5   9489 0.32403300  12.010000   ; qtot 254.977038
 9490         h1    335    ccc     H3   9490 0.13386900   1.008000   ; qtot 255.110907
 9491         h1    335    ccc     H4   9491 0.10146700   1.008000   ; qtot 255.212374
 9492         h2    335    ccc     H5   9492 0.10960400   1.008000   ; qtot 255.321978
 9493         os    335    ccc     O1   9493 -0.28650000  16.000000   ; qtot 255.035478
 9494         oh    335    ccc     O2   9494 -0.86012500  16.000000   ; qtot 254.175353
 9495         oh    335    ccc     O3   9495 -0.83772800  16.000000   ; qtot 253.337625
 9496         oh    335    ccc     O4   9496 -0.77449700  16.000000   ; qtot 252.563128
 9497         c3    335    ccc     C6   9497 0.37576500  12.010000   ; qtot 252.938893
 9498         ho    335    ccc     H6   9498 0.53656000   1.008000   ; qtot 253.475453
 9499         ho    335    ccc     H7   9499 0.49492100   1.008000   ; qtot 253.970374
 9500         ho    335    ccc     H8   9500 0.51297200   1.008000   ; qtot 254.483346
 9501         h1    335    ccc     H9   9501 0.05653400   1.008000   ; qtot 254.539880
 9502         h1    335    ccc    H10   9502 0.05653400   1.008000   ; qtot 254.596414
 9503         oh    335    ccc     O5   9503 -0.84113600  16.000000   ; qtot 253.755278
 9504         ho    335    ccc    H11   9504 0.51201600   1.008000   ; qtot 254.267294
 9505         os    335    ccc     O6   9505 -0.26013600  16.000000   ; qtot 254.007158
; residue  336 ccc rtp ccc q 0.0
 9506         c3    336    ccc     C1   9506 -0.33178800  12.010000   ; qtot 253.675370
 9507         c3    336    ccc     C2   9507 0.30606500  12.010000   ; qtot 253.981435
 9508         h1    336    ccc     H1   9508 0.11662300   1.008000   ; qtot 254.098058
 9509         h1    336    ccc     H2   9509 0.11526800   1.008000   ; qtot 254.213326
 9510         c3    336    ccc     C3   9510 0.15592700  12.010000   ; qtot 254.369253
 9511         c3    336    ccc     C4   9511 0.28383300  12.010000   ; qtot 254.653086
 9512         c3    336    ccc     C5   9512 0.32403300  12.010000   ; qtot 254.977119
 9513         h1    336    ccc     H3   9513 0.13386900   1.008000   ; qtot 255.110988
 9514         h1    336    ccc     H4   9514 0.10146700   1.008000   ; qtot 255.212455
 9515         h2    336    ccc     H5   9515 0.10960400   1.008000   ; qtot 255.322059
 9516         os    336    ccc     O1   9516 -0.28650000  16.000000   ; qtot 255.035559
 9517         oh    336    ccc     O2   9517 -0.86012500  16.000000   ; qtot 254.175434
 9518         oh    336    ccc     O3   9518 -0.83772800  16.000000   ; qtot 253.337706
 9519         oh    336    ccc     O4   9519 -0.77449700  16.000000   ; qtot 252.563209
 9520         c3    336    ccc     C6   9520 0.37576500  12.010000   ; qtot 252.938974
 9521         ho    336    ccc     H6   9521 0.53656000   1.008000   ; qtot 253.475534
 9522         ho    336    ccc     H7   9522 0.49492100   1.008000   ; qtot 253.970455
 9523         ho    336    ccc     H8   9523 0.51297200   1.008000   ; qtot 254.483427
 9524         h1    336    ccc     H9   9524 0.05653400   1.008000   ; qtot 254.539961
 9525         h1    336    ccc    H10   9525 0.05653400   1.008000   ; qtot 254.596495
 9526         oh    336    ccc     O5   9526 -0.84113600  16.000000   ; qtot 253.755359
 9527         ho    336    ccc    H11   9527 0.51201600   1.008000   ; qtot 254.267375
 9528         os    336    ccc     O6   9528 -0.26013600  16.000000   ; qtot 254.007239
; residue  337 ccc rtp ccc q 0.0
 9529         c3    337    ccc     C1   9529 -0.33178800  12.010000   ; qtot 253.675451
 9530         c3    337    ccc     C2   9530 0.30606500  12.010000   ; qtot 253.981516
 9531         h1    337    ccc     H1   9531 0.11662300   1.008000   ; qtot 254.098139
 9532         h1    337    ccc     H2   9532 0.11526800   1.008000   ; qtot 254.213407
 9533         c3    337    ccc     C3   9533 0.15592700  12.010000   ; qtot 254.369334
 9534         c3    337    ccc     C4   9534 0.28383300  12.010000   ; qtot 254.653167
 9535         c3    337    ccc     C5   9535 0.32403300  12.010000   ; qtot 254.977200
 9536         h1    337    ccc     H3   9536 0.13386900   1.008000   ; qtot 255.111069
 9537         h1    337    ccc     H4   9537 0.10146700   1.008000   ; qtot 255.212536
 9538         h2    337    ccc     H5   9538 0.10960400   1.008000   ; qtot 255.322140
 9539         os    337    ccc     O1   9539 -0.28650000  16.000000   ; qtot 255.035640
 9540         oh    337    ccc     O2   9540 -0.86012500  16.000000   ; qtot 254.175515
 9541         oh    337    ccc     O3   9541 -0.83772800  16.000000   ; qtot 253.337787
 9542         oh    337    ccc     O4   9542 -0.77449700  16.000000   ; qtot 252.563290
 9543         c3    337    ccc     C6   9543 0.37576500  12.010000   ; qtot 252.939055
 9544         ho    337    ccc     H6   9544 0.53656000   1.008000   ; qtot 253.475615
 9545         ho    337    ccc     H7   9545 0.49492100   1.008000   ; qtot 253.970536
 9546         ho    337    ccc     H8   9546 0.51297200   1.008000   ; qtot 254.483508
 9547         h1    337    ccc     H9   9547 0.05653400   1.008000   ; qtot 254.540042
 9548         h1    337    ccc    H10   9548 0.05653400   1.008000   ; qtot 254.596576
 9549         oh    337    ccc     O5   9549 -0.84113600  16.000000   ; qtot 253.755440
 9550         ho    337    ccc    H11   9550 0.51201600   1.008000   ; qtot 254.267456
 9551         os    337    ccc     O6   9551 -0.26013600  16.000000   ; qtot 254.007320
; residue  338 ccc rtp ccc q 0.0
 9552         c3    338    ccc     C1   9552 -0.33178800  12.010000   ; qtot 253.675532
 9553         c3    338    ccc     C2   9553 0.30606500  12.010000   ; qtot 253.981597
 9554         h1    338    ccc     H1   9554 0.11662300   1.008000   ; qtot 254.098220
 9555         h1    338    ccc     H2   9555 0.11526800   1.008000   ; qtot 254.213488
 9556         c3    338    ccc     C3   9556 0.15592700  12.010000   ; qtot 254.369415
 9557         c3    338    ccc     C4   9557 0.28383300  12.010000   ; qtot 254.653248
 9558         c3    338    ccc     C5   9558 0.32403300  12.010000   ; qtot 254.977281
 9559         h1    338    ccc     H3   9559 0.13386900   1.008000   ; qtot 255.111150
 9560         h1    338    ccc     H4   9560 0.10146700   1.008000   ; qtot 255.212617
 9561         h2    338    ccc     H5   9561 0.10960400   1.008000   ; qtot 255.322221
 9562         os    338    ccc     O1   9562 -0.28650000  16.000000   ; qtot 255.035721
 9563         oh    338    ccc     O2   9563 -0.86012500  16.000000   ; qtot 254.175596
 9564         oh    338    ccc     O3   9564 -0.83772800  16.000000   ; qtot 253.337868
 9565         oh    338    ccc     O4   9565 -0.77449700  16.000000   ; qtot 252.563371
 9566         c3    338    ccc     C6   9566 0.37576500  12.010000   ; qtot 252.939136
 9567         ho    338    ccc     H6   9567 0.53656000   1.008000   ; qtot 253.475696
 9568         ho    338    ccc     H7   9568 0.49492100   1.008000   ; qtot 253.970617
 9569         ho    338    ccc     H8   9569 0.51297200   1.008000   ; qtot 254.483589
 9570         h1    338    ccc     H9   9570 0.05653400   1.008000   ; qtot 254.540123
 9571         h1    338    ccc    H10   9571 0.05653400   1.008000   ; qtot 254.596657
 9572         oh    338    ccc     O5   9572 -0.84113600  16.000000   ; qtot 253.755521
 9573         ho    338    ccc    H11   9573 0.51201600   1.008000   ; qtot 254.267537
 9574         os    338    ccc     O6   9574 -0.26013600  16.000000   ; qtot 254.007401
; residue  339 ccc rtp ccc q 0.0
 9575         c3    339    ccc     C1   9575 -0.33178800  12.010000   ; qtot 253.675613
 9576         c3    339    ccc     C2   9576 0.30606500  12.010000   ; qtot 253.981678
 9577         h1    339    ccc     H1   9577 0.11662300   1.008000   ; qtot 254.098301
 9578         h1    339    ccc     H2   9578 0.11526800   1.008000   ; qtot 254.213569
 9579         c3    339    ccc     C3   9579 0.15592700  12.010000   ; qtot 254.369496
 9580         c3    339    ccc     C4   9580 0.28383300  12.010000   ; qtot 254.653329
 9581         c3    339    ccc     C5   9581 0.32403300  12.010000   ; qtot 254.977362
 9582         h1    339    ccc     H3   9582 0.13386900   1.008000   ; qtot 255.111231
 9583         h1    339    ccc     H4   9583 0.10146700   1.008000   ; qtot 255.212698
 9584         h2    339    ccc     H5   9584 0.10960400   1.008000   ; qtot 255.322302
 9585         os    339    ccc     O1   9585 -0.28650000  16.000000   ; qtot 255.035802
 9586         oh    339    ccc     O2   9586 -0.86012500  16.000000   ; qtot 254.175677
 9587         oh    339    ccc     O3   9587 -0.83772800  16.000000   ; qtot 253.337949
 9588         oh    339    ccc     O4   9588 -0.77449700  16.000000   ; qtot 252.563452
 9589         c3    339    ccc     C6   9589 0.37576500  12.010000   ; qtot 252.939217
 9590         ho    339    ccc     H6   9590 0.53656000   1.008000   ; qtot 253.475777
 9591         ho    339    ccc     H7   9591 0.49492100   1.008000   ; qtot 253.970698
 9592         ho    339    ccc     H8   9592 0.51297200   1.008000   ; qtot 254.483670
 9593         h1    339    ccc     H9   9593 0.05653400   1.008000   ; qtot 254.540204
 9594         h1    339    ccc    H10   9594 0.05653400   1.008000   ; qtot 254.596738
 9595         oh    339    ccc     O5   9595 -0.84113600  16.000000   ; qtot 253.755602
 9596         ho    339    ccc    H11   9596 0.51201600   1.008000   ; qtot 254.267618
 9597         os    339    ccc     O6   9597 -0.26013600  16.000000   ; qtot 254.007482
; residue  340 ccc rtp ccc q 0.0
 9598         c3    340    ccc     C1   9598 -0.33178800  12.010000   ; qtot 253.675694
 9599         c3    340    ccc     C2   9599 0.30606500  12.010000   ; qtot 253.981759
 9600         h1    340    ccc     H1   9600 0.11662300   1.008000   ; qtot 254.098382
 9601         h1    340    ccc     H2   9601 0.11526800   1.008000   ; qtot 254.213650
 9602         c3    340    ccc     C3   9602 0.15592700  12.010000   ; qtot 254.369577
 9603         c3    340    ccc     C4   9603 0.28383300  12.010000   ; qtot 254.653410
 9604         c3    340    ccc     C5   9604 0.32403300  12.010000   ; qtot 254.977443
 9605         h1    340    ccc     H3   9605 0.13386900   1.008000   ; qtot 255.111312
 9606         h1    340    ccc     H4   9606 0.10146700   1.008000   ; qtot 255.212779
 9607         h2    340    ccc     H5   9607 0.10960400   1.008000   ; qtot 255.322383
 9608         os    340    ccc     O1   9608 -0.28650000  16.000000   ; qtot 255.035883
 9609         oh    340    ccc     O2   9609 -0.86012500  16.000000   ; qtot 254.175758
 9610         oh    340    ccc     O3   9610 -0.83772800  16.000000   ; qtot 253.338030
 9611         oh    340    ccc     O4   9611 -0.77449700  16.000000   ; qtot 252.563533
 9612         c3    340    ccc     C6   9612 0.37576500  12.010000   ; qtot 252.939298
 9613         ho    340    ccc     H6   9613 0.53656000   1.008000   ; qtot 253.475858
 9614         ho    340    ccc     H7   9614 0.49492100   1.008000   ; qtot 253.970779
 9615         ho    340    ccc     H8   9615 0.51297200   1.008000   ; qtot 254.483751
 9616         h1    340    ccc     H9   9616 0.05653400   1.008000   ; qtot 254.540285
 9617         h1    340    ccc    H10   9617 0.05653400   1.008000   ; qtot 254.596819
 9618         oh    340    ccc     O5   9618 -0.84113600  16.000000   ; qtot 253.755683
 9619         ho    340    ccc    H11   9619 0.51201600   1.008000   ; qtot 254.267699
 9620         os    340    ccc     O6   9620 -0.26013600  16.000000   ; qtot 254.007563
; residue  341 ccc rtp ccc q 0.0
 9621         c3    341    ccc     C1   9621 -0.33178800  12.010000   ; qtot 253.675775
 9622         c3    341    ccc     C2   9622 0.30606500  12.010000   ; qtot 253.981840
 9623         h1    341    ccc     H1   9623 0.11662300   1.008000   ; qtot 254.098463
 9624         h1    341    ccc     H2   9624 0.11526800   1.008000   ; qtot 254.213731
 9625         c3    341    ccc     C3   9625 0.15592700  12.010000   ; qtot 254.369658
 9626         c3    341    ccc     C4   9626 0.28383300  12.010000   ; qtot 254.653491
 9627         c3    341    ccc     C5   9627 0.32403300  12.010000   ; qtot 254.977524
 9628         h1    341    ccc     H3   9628 0.13386900   1.008000   ; qtot 255.111393
 9629         h1    341    ccc     H4   9629 0.10146700   1.008000   ; qtot 255.212860
 9630         h2    341    ccc     H5   9630 0.10960400   1.008000   ; qtot 255.322464
 9631         os    341    ccc     O1   9631 -0.28650000  16.000000   ; qtot 255.035964
 9632         oh    341    ccc     O2   9632 -0.86012500  16.000000   ; qtot 254.175839
 9633         oh    341    ccc     O3   9633 -0.83772800  16.000000   ; qtot 253.338111
 9634         oh    341    ccc     O4   9634 -0.77449700  16.000000   ; qtot 252.563614
 9635         c3    341    ccc     C6   9635 0.37576500  12.010000   ; qtot 252.939379
 9636         ho    341    ccc     H6   9636 0.53656000   1.008000   ; qtot 253.475939
 9637         ho    341    ccc     H7   9637 0.49492100   1.008000   ; qtot 253.970860
 9638         ho    341    ccc     H8   9638 0.51297200   1.008000   ; qtot 254.483832
 9639         h1    341    ccc     H9   9639 0.05653400   1.008000   ; qtot 254.540366
 9640         h1    341    ccc    H10   9640 0.05653400   1.008000   ; qtot 254.596900
 9641         oh    341    ccc     O5   9641 -0.84113600  16.000000   ; qtot 253.755764
 9642         ho    341    ccc    H11   9642 0.51201600   1.008000   ; qtot 254.267780
 9643         os    341    ccc     O6   9643 -0.26013600  16.000000   ; qtot 254.007644
; residue  342 ccc rtp ccc q 0.0
 9644         c3    342    ccc     C1   9644 -0.33178800  12.010000   ; qtot 253.675856
 9645         c3    342    ccc     C2   9645 0.30606500  12.010000   ; qtot 253.981921
 9646         h1    342    ccc     H1   9646 0.11662300   1.008000   ; qtot 254.098544
 9647         h1    342    ccc     H2   9647 0.11526800   1.008000   ; qtot 254.213812
 9648         c3    342    ccc     C3   9648 0.15592700  12.010000   ; qtot 254.369739
 9649         c3    342    ccc     C4   9649 0.28383300  12.010000   ; qtot 254.653572
 9650         c3    342    ccc     C5   9650 0.32403300  12.010000   ; qtot 254.977605
 9651         h1    342    ccc     H3   9651 0.13386900   1.008000   ; qtot 255.111474
 9652         h1    342    ccc     H4   9652 0.10146700   1.008000   ; qtot 255.212941
 9653         h2    342    ccc     H5   9653 0.10960400   1.008000   ; qtot 255.322545
 9654         os    342    ccc     O1   9654 -0.28650000  16.000000   ; qtot 255.036045
 9655         oh    342    ccc     O2   9655 -0.86012500  16.000000   ; qtot 254.175920
 9656         oh    342    ccc     O3   9656 -0.83772800  16.000000   ; qtot 253.338192
 9657         oh    342    ccc     O4   9657 -0.77449700  16.000000   ; qtot 252.563695
 9658         c3    342    ccc     C6   9658 0.37576500  12.010000   ; qtot 252.939460
 9659         ho    342    ccc     H6   9659 0.53656000   1.008000   ; qtot 253.476020
 9660         ho    342    ccc     H7   9660 0.49492100   1.008000   ; qtot 253.970941
 9661         ho    342    ccc     H8   9661 0.51297200   1.008000   ; qtot 254.483913
 9662         h1    342    ccc     H9   9662 0.05653400   1.008000   ; qtot 254.540447
 9663         h1    342    ccc    H10   9663 0.05653400   1.008000   ; qtot 254.596981
 9664         oh    342    ccc     O5   9664 -0.84113600  16.000000   ; qtot 253.755845
 9665         ho    342    ccc    H11   9665 0.51201600   1.008000   ; qtot 254.267861
 9666         os    342    ccc     O6   9666 -0.26013600  16.000000   ; qtot 254.007725
; residue  343 ccc rtp ccc q 0.0
 9667         c3    343    ccc     C1   9667 -0.33178800  12.010000   ; qtot 253.675937
 9668         c3    343    ccc     C2   9668 0.30606500  12.010000   ; qtot 253.982002
 9669         h1    343    ccc     H1   9669 0.11662300   1.008000   ; qtot 254.098625
 9670         h1    343    ccc     H2   9670 0.11526800   1.008000   ; qtot 254.213893
 9671         c3    343    ccc     C3   9671 0.15592700  12.010000   ; qtot 254.369820
 9672         c3    343    ccc     C4   9672 0.28383300  12.010000   ; qtot 254.653653
 9673         c3    343    ccc     C5   9673 0.32403300  12.010000   ; qtot 254.977686
 9674         h1    343    ccc     H3   9674 0.13386900   1.008000   ; qtot 255.111555
 9675         h1    343    ccc     H4   9675 0.10146700   1.008000   ; qtot 255.213022
 9676         h2    343    ccc     H5   9676 0.10960400   1.008000   ; qtot 255.322626
 9677         os    343    ccc     O1   9677 -0.28650000  16.000000   ; qtot 255.036126
 9678         oh    343    ccc     O2   9678 -0.86012500  16.000000   ; qtot 254.176001
 9679         oh    343    ccc     O3   9679 -0.83772800  16.000000   ; qtot 253.338273
 9680         oh    343    ccc     O4   9680 -0.77449700  16.000000   ; qtot 252.563776
 9681         c3    343    ccc     C6   9681 0.37576500  12.010000   ; qtot 252.939541
 9682         ho    343    ccc     H6   9682 0.53656000   1.008000   ; qtot 253.476101
 9683         ho    343    ccc     H7   9683 0.49492100   1.008000   ; qtot 253.971022
 9684         ho    343    ccc     H8   9684 0.51297200   1.008000   ; qtot 254.483994
 9685         h1    343    ccc     H9   9685 0.05653400   1.008000   ; qtot 254.540528
 9686         h1    343    ccc    H10   9686 0.05653400   1.008000   ; qtot 254.597062
 9687         oh    343    ccc     O5   9687 -0.84113600  16.000000   ; qtot 253.755926
 9688         ho    343    ccc    H11   9688 0.51201600   1.008000   ; qtot 254.267942
 9689         os    343    ccc     O6   9689 -0.26013600  16.000000   ; qtot 254.007806
; residue  344 ccc rtp ccc q 0.0
 9690         c3    344    ccc     C1   9690 -0.33178800  12.010000   ; qtot 253.676018
 9691         c3    344    ccc     C2   9691 0.30606500  12.010000   ; qtot 253.982083
 9692         h1    344    ccc     H1   9692 0.11662300   1.008000   ; qtot 254.098706
 9693         h1    344    ccc     H2   9693 0.11526800   1.008000   ; qtot 254.213974
 9694         c3    344    ccc     C3   9694 0.15592700  12.010000   ; qtot 254.369901
 9695         c3    344    ccc     C4   9695 0.28383300  12.010000   ; qtot 254.653734
 9696         c3    344    ccc     C5   9696 0.32403300  12.010000   ; qtot 254.977767
 9697         h1    344    ccc     H3   9697 0.13386900   1.008000   ; qtot 255.111636
 9698         h1    344    ccc     H4   9698 0.10146700   1.008000   ; qtot 255.213103
 9699         h2    344    ccc     H5   9699 0.10960400   1.008000   ; qtot 255.322707
 9700         os    344    ccc     O1   9700 -0.28650000  16.000000   ; qtot 255.036207
 9701         oh    344    ccc     O2   9701 -0.86012500  16.000000   ; qtot 254.176082
 9702         oh    344    ccc     O3   9702 -0.83772800  16.000000   ; qtot 253.338354
 9703         oh    344    ccc     O4   9703 -0.77449700  16.000000   ; qtot 252.563857
 9704         c3    344    ccc     C6   9704 0.37576500  12.010000   ; qtot 252.939622
 9705         ho    344    ccc     H6   9705 0.53656000   1.008000   ; qtot 253.476182
 9706         ho    344    ccc     H7   9706 0.49492100   1.008000   ; qtot 253.971103
 9707         ho    344    ccc     H8   9707 0.51297200   1.008000   ; qtot 254.484075
 9708         h1    344    ccc     H9   9708 0.05653400   1.008000   ; qtot 254.540609
 9709         h1    344    ccc    H10   9709 0.05653400   1.008000   ; qtot 254.597143
 9710         oh    344    ccc     O5   9710 -0.84113600  16.000000   ; qtot 253.756007
 9711         ho    344    ccc    H11   9711 0.51201600   1.008000   ; qtot 254.268023
 9712         os    344    ccc     O6   9712 -0.26013600  16.000000   ; qtot 254.007887
; residue  345 ccc rtp ccc q 0.0
 9713         c3    345    ccc     C1   9713 -0.33178800  12.010000   ; qtot 253.676099
 9714         c3    345    ccc     C2   9714 0.30606500  12.010000   ; qtot 253.982164
 9715         h1    345    ccc     H1   9715 0.11662300   1.008000   ; qtot 254.098787
 9716         h1    345    ccc     H2   9716 0.11526800   1.008000   ; qtot 254.214055
 9717         c3    345    ccc     C3   9717 0.15592700  12.010000   ; qtot 254.369982
 9718         c3    345    ccc     C4   9718 0.28383300  12.010000   ; qtot 254.653815
 9719         c3    345    ccc     C5   9719 0.32403300  12.010000   ; qtot 254.977848
 9720         h1    345    ccc     H3   9720 0.13386900   1.008000   ; qtot 255.111717
 9721         h1    345    ccc     H4   9721 0.10146700   1.008000   ; qtot 255.213184
 9722         h2    345    ccc     H5   9722 0.10960400   1.008000   ; qtot 255.322788
 9723         os    345    ccc     O1   9723 -0.28650000  16.000000   ; qtot 255.036288
 9724         oh    345    ccc     O2   9724 -0.86012500  16.000000   ; qtot 254.176163
 9725         oh    345    ccc     O3   9725 -0.83772800  16.000000   ; qtot 253.338435
 9726         oh    345    ccc     O4   9726 -0.77449700  16.000000   ; qtot 252.563938
 9727         c3    345    ccc     C6   9727 0.37576500  12.010000   ; qtot 252.939703
 9728         ho    345    ccc     H6   9728 0.53656000   1.008000   ; qtot 253.476263
 9729         ho    345    ccc     H7   9729 0.49492100   1.008000   ; qtot 253.971184
 9730         ho    345    ccc     H8   9730 0.51297200   1.008000   ; qtot 254.484156
 9731         h1    345    ccc     H9   9731 0.05653400   1.008000   ; qtot 254.540690
 9732         h1    345    ccc    H10   9732 0.05653400   1.008000   ; qtot 254.597224
 9733         oh    345    ccc     O5   9733 -0.84113600  16.000000   ; qtot 253.756088
 9734         ho    345    ccc    H11   9734 0.51201600   1.008000   ; qtot 254.268104
 9735         os    345    ccc     O6   9735 -0.26013600  16.000000   ; qtot 254.007968
; residue  346 ccc rtp ccc q 0.0
 9736         c3    346    ccc     C1   9736 -0.33178800  12.010000   ; qtot 253.676180
 9737         c3    346    ccc     C2   9737 0.30606500  12.010000   ; qtot 253.982245
 9738         h1    346    ccc     H1   9738 0.11662300   1.008000   ; qtot 254.098868
 9739         h1    346    ccc     H2   9739 0.11526800   1.008000   ; qtot 254.214136
 9740         c3    346    ccc     C3   9740 0.15592700  12.010000   ; qtot 254.370063
 9741         c3    346    ccc     C4   9741 0.28383300  12.010000   ; qtot 254.653896
 9742         c3    346    ccc     C5   9742 0.32403300  12.010000   ; qtot 254.977929
 9743         h1    346    ccc     H3   9743 0.13386900   1.008000   ; qtot 255.111798
 9744         h1    346    ccc     H4   9744 0.10146700   1.008000   ; qtot 255.213265
 9745         h2    346    ccc     H5   9745 0.10960400   1.008000   ; qtot 255.322869
 9746         os    346    ccc     O1   9746 -0.28650000  16.000000   ; qtot 255.036369
 9747         oh    346    ccc     O2   9747 -0.86012500  16.000000   ; qtot 254.176244
 9748         oh    346    ccc     O3   9748 -0.83772800  16.000000   ; qtot 253.338516
 9749         oh    346    ccc     O4   9749 -0.77449700  16.000000   ; qtot 252.564019
 9750         c3    346    ccc     C6   9750 0.37576500  12.010000   ; qtot 252.939784
 9751         ho    346    ccc     H6   9751 0.53656000   1.008000   ; qtot 253.476344
 9752         ho    346    ccc     H7   9752 0.49492100   1.008000   ; qtot 253.971265
 9753         ho    346    ccc     H8   9753 0.51297200   1.008000   ; qtot 254.484237
 9754         h1    346    ccc     H9   9754 0.05653400   1.008000   ; qtot 254.540771
 9755         h1    346    ccc    H10   9755 0.05653400   1.008000   ; qtot 254.597305
 9756         oh    346    ccc     O5   9756 -0.84113600  16.000000   ; qtot 253.756169
 9757         ho    346    ccc    H11   9757 0.51201600   1.008000   ; qtot 254.268185
 9758         os    346    ccc     O6   9758 -0.26013600  16.000000   ; qtot 254.008049
; residue  347 ccc rtp ccc q 0.0
 9759         c3    347    ccc     C1   9759 -0.33178800  12.010000   ; qtot 253.676261
 9760         c3    347    ccc     C2   9760 0.30606500  12.010000   ; qtot 253.982326
 9761         h1    347    ccc     H1   9761 0.11662300   1.008000   ; qtot 254.098949
 9762         h1    347    ccc     H2   9762 0.11526800   1.008000   ; qtot 254.214217
 9763         c3    347    ccc     C3   9763 0.15592700  12.010000   ; qtot 254.370144
 9764         c3    347    ccc     C4   9764 0.28383300  12.010000   ; qtot 254.653977
 9765         c3    347    ccc     C5   9765 0.32403300  12.010000   ; qtot 254.978010
 9766         h1    347    ccc     H3   9766 0.13386900   1.008000   ; qtot 255.111879
 9767         h1    347    ccc     H4   9767 0.10146700   1.008000   ; qtot 255.213346
 9768         h2    347    ccc     H5   9768 0.10960400   1.008000   ; qtot 255.322950
 9769         os    347    ccc     O1   9769 -0.28650000  16.000000   ; qtot 255.036450
 9770         oh    347    ccc     O2   9770 -0.86012500  16.000000   ; qtot 254.176325
 9771         oh    347    ccc     O3   9771 -0.83772800  16.000000   ; qtot 253.338597
 9772         oh    347    ccc     O4   9772 -0.77449700  16.000000   ; qtot 252.564100
 9773         c3    347    ccc     C6   9773 0.37576500  12.010000   ; qtot 252.939865
 9774         ho    347    ccc     H6   9774 0.53656000   1.008000   ; qtot 253.476425
 9775         ho    347    ccc     H7   9775 0.49492100   1.008000   ; qtot 253.971346
 9776         ho    347    ccc     H8   9776 0.51297200   1.008000   ; qtot 254.484318
 9777         h1    347    ccc     H9   9777 0.05653400   1.008000   ; qtot 254.540852
 9778         h1    347    ccc    H10   9778 0.05653400   1.008000   ; qtot 254.597386
 9779         oh    347    ccc     O5   9779 -0.84113600  16.000000   ; qtot 253.756250
 9780         ho    347    ccc    H11   9780 0.51201600   1.008000   ; qtot 254.268266
 9781         os    347    ccc     O6   9781 -0.26013600  16.000000   ; qtot 254.008130
; residue  348 ccc rtp ccc q 0.0
 9782         c3    348    ccc     C1   9782 -0.33178800  12.010000   ; qtot 253.676342
 9783         c3    348    ccc     C2   9783 0.30606500  12.010000   ; qtot 253.982407
 9784         h1    348    ccc     H1   9784 0.11662300   1.008000   ; qtot 254.099030
 9785         h1    348    ccc     H2   9785 0.11526800   1.008000   ; qtot 254.214298
 9786         c3    348    ccc     C3   9786 0.15592700  12.010000   ; qtot 254.370225
 9787         c3    348    ccc     C4   9787 0.28383300  12.010000   ; qtot 254.654058
 9788         c3    348    ccc     C5   9788 0.32403300  12.010000   ; qtot 254.978091
 9789         h1    348    ccc     H3   9789 0.13386900   1.008000   ; qtot 255.111960
 9790         h1    348    ccc     H4   9790 0.10146700   1.008000   ; qtot 255.213427
 9791         h2    348    ccc     H5   9791 0.10960400   1.008000   ; qtot 255.323031
 9792         os    348    ccc     O1   9792 -0.28650000  16.000000   ; qtot 255.036531
 9793         oh    348    ccc     O2   9793 -0.86012500  16.000000   ; qtot 254.176406
 9794         oh    348    ccc     O3   9794 -0.83772800  16.000000   ; qtot 253.338678
 9795         oh    348    ccc     O4   9795 -0.77449700  16.000000   ; qtot 252.564181
 9796         c3    348    ccc     C6   9796 0.37576500  12.010000   ; qtot 252.939946
 9797         ho    348    ccc     H6   9797 0.53656000   1.008000   ; qtot 253.476506
 9798         ho    348    ccc     H7   9798 0.49492100   1.008000   ; qtot 253.971427
 9799         ho    348    ccc     H8   9799 0.51297200   1.008000   ; qtot 254.484399
 9800         h1    348    ccc     H9   9800 0.05653400   1.008000   ; qtot 254.540933
 9801         h1    348    ccc    H10   9801 0.05653400   1.008000   ; qtot 254.597467
 9802         oh    348    ccc     O5   9802 -0.84113600  16.000000   ; qtot 253.756331
 9803         ho    348    ccc    H11   9803 0.51201600   1.008000   ; qtot 254.268347
 9804         os    348    ccc     O6   9804 -0.26013600  16.000000   ; qtot 254.008211
; residue  349 ccc rtp ccc q 0.0
 9805         c3    349    ccc     C1   9805 -0.33178800  12.010000   ; qtot 253.676423
 9806         c3    349    ccc     C2   9806 0.30606500  12.010000   ; qtot 253.982488
 9807         h1    349    ccc     H1   9807 0.11662300   1.008000   ; qtot 254.099111
 9808         h1    349    ccc     H2   9808 0.11526800   1.008000   ; qtot 254.214379
 9809         c3    349    ccc     C3   9809 0.15592700  12.010000   ; qtot 254.370306
 9810         c3    349    ccc     C4   9810 0.28383300  12.010000   ; qtot 254.654139
 9811         c3    349    ccc     C5   9811 0.32403300  12.010000   ; qtot 254.978172
 9812         h1    349    ccc     H3   9812 0.13386900   1.008000   ; qtot 255.112041
 9813         h1    349    ccc     H4   9813 0.10146700   1.008000   ; qtot 255.213508
 9814         h2    349    ccc     H5   9814 0.10960400   1.008000   ; qtot 255.323112
 9815         os    349    ccc     O1   9815 -0.28650000  16.000000   ; qtot 255.036612
 9816         oh    349    ccc     O2   9816 -0.86012500  16.000000   ; qtot 254.176487
 9817         oh    349    ccc     O3   9817 -0.83772800  16.000000   ; qtot 253.338759
 9818         oh    349    ccc     O4   9818 -0.77449700  16.000000   ; qtot 252.564262
 9819         c3    349    ccc     C6   9819 0.37576500  12.010000   ; qtot 252.940027
 9820         ho    349    ccc     H6   9820 0.53656000   1.008000   ; qtot 253.476587
 9821         ho    349    ccc     H7   9821 0.49492100   1.008000   ; qtot 253.971508
 9822         ho    349    ccc     H8   9822 0.51297200   1.008000   ; qtot 254.484480
 9823         h1    349    ccc     H9   9823 0.05653400   1.008000   ; qtot 254.541014
 9824         h1    349    ccc    H10   9824 0.05653400   1.008000   ; qtot 254.597548
 9825         oh    349    ccc     O5   9825 -0.84113600  16.000000   ; qtot 253.756412
 9826         ho    349    ccc    H11   9826 0.51201600   1.008000   ; qtot 254.268428
 9827         os    349    ccc     O6   9827 -0.26013600  16.000000   ; qtot 254.008292
; residue  350 ccc rtp ccc q 0.0
 9828         c3    350    ccc     C1   9828 -0.33178800  12.010000   ; qtot 253.676504
 9829         c3    350    ccc     C2   9829 0.30606500  12.010000   ; qtot 253.982569
 9830         h1    350    ccc     H1   9830 0.11662300   1.008000   ; qtot 254.099192
 9831         h1    350    ccc     H2   9831 0.11526800   1.008000   ; qtot 254.214460
 9832         c3    350    ccc     C3   9832 0.15592700  12.010000   ; qtot 254.370387
 9833         c3    350    ccc     C4   9833 0.28383300  12.010000   ; qtot 254.654220
 9834         c3    350    ccc     C5   9834 0.32403300  12.010000   ; qtot 254.978253
 9835         h1    350    ccc     H3   9835 0.13386900   1.008000   ; qtot 255.112122
 9836         h1    350    ccc     H4   9836 0.10146700   1.008000   ; qtot 255.213589
 9837         h2    350    ccc     H5   9837 0.10960400   1.008000   ; qtot 255.323193
 9838         os    350    ccc     O1   9838 -0.28650000  16.000000   ; qtot 255.036693
 9839         oh    350    ccc     O2   9839 -0.86012500  16.000000   ; qtot 254.176568
 9840         oh    350    ccc     O3   9840 -0.83772800  16.000000   ; qtot 253.338840
 9841         oh    350    ccc     O4   9841 -0.77449700  16.000000   ; qtot 252.564343
 9842         c3    350    ccc     C6   9842 0.37576500  12.010000   ; qtot 252.940108
 9843         ho    350    ccc     H6   9843 0.53656000   1.008000   ; qtot 253.476668
 9844         ho    350    ccc     H7   9844 0.49492100   1.008000   ; qtot 253.971589
 9845         ho    350    ccc     H8   9845 0.51297200   1.008000   ; qtot 254.484561
 9846         h1    350    ccc     H9   9846 0.05653400   1.008000   ; qtot 254.541095
 9847         h1    350    ccc    H10   9847 0.05653400   1.008000   ; qtot 254.597629
 9848         oh    350    ccc     O5   9848 -0.84113600  16.000000   ; qtot 253.756493
 9849         ho    350    ccc    H11   9849 0.51201600   1.008000   ; qtot 254.268509
 9850         os    350    ccc     O6   9850 -0.26013600  16.000000   ; qtot 254.008373
; residue  351 ccc rtp ccc q 0.0
 9851         c3    351    ccc     C1   9851 -0.33178800  12.010000   ; qtot 253.676585
 9852         c3    351    ccc     C2   9852 0.30606500  12.010000   ; qtot 253.982650
 9853         h1    351    ccc     H1   9853 0.11662300   1.008000   ; qtot 254.099273
 9854         h1    351    ccc     H2   9854 0.11526800   1.008000   ; qtot 254.214541
 9855         c3    351    ccc     C3   9855 0.15592700  12.010000   ; qtot 254.370468
 9856         c3    351    ccc     C4   9856 0.28383300  12.010000   ; qtot 254.654301
 9857         c3    351    ccc     C5   9857 0.32403300  12.010000   ; qtot 254.978334
 9858         h1    351    ccc     H3   9858 0.13386900   1.008000   ; qtot 255.112203
 9859         h1    351    ccc     H4   9859 0.10146700   1.008000   ; qtot 255.213670
 9860         h2    351    ccc     H5   9860 0.10960400   1.008000   ; qtot 255.323274
 9861         os    351    ccc     O1   9861 -0.28650000  16.000000   ; qtot 255.036774
 9862         oh    351    ccc     O2   9862 -0.86012500  16.000000   ; qtot 254.176649
 9863         oh    351    ccc     O3   9863 -0.83772800  16.000000   ; qtot 253.338921
 9864         oh    351    ccc     O4   9864 -0.77449700  16.000000   ; qtot 252.564424
 9865         c3    351    ccc     C6   9865 0.37576500  12.010000   ; qtot 252.940189
 9866         ho    351    ccc     H6   9866 0.53656000   1.008000   ; qtot 253.476749
 9867         ho    351    ccc     H7   9867 0.49492100   1.008000   ; qtot 253.971670
 9868         ho    351    ccc     H8   9868 0.51297200   1.008000   ; qtot 254.484642
 9869         h1    351    ccc     H9   9869 0.05653400   1.008000   ; qtot 254.541176
 9870         h1    351    ccc    H10   9870 0.05653400   1.008000   ; qtot 254.597710
 9871         oh    351    ccc     O5   9871 -0.84113600  16.000000   ; qtot 253.756574
 9872         ho    351    ccc    H11   9872 0.51201600   1.008000   ; qtot 254.268590
 9873         os    351    ccc     O6   9873 -0.26013600  16.000000   ; qtot 254.008454
; residue  352 ccc rtp ccc q 0.0
 9874         c3    352    ccc     C1   9874 -0.33178800  12.010000   ; qtot 253.676666
 9875         c3    352    ccc     C2   9875 0.30606500  12.010000   ; qtot 253.982731
 9876         h1    352    ccc     H1   9876 0.11662300   1.008000   ; qtot 254.099354
 9877         h1    352    ccc     H2   9877 0.11526800   1.008000   ; qtot 254.214622
 9878         c3    352    ccc     C3   9878 0.15592700  12.010000   ; qtot 254.370549
 9879         c3    352    ccc     C4   9879 0.28383300  12.010000   ; qtot 254.654382
 9880         c3    352    ccc     C5   9880 0.32403300  12.010000   ; qtot 254.978415
 9881         h1    352    ccc     H3   9881 0.13386900   1.008000   ; qtot 255.112284
 9882         h1    352    ccc     H4   9882 0.10146700   1.008000   ; qtot 255.213751
 9883         h2    352    ccc     H5   9883 0.10960400   1.008000   ; qtot 255.323355
 9884         os    352    ccc     O1   9884 -0.28650000  16.000000   ; qtot 255.036855
 9885         oh    352    ccc     O2   9885 -0.86012500  16.000000   ; qtot 254.176730
 9886         oh    352    ccc     O3   9886 -0.83772800  16.000000   ; qtot 253.339002
 9887         oh    352    ccc     O4   9887 -0.77449700  16.000000   ; qtot 252.564505
 9888         c3    352    ccc     C6   9888 0.37576500  12.010000   ; qtot 252.940270
 9889         ho    352    ccc     H6   9889 0.53656000   1.008000   ; qtot 253.476830
 9890         ho    352    ccc     H7   9890 0.49492100   1.008000   ; qtot 253.971751
 9891         ho    352    ccc     H8   9891 0.51297200   1.008000   ; qtot 254.484723
 9892         h1    352    ccc     H9   9892 0.05653400   1.008000   ; qtot 254.541257
 9893         h1    352    ccc    H10   9893 0.05653400   1.008000   ; qtot 254.597791
 9894         oh    352    ccc     O5   9894 -0.84113600  16.000000   ; qtot 253.756655
 9895         ho    352    ccc    H11   9895 0.51201600   1.008000   ; qtot 254.268671
 9896         os    352    ccc     O6   9896 -0.26013600  16.000000   ; qtot 254.008535
; residue  353 ccc rtp ccc q 0.0
 9897         c3    353    ccc     C1   9897 -0.33178800  12.010000   ; qtot 253.676747
 9898         c3    353    ccc     C2   9898 0.30606500  12.010000   ; qtot 253.982812
 9899         h1    353    ccc     H1   9899 0.11662300   1.008000   ; qtot 254.099435
 9900         h1    353    ccc     H2   9900 0.11526800   1.008000   ; qtot 254.214703
 9901         c3    353    ccc     C3   9901 0.15592700  12.010000   ; qtot 254.370630
 9902         c3    353    ccc     C4   9902 0.28383300  12.010000   ; qtot 254.654463
 9903         c3    353    ccc     C5   9903 0.32403300  12.010000   ; qtot 254.978496
 9904         h1    353    ccc     H3   9904 0.13386900   1.008000   ; qtot 255.112365
 9905         h1    353    ccc     H4   9905 0.10146700   1.008000   ; qtot 255.213832
 9906         h2    353    ccc     H5   9906 0.10960400   1.008000   ; qtot 255.323436
 9907         os    353    ccc     O1   9907 -0.28650000  16.000000   ; qtot 255.036936
 9908         oh    353    ccc     O2   9908 -0.86012500  16.000000   ; qtot 254.176811
 9909         oh    353    ccc     O3   9909 -0.83772800  16.000000   ; qtot 253.339083
 9910         oh    353    ccc     O4   9910 -0.77449700  16.000000   ; qtot 252.564586
 9911         c3    353    ccc     C6   9911 0.37576500  12.010000   ; qtot 252.940351
 9912         ho    353    ccc     H6   9912 0.53656000   1.008000   ; qtot 253.476911
 9913         ho    353    ccc     H7   9913 0.49492100   1.008000   ; qtot 253.971832
 9914         ho    353    ccc     H8   9914 0.51297200   1.008000   ; qtot 254.484804
 9915         h1    353    ccc     H9   9915 0.05653400   1.008000   ; qtot 254.541338
 9916         h1    353    ccc    H10   9916 0.05653400   1.008000   ; qtot 254.597872
 9917         oh    353    ccc     O5   9917 -0.84113600  16.000000   ; qtot 253.756736
 9918         ho    353    ccc    H11   9918 0.51201600   1.008000   ; qtot 254.268752
 9919         os    353    ccc     O6   9919 -0.26013600  16.000000   ; qtot 254.008616
; residue  354 ccc rtp ccc q 0.0
 9920         c3    354    ccc     C1   9920 -0.33178800  12.010000   ; qtot 253.676828
 9921         c3    354    ccc     C2   9921 0.30606500  12.010000   ; qtot 253.982893
 9922         h1    354    ccc     H1   9922 0.11662300   1.008000   ; qtot 254.099516
 9923         h1    354    ccc     H2   9923 0.11526800   1.008000   ; qtot 254.214784
 9924         c3    354    ccc     C3   9924 0.15592700  12.010000   ; qtot 254.370711
 9925         c3    354    ccc     C4   9925 0.28383300  12.010000   ; qtot 254.654544
 9926         c3    354    ccc     C5   9926 0.32403300  12.010000   ; qtot 254.978577
 9927         h1    354    ccc     H3   9927 0.13386900   1.008000   ; qtot 255.112446
 9928         h1    354    ccc     H4   9928 0.10146700   1.008000   ; qtot 255.213913
 9929         h2    354    ccc     H5   9929 0.10960400   1.008000   ; qtot 255.323517
 9930         os    354    ccc     O1   9930 -0.28650000  16.000000   ; qtot 255.037017
 9931         oh    354    ccc     O2   9931 -0.86012500  16.000000   ; qtot 254.176892
 9932         oh    354    ccc     O3   9932 -0.83772800  16.000000   ; qtot 253.339164
 9933         oh    354    ccc     O4   9933 -0.77449700  16.000000   ; qtot 252.564667
 9934         c3    354    ccc     C6   9934 0.37576500  12.010000   ; qtot 252.940432
 9935         ho    354    ccc     H6   9935 0.53656000   1.008000   ; qtot 253.476992
 9936         ho    354    ccc     H7   9936 0.49492100   1.008000   ; qtot 253.971913
 9937         ho    354    ccc     H8   9937 0.51297200   1.008000   ; qtot 254.484885
 9938         h1    354    ccc     H9   9938 0.05653400   1.008000   ; qtot 254.541419
 9939         h1    354    ccc    H10   9939 0.05653400   1.008000   ; qtot 254.597953
 9940         oh    354    ccc     O5   9940 -0.84113600  16.000000   ; qtot 253.756817
 9941         ho    354    ccc    H11   9941 0.51201600   1.008000   ; qtot 254.268833
 9942         os    354    ccc     O6   9942 -0.26013600  16.000000   ; qtot 254.008697
; residue  355 ccc rtp ccc q 0.0
 9943         c3    355    ccc     C1   9943 -0.33178800  12.010000   ; qtot 253.676909
 9944         c3    355    ccc     C2   9944 0.30606500  12.010000   ; qtot 253.982974
 9945         h1    355    ccc     H1   9945 0.11662300   1.008000   ; qtot 254.099597
 9946         h1    355    ccc     H2   9946 0.11526800   1.008000   ; qtot 254.214865
 9947         c3    355    ccc     C3   9947 0.15592700  12.010000   ; qtot 254.370792
 9948         c3    355    ccc     C4   9948 0.28383300  12.010000   ; qtot 254.654625
 9949         c3    355    ccc     C5   9949 0.32403300  12.010000   ; qtot 254.978658
 9950         h1    355    ccc     H3   9950 0.13386900   1.008000   ; qtot 255.112527
 9951         h1    355    ccc     H4   9951 0.10146700   1.008000   ; qtot 255.213994
 9952         h2    355    ccc     H5   9952 0.10960400   1.008000   ; qtot 255.323598
 9953         os    355    ccc     O1   9953 -0.28650000  16.000000   ; qtot 255.037098
 9954         oh    355    ccc     O2   9954 -0.86012500  16.000000   ; qtot 254.176973
 9955         oh    355    ccc     O3   9955 -0.83772800  16.000000   ; qtot 253.339245
 9956         oh    355    ccc     O4   9956 -0.77449700  16.000000   ; qtot 252.564748
 9957         c3    355    ccc     C6   9957 0.37576500  12.010000   ; qtot 252.940513
 9958         ho    355    ccc     H6   9958 0.53656000   1.008000   ; qtot 253.477073
 9959         ho    355    ccc     H7   9959 0.49492100   1.008000   ; qtot 253.971994
 9960         ho    355    ccc     H8   9960 0.51297200   1.008000   ; qtot 254.484966
 9961         h1    355    ccc     H9   9961 0.05653400   1.008000   ; qtot 254.541500
 9962         h1    355    ccc    H10   9962 0.05653400   1.008000   ; qtot 254.598034
 9963         oh    355    ccc     O5   9963 -0.84113600  16.000000   ; qtot 253.756898
 9964         ho    355    ccc    H11   9964 0.51201600   1.008000   ; qtot 254.268914
 9965         os    355    ccc     O6   9965 -0.26013600  16.000000   ; qtot 254.008778
; residue  356 ccc rtp ccc q 0.0
 9966         c3    356    ccc     C1   9966 -0.33178800  12.010000   ; qtot 253.676990
 9967         c3    356    ccc     C2   9967 0.30606500  12.010000   ; qtot 253.983055
 9968         h1    356    ccc     H1   9968 0.11662300   1.008000   ; qtot 254.099678
 9969         h1    356    ccc     H2   9969 0.11526800   1.008000   ; qtot 254.214946
 9970         c3    356    ccc     C3   9970 0.15592700  12.010000   ; qtot 254.370873
 9971         c3    356    ccc     C4   9971 0.28383300  12.010000   ; qtot 254.654706
 9972         c3    356    ccc     C5   9972 0.32403300  12.010000   ; qtot 254.978739
 9973         h1    356    ccc     H3   9973 0.13386900   1.008000   ; qtot 255.112608
 9974         h1    356    ccc     H4   9974 0.10146700   1.008000   ; qtot 255.214075
 9975         h2    356    ccc     H5   9975 0.10960400   1.008000   ; qtot 255.323679
 9976         os    356    ccc     O1   9976 -0.28650000  16.000000   ; qtot 255.037179
 9977         oh    356    ccc     O2   9977 -0.86012500  16.000000   ; qtot 254.177054
 9978         oh    356    ccc     O3   9978 -0.83772800  16.000000   ; qtot 253.339326
 9979         oh    356    ccc     O4   9979 -0.77449700  16.000000   ; qtot 252.564829
 9980         c3    356    ccc     C6   9980 0.37576500  12.010000   ; qtot 252.940594
 9981         ho    356    ccc     H6   9981 0.53656000   1.008000   ; qtot 253.477154
 9982         ho    356    ccc     H7   9982 0.49492100   1.008000   ; qtot 253.972075
 9983         ho    356    ccc     H8   9983 0.51297200   1.008000   ; qtot 254.485047
 9984         h1    356    ccc     H9   9984 0.05653400   1.008000   ; qtot 254.541581
 9985         h1    356    ccc    H10   9985 0.05653400   1.008000   ; qtot 254.598115
 9986         oh    356    ccc     O5   9986 -0.84113600  16.000000   ; qtot 253.756979
 9987         ho    356    ccc    H11   9987 0.51201600   1.008000   ; qtot 254.268995
 9988         os    356    ccc     O6   9988 -0.26013600  16.000000   ; qtot 254.008859
; residue  357 ccc rtp ccc q 0.0
 9989         c3    357    ccc     C1   9989 -0.33178800  12.010000   ; qtot 253.677071
 9990         c3    357    ccc     C2   9990 0.30606500  12.010000   ; qtot 253.983136
 9991         h1    357    ccc     H1   9991 0.11662300   1.008000   ; qtot 254.099759
 9992         h1    357    ccc     H2   9992 0.11526800   1.008000   ; qtot 254.215027
 9993         c3    357    ccc     C3   9993 0.15592700  12.010000   ; qtot 254.370954
 9994         c3    357    ccc     C4   9994 0.28383300  12.010000   ; qtot 254.654787
 9995         c3    357    ccc     C5   9995 0.32403300  12.010000   ; qtot 254.978820
 9996         h1    357    ccc     H3   9996 0.13386900   1.008000   ; qtot 255.112689
 9997         h1    357    ccc     H4   9997 0.10146700   1.008000   ; qtot 255.214156
 9998         h2    357    ccc     H5   9998 0.10960400   1.008000   ; qtot 255.323760
 9999         os    357    ccc     O1   9999 -0.28650000  16.000000   ; qtot 255.037260
10000         oh    357    ccc     O2  10000 -0.86012500  16.000000   ; qtot 254.177135
10001         oh    357    ccc     O3  10001 -0.83772800  16.000000   ; qtot 253.339407
10002         oh    357    ccc     O4  10002 -0.77449700  16.000000   ; qtot 252.564910
10003         c3    357    ccc     C6  10003 0.37576500  12.010000   ; qtot 252.940675
10004         ho    357    ccc     H6  10004 0.53656000   1.008000   ; qtot 253.477235
10005         ho    357    ccc     H7  10005 0.49492100   1.008000   ; qtot 253.972156
10006         ho    357    ccc     H8  10006 0.51297200   1.008000   ; qtot 254.485128
10007         h1    357    ccc     H9  10007 0.05653400   1.008000   ; qtot 254.541662
10008         h1    357    ccc    H10  10008 0.05653400   1.008000   ; qtot 254.598196
10009         oh    357    ccc     O5  10009 -0.84113600  16.000000   ; qtot 253.757060
10010         ho    357    ccc    H11  10010 0.51201600   1.008000   ; qtot 254.269076
10011         os    357    ccc     O6  10011 -0.26013600  16.000000   ; qtot 254.008940
; residue  358 ccc rtp ccc q 0.0
10012         c3    358    ccc     C1  10012 -0.33178800  12.010000   ; qtot 253.677152
10013         c3    358    ccc     C2  10013 0.30606500  12.010000   ; qtot 253.983217
10014         h1    358    ccc     H1  10014 0.11662300   1.008000   ; qtot 254.099840
10015         h1    358    ccc     H2  10015 0.11526800   1.008000   ; qtot 254.215108
10016         c3    358    ccc     C3  10016 0.15592700  12.010000   ; qtot 254.371035
10017         c3    358    ccc     C4  10017 0.28383300  12.010000   ; qtot 254.654868
10018         c3    358    ccc     C5  10018 0.32403300  12.010000   ; qtot 254.978901
10019         h1    358    ccc     H3  10019 0.13386900   1.008000   ; qtot 255.112770
10020         h1    358    ccc     H4  10020 0.10146700   1.008000   ; qtot 255.214237
10021         h2    358    ccc     H5  10021 0.10960400   1.008000   ; qtot 255.323841
10022         os    358    ccc     O1  10022 -0.28650000  16.000000   ; qtot 255.037341
10023         oh    358    ccc     O2  10023 -0.86012500  16.000000   ; qtot 254.177216
10024         oh    358    ccc     O3  10024 -0.83772800  16.000000   ; qtot 253.339488
10025         oh    358    ccc     O4  10025 -0.77449700  16.000000   ; qtot 252.564991
10026         c3    358    ccc     C6  10026 0.37576500  12.010000   ; qtot 252.940756
10027         ho    358    ccc     H6  10027 0.53656000   1.008000   ; qtot 253.477316
10028         ho    358    ccc     H7  10028 0.49492100   1.008000   ; qtot 253.972237
10029         ho    358    ccc     H8  10029 0.51297200   1.008000   ; qtot 254.485209
10030         h1    358    ccc     H9  10030 0.05653400   1.008000   ; qtot 254.541743
10031         h1    358    ccc    H10  10031 0.05653400   1.008000   ; qtot 254.598277
10032         oh    358    ccc     O5  10032 -0.84113600  16.000000   ; qtot 253.757141
10033         ho    358    ccc    H11  10033 0.51201600   1.008000   ; qtot 254.269157
10034         os    358    ccc     O6  10034 -0.26013600  16.000000   ; qtot 254.009021
; residue  359 ccc rtp ccc q 0.0
10035         c3    359    ccc     C1  10035 -0.33178800  12.010000   ; qtot 253.677233
10036         c3    359    ccc     C2  10036 0.30606500  12.010000   ; qtot 253.983298
10037         h1    359    ccc     H1  10037 0.11662300   1.008000   ; qtot 254.099921
10038         h1    359    ccc     H2  10038 0.11526800   1.008000   ; qtot 254.215189
10039         c3    359    ccc     C3  10039 0.15592700  12.010000   ; qtot 254.371116
10040         c3    359    ccc     C4  10040 0.28383300  12.010000   ; qtot 254.654949
10041         c3    359    ccc     C5  10041 0.32403300  12.010000   ; qtot 254.978982
10042         h1    359    ccc     H3  10042 0.13386900   1.008000   ; qtot 255.112851
10043         h1    359    ccc     H4  10043 0.10146700   1.008000   ; qtot 255.214318
10044         h2    359    ccc     H5  10044 0.10960400   1.008000   ; qtot 255.323922
10045         os    359    ccc     O1  10045 -0.28650000  16.000000   ; qtot 255.037422
10046         oh    359    ccc     O2  10046 -0.86012500  16.000000   ; qtot 254.177297
10047         oh    359    ccc     O3  10047 -0.83772800  16.000000   ; qtot 253.339569
10048         oh    359    ccc     O4  10048 -0.77449700  16.000000   ; qtot 252.565072
10049         c3    359    ccc     C6  10049 0.37576500  12.010000   ; qtot 252.940837
10050         ho    359    ccc     H6  10050 0.53656000   1.008000   ; qtot 253.477397
10051         ho    359    ccc     H7  10051 0.49492100   1.008000   ; qtot 253.972318
10052         ho    359    ccc     H8  10052 0.51297200   1.008000   ; qtot 254.485290
10053         h1    359    ccc     H9  10053 0.05653400   1.008000   ; qtot 254.541824
10054         h1    359    ccc    H10  10054 0.05653400   1.008000   ; qtot 254.598358
10055         oh    359    ccc     O5  10055 -0.84113600  16.000000   ; qtot 253.757222
10056         ho    359    ccc    H11  10056 0.51201600   1.008000   ; qtot 254.269238
10057         os    359    ccc     O6  10057 -0.26013600  16.000000   ; qtot 254.009102
; residue  360 ccc rtp ccc q 0.0
10058         c3    360    ccc     C1  10058 -0.33178800  12.010000   ; qtot 253.677314
10059         c3    360    ccc     C2  10059 0.30606500  12.010000   ; qtot 253.983379
10060         h1    360    ccc     H1  10060 0.11662300   1.008000   ; qtot 254.100002
10061         h1    360    ccc     H2  10061 0.11526800   1.008000   ; qtot 254.215270
10062         c3    360    ccc     C3  10062 0.15592700  12.010000   ; qtot 254.371197
10063         c3    360    ccc     C4  10063 0.28383300  12.010000   ; qtot 254.655030
10064         c3    360    ccc     C5  10064 0.32403300  12.010000   ; qtot 254.979063
10065         h1    360    ccc     H3  10065 0.13386900   1.008000   ; qtot 255.112932
10066         h1    360    ccc     H4  10066 0.10146700   1.008000   ; qtot 255.214399
10067         h2    360    ccc     H5  10067 0.10960400   1.008000   ; qtot 255.324003
10068         os    360    ccc     O1  10068 -0.28650000  16.000000   ; qtot 255.037503
10069         oh    360    ccc     O2  10069 -0.86012500  16.000000   ; qtot 254.177378
10070         oh    360    ccc     O3  10070 -0.83772800  16.000000   ; qtot 253.339650
10071         oh    360    ccc     O4  10071 -0.77449700  16.000000   ; qtot 252.565153
10072         c3    360    ccc     C6  10072 0.37576500  12.010000   ; qtot 252.940918
10073         ho    360    ccc     H6  10073 0.53656000   1.008000   ; qtot 253.477478
10074         ho    360    ccc     H7  10074 0.49492100   1.008000   ; qtot 253.972399
10075         ho    360    ccc     H8  10075 0.51297200   1.008000   ; qtot 254.485371
10076         h1    360    ccc     H9  10076 0.05653400   1.008000   ; qtot 254.541905
10077         h1    360    ccc    H10  10077 0.05653400   1.008000   ; qtot 254.598439
10078         oh    360    ccc     O5  10078 -0.84113600  16.000000   ; qtot 253.757303
10079         ho    360    ccc    H11  10079 0.51201600   1.008000   ; qtot 254.269319
10080         os    360    ccc     O6  10080 -0.26013600  16.000000   ; qtot 254.009183
; residue  361 ccc rtp ccc q 0.0
10081         c3    361    ccc     C1  10081 -0.33178800  12.010000   ; qtot 253.677395
10082         c3    361    ccc     C2  10082 0.30606500  12.010000   ; qtot 253.983460
10083         h1    361    ccc     H1  10083 0.11662300   1.008000   ; qtot 254.100083
10084         h1    361    ccc     H2  10084 0.11526800   1.008000   ; qtot 254.215351
10085         c3    361    ccc     C3  10085 0.15592700  12.010000   ; qtot 254.371278
10086         c3    361    ccc     C4  10086 0.28383300  12.010000   ; qtot 254.655111
10087         c3    361    ccc     C5  10087 0.32403300  12.010000   ; qtot 254.979144
10088         h1    361    ccc     H3  10088 0.13386900   1.008000   ; qtot 255.113013
10089         h1    361    ccc     H4  10089 0.10146700   1.008000   ; qtot 255.214480
10090         h2    361    ccc     H5  10090 0.10960400   1.008000   ; qtot 255.324084
10091         os    361    ccc     O1  10091 -0.28650000  16.000000   ; qtot 255.037584
10092         oh    361    ccc     O2  10092 -0.86012500  16.000000   ; qtot 254.177459
10093         oh    361    ccc     O3  10093 -0.83772800  16.000000   ; qtot 253.339731
10094         oh    361    ccc     O4  10094 -0.77449700  16.000000   ; qtot 252.565234
10095         c3    361    ccc     C6  10095 0.37576500  12.010000   ; qtot 252.940999
10096         ho    361    ccc     H6  10096 0.53656000   1.008000   ; qtot 253.477559
10097         ho    361    ccc     H7  10097 0.49492100   1.008000   ; qtot 253.972480
10098         ho    361    ccc     H8  10098 0.51297200   1.008000   ; qtot 254.485452
10099         h1    361    ccc     H9  10099 0.05653400   1.008000   ; qtot 254.541986
10100         h1    361    ccc    H10  10100 0.05653400   1.008000   ; qtot 254.598520
10101         oh    361    ccc     O5  10101 -0.84113600  16.000000   ; qtot 253.757384
10102         ho    361    ccc    H11  10102 0.51201600   1.008000   ; qtot 254.269400
10103         os    361    ccc     O6  10103 -0.26013600  16.000000   ; qtot 254.009264
; residue  362 ccc rtp ccc q 0.0
10104         c3    362    ccc     C1  10104 -0.33178800  12.010000   ; qtot 253.677476
10105         c3    362    ccc     C2  10105 0.30606500  12.010000   ; qtot 253.983541
10106         h1    362    ccc     H1  10106 0.11662300   1.008000   ; qtot 254.100164
10107         h1    362    ccc     H2  10107 0.11526800   1.008000   ; qtot 254.215432
10108         c3    362    ccc     C3  10108 0.15592700  12.010000   ; qtot 254.371359
10109         c3    362    ccc     C4  10109 0.28383300  12.010000   ; qtot 254.655192
10110         c3    362    ccc     C5  10110 0.32403300  12.010000   ; qtot 254.979225
10111         h1    362    ccc     H3  10111 0.13386900   1.008000   ; qtot 255.113094
10112         h1    362    ccc     H4  10112 0.10146700   1.008000   ; qtot 255.214561
10113         h2    362    ccc     H5  10113 0.10960400   1.008000   ; qtot 255.324165
10114         os    362    ccc     O1  10114 -0.28650000  16.000000   ; qtot 255.037665
10115         oh    362    ccc     O2  10115 -0.86012500  16.000000   ; qtot 254.177540
10116         oh    362    ccc     O3  10116 -0.83772800  16.000000   ; qtot 253.339812
10117         oh    362    ccc     O4  10117 -0.77449700  16.000000   ; qtot 252.565315
10118         c3    362    ccc     C6  10118 0.37576500  12.010000   ; qtot 252.941080
10119         ho    362    ccc     H6  10119 0.53656000   1.008000   ; qtot 253.477640
10120         ho    362    ccc     H7  10120 0.49492100   1.008000   ; qtot 253.972561
10121         ho    362    ccc     H8  10121 0.51297200   1.008000   ; qtot 254.485533
10122         h1    362    ccc     H9  10122 0.05653400   1.008000   ; qtot 254.542067
10123         h1    362    ccc    H10  10123 0.05653400   1.008000   ; qtot 254.598601
10124         oh    362    ccc     O5  10124 -0.84113600  16.000000   ; qtot 253.757465
10125         ho    362    ccc    H11  10125 0.51201600   1.008000   ; qtot 254.269481
10126         os    362    ccc     O6  10126 -0.26013600  16.000000   ; qtot 254.009345
; residue  363 ccc rtp ccc q 0.0
10127         c3    363    ccc     C1  10127 -0.33178800  12.010000   ; qtot 253.677557
10128         c3    363    ccc     C2  10128 0.30606500  12.010000   ; qtot 253.983622
10129         h1    363    ccc     H1  10129 0.11662300   1.008000   ; qtot 254.100245
10130         h1    363    ccc     H2  10130 0.11526800   1.008000   ; qtot 254.215513
10131         c3    363    ccc     C3  10131 0.15592700  12.010000   ; qtot 254.371440
10132         c3    363    ccc     C4  10132 0.28383300  12.010000   ; qtot 254.655273
10133         c3    363    ccc     C5  10133 0.32403300  12.010000   ; qtot 254.979306
10134         h1    363    ccc     H3  10134 0.13386900   1.008000   ; qtot 255.113175
10135         h1    363    ccc     H4  10135 0.10146700   1.008000   ; qtot 255.214642
10136         h2    363    ccc     H5  10136 0.10960400   1.008000   ; qtot 255.324246
10137         os    363    ccc     O1  10137 -0.28650000  16.000000   ; qtot 255.037746
10138         oh    363    ccc     O2  10138 -0.86012500  16.000000   ; qtot 254.177621
10139         oh    363    ccc     O3  10139 -0.83772800  16.000000   ; qtot 253.339893
10140         oh    363    ccc     O4  10140 -0.77449700  16.000000   ; qtot 252.565396
10141         c3    363    ccc     C6  10141 0.37576500  12.010000   ; qtot 252.941161
10142         ho    363    ccc     H6  10142 0.53656000   1.008000   ; qtot 253.477721
10143         ho    363    ccc     H7  10143 0.49492100   1.008000   ; qtot 253.972642
10144         ho    363    ccc     H8  10144 0.51297200   1.008000   ; qtot 254.485614
10145         h1    363    ccc     H9  10145 0.05653400   1.008000   ; qtot 254.542148
10146         h1    363    ccc    H10  10146 0.05653400   1.008000   ; qtot 254.598682
10147         oh    363    ccc     O5  10147 -0.84113600  16.000000   ; qtot 253.757546
10148         ho    363    ccc    H11  10148 0.51201600   1.008000   ; qtot 254.269562
10149         os    363    ccc     O6  10149 -0.26013600  16.000000   ; qtot 254.009426
; residue  364 ccc rtp ccc q 0.0
10150         c3    364    ccc     C1  10150 -0.33178800  12.010000   ; qtot 253.677638
10151         c3    364    ccc     C2  10151 0.30606500  12.010000   ; qtot 253.983703
10152         h1    364    ccc     H1  10152 0.11662300   1.008000   ; qtot 254.100326
10153         h1    364    ccc     H2  10153 0.11526800   1.008000   ; qtot 254.215594
10154         c3    364    ccc     C3  10154 0.15592700  12.010000   ; qtot 254.371521
10155         c3    364    ccc     C4  10155 0.28383300  12.010000   ; qtot 254.655354
10156         c3    364    ccc     C5  10156 0.32403300  12.010000   ; qtot 254.979387
10157         h1    364    ccc     H3  10157 0.13386900   1.008000   ; qtot 255.113256
10158         h1    364    ccc     H4  10158 0.10146700   1.008000   ; qtot 255.214723
10159         h2    364    ccc     H5  10159 0.10960400   1.008000   ; qtot 255.324327
10160         os    364    ccc     O1  10160 -0.28650000  16.000000   ; qtot 255.037827
10161         oh    364    ccc     O2  10161 -0.86012500  16.000000   ; qtot 254.177702
10162         oh    364    ccc     O3  10162 -0.83772800  16.000000   ; qtot 253.339974
10163         oh    364    ccc     O4  10163 -0.77449700  16.000000   ; qtot 252.565477
10164         c3    364    ccc     C6  10164 0.37576500  12.010000   ; qtot 252.941242
10165         ho    364    ccc     H6  10165 0.53656000   1.008000   ; qtot 253.477802
10166         ho    364    ccc     H7  10166 0.49492100   1.008000   ; qtot 253.972723
10167         ho    364    ccc     H8  10167 0.51297200   1.008000   ; qtot 254.485695
10168         h1    364    ccc     H9  10168 0.05653400   1.008000   ; qtot 254.542229
10169         h1    364    ccc    H10  10169 0.05653400   1.008000   ; qtot 254.598763
10170         oh    364    ccc     O5  10170 -0.84113600  16.000000   ; qtot 253.757627
10171         ho    364    ccc    H11  10171 0.51201600   1.008000   ; qtot 254.269643
10172         os    364    ccc     O6  10172 -0.26013600  16.000000   ; qtot 254.009507
; residue  365 ccc rtp ccc q 0.0
10173         c3    365    ccc     C1  10173 -0.33178800  12.010000   ; qtot 253.677719
10174         c3    365    ccc     C2  10174 0.30606500  12.010000   ; qtot 253.983784
10175         h1    365    ccc     H1  10175 0.11662300   1.008000   ; qtot 254.100407
10176         h1    365    ccc     H2  10176 0.11526800   1.008000   ; qtot 254.215675
10177         c3    365    ccc     C3  10177 0.15592700  12.010000   ; qtot 254.371602
10178         c3    365    ccc     C4  10178 0.28383300  12.010000   ; qtot 254.655435
10179         c3    365    ccc     C5  10179 0.32403300  12.010000   ; qtot 254.979468
10180         h1    365    ccc     H3  10180 0.13386900   1.008000   ; qtot 255.113337
10181         h1    365    ccc     H4  10181 0.10146700   1.008000   ; qtot 255.214804
10182         h2    365    ccc     H5  10182 0.10960400   1.008000   ; qtot 255.324408
10183         os    365    ccc     O1  10183 -0.28650000  16.000000   ; qtot 255.037908
10184         oh    365    ccc     O2  10184 -0.86012500  16.000000   ; qtot 254.177783
10185         oh    365    ccc     O3  10185 -0.83772800  16.000000   ; qtot 253.340055
10186         oh    365    ccc     O4  10186 -0.77449700  16.000000   ; qtot 252.565558
10187         c3    365    ccc     C6  10187 0.37576500  12.010000   ; qtot 252.941323
10188         ho    365    ccc     H6  10188 0.53656000   1.008000   ; qtot 253.477883
10189         ho    365    ccc     H7  10189 0.49492100   1.008000   ; qtot 253.972804
10190         ho    365    ccc     H8  10190 0.51297200   1.008000   ; qtot 254.485776
10191         h1    365    ccc     H9  10191 0.05653400   1.008000   ; qtot 254.542310
10192         h1    365    ccc    H10  10192 0.05653400   1.008000   ; qtot 254.598844
10193         oh    365    ccc     O5  10193 -0.84113600  16.000000   ; qtot 253.757708
10194         ho    365    ccc    H11  10194 0.51201600   1.008000   ; qtot 254.269724
10195         os    365    ccc     O6  10195 -0.26013600  16.000000   ; qtot 254.009588
; residue  366 ccc rtp ccc q 0.0
10196         c3    366    ccc     C1  10196 -0.33178800  12.010000   ; qtot 253.677800
10197         c3    366    ccc     C2  10197 0.30606500  12.010000   ; qtot 253.983865
10198         h1    366    ccc     H1  10198 0.11662300   1.008000   ; qtot 254.100488
10199         h1    366    ccc     H2  10199 0.11526800   1.008000   ; qtot 254.215756
10200         c3    366    ccc     C3  10200 0.15592700  12.010000   ; qtot 254.371683
10201         c3    366    ccc     C4  10201 0.28383300  12.010000   ; qtot 254.655516
10202         c3    366    ccc     C5  10202 0.32403300  12.010000   ; qtot 254.979549
10203         h1    366    ccc     H3  10203 0.13386900   1.008000   ; qtot 255.113418
10204         h1    366    ccc     H4  10204 0.10146700   1.008000   ; qtot 255.214885
10205         h2    366    ccc     H5  10205 0.10960400   1.008000   ; qtot 255.324489
10206         os    366    ccc     O1  10206 -0.28650000  16.000000   ; qtot 255.037989
10207         oh    366    ccc     O2  10207 -0.86012500  16.000000   ; qtot 254.177864
10208         oh    366    ccc     O3  10208 -0.83772800  16.000000   ; qtot 253.340136
10209         oh    366    ccc     O4  10209 -0.77449700  16.000000   ; qtot 252.565639
10210         c3    366    ccc     C6  10210 0.37576500  12.010000   ; qtot 252.941404
10211         ho    366    ccc     H6  10211 0.53656000   1.008000   ; qtot 253.477964
10212         ho    366    ccc     H7  10212 0.49492100   1.008000   ; qtot 253.972885
10213         ho    366    ccc     H8  10213 0.51297200   1.008000   ; qtot 254.485857
10214         h1    366    ccc     H9  10214 0.05653400   1.008000   ; qtot 254.542391
10215         h1    366    ccc    H10  10215 0.05653400   1.008000   ; qtot 254.598925
10216         oh    366    ccc     O5  10216 -0.84113600  16.000000   ; qtot 253.757789
10217         ho    366    ccc    H11  10217 0.51201600   1.008000   ; qtot 254.269805
10218         os    366    ccc     O6  10218 -0.26013600  16.000000   ; qtot 254.009669
; residue  367 ccc rtp ccc q 0.0
10219         c3    367    ccc     C1  10219 -0.33178800  12.010000   ; qtot 253.677881
10220         c3    367    ccc     C2  10220 0.30606500  12.010000   ; qtot 253.983946
10221         h1    367    ccc     H1  10221 0.11662300   1.008000   ; qtot 254.100569
10222         h1    367    ccc     H2  10222 0.11526800   1.008000   ; qtot 254.215837
10223         c3    367    ccc     C3  10223 0.15592700  12.010000   ; qtot 254.371764
10224         c3    367    ccc     C4  10224 0.28383300  12.010000   ; qtot 254.655597
10225         c3    367    ccc     C5  10225 0.32403300  12.010000   ; qtot 254.979630
10226         h1    367    ccc     H3  10226 0.13386900   1.008000   ; qtot 255.113499
10227         h1    367    ccc     H4  10227 0.10146700   1.008000   ; qtot 255.214966
10228         h2    367    ccc     H5  10228 0.10960400   1.008000   ; qtot 255.324570
10229         os    367    ccc     O1  10229 -0.28650000  16.000000   ; qtot 255.038070
10230         oh    367    ccc     O2  10230 -0.86012500  16.000000   ; qtot 254.177945
10231         oh    367    ccc     O3  10231 -0.83772800  16.000000   ; qtot 253.340217
10232         oh    367    ccc     O4  10232 -0.77449700  16.000000   ; qtot 252.565720
10233         c3    367    ccc     C6  10233 0.37576500  12.010000   ; qtot 252.941485
10234         ho    367    ccc     H6  10234 0.53656000   1.008000   ; qtot 253.478045
10235         ho    367    ccc     H7  10235 0.49492100   1.008000   ; qtot 253.972966
10236         ho    367    ccc     H8  10236 0.51297200   1.008000   ; qtot 254.485938
10237         h1    367    ccc     H9  10237 0.05653400   1.008000   ; qtot 254.542472
10238         h1    367    ccc    H10  10238 0.05653400   1.008000   ; qtot 254.599006
10239         oh    367    ccc     O5  10239 -0.84113600  16.000000   ; qtot 253.757870
10240         ho    367    ccc    H11  10240 0.51201600   1.008000   ; qtot 254.269886
10241         os    367    ccc     O6  10241 -0.26013600  16.000000   ; qtot 254.009750
; residue  368 ccc rtp ccc q 0.0
10242         c3    368    ccc     C1  10242 -0.33178800  12.010000   ; qtot 253.677962
10243         c3    368    ccc     C2  10243 0.30606500  12.010000   ; qtot 253.984027
10244         h1    368    ccc     H1  10244 0.11662300   1.008000   ; qtot 254.100650
10245         h1    368    ccc     H2  10245 0.11526800   1.008000   ; qtot 254.215918
10246         c3    368    ccc     C3  10246 0.15592700  12.010000   ; qtot 254.371845
10247         c3    368    ccc     C4  10247 0.28383300  12.010000   ; qtot 254.655678
10248         c3    368    ccc     C5  10248 0.32403300  12.010000   ; qtot 254.979711
10249         h1    368    ccc     H3  10249 0.13386900   1.008000   ; qtot 255.113580
10250         h1    368    ccc     H4  10250 0.10146700   1.008000   ; qtot 255.215047
10251         h2    368    ccc     H5  10251 0.10960400   1.008000   ; qtot 255.324651
10252         os    368    ccc     O1  10252 -0.28650000  16.000000   ; qtot 255.038151
10253         oh    368    ccc     O2  10253 -0.86012500  16.000000   ; qtot 254.178026
10254         oh    368    ccc     O3  10254 -0.83772800  16.000000   ; qtot 253.340298
10255         oh    368    ccc     O4  10255 -0.77449700  16.000000   ; qtot 252.565801
10256         c3    368    ccc     C6  10256 0.37576500  12.010000   ; qtot 252.941566
10257         ho    368    ccc     H6  10257 0.53656000   1.008000   ; qtot 253.478126
10258         ho    368    ccc     H7  10258 0.49492100   1.008000   ; qtot 253.973047
10259         ho    368    ccc     H8  10259 0.51297200   1.008000   ; qtot 254.486019
10260         h1    368    ccc     H9  10260 0.05653400   1.008000   ; qtot 254.542553
10261         h1    368    ccc    H10  10261 0.05653400   1.008000   ; qtot 254.599087
10262         oh    368    ccc     O5  10262 -0.84113600  16.000000   ; qtot 253.757951
10263         ho    368    ccc    H11  10263 0.51201600   1.008000   ; qtot 254.269967
10264         os    368    ccc     O6  10264 -0.26013600  16.000000   ; qtot 254.009831
; residue  369 ccc rtp ccc q 0.0
10265         c3    369    ccc     C1  10265 -0.33178800  12.010000   ; qtot 253.678043
10266         c3    369    ccc     C2  10266 0.30606500  12.010000   ; qtot 253.984108
10267         h1    369    ccc     H1  10267 0.11662300   1.008000   ; qtot 254.100731
10268         h1    369    ccc     H2  10268 0.11526800   1.008000   ; qtot 254.215999
10269         c3    369    ccc     C3  10269 0.15592700  12.010000   ; qtot 254.371926
10270         c3    369    ccc     C4  10270 0.28383300  12.010000   ; qtot 254.655759
10271         c3    369    ccc     C5  10271 0.32403300  12.010000   ; qtot 254.979792
10272         h1    369    ccc     H3  10272 0.13386900   1.008000   ; qtot 255.113661
10273         h1    369    ccc     H4  10273 0.10146700   1.008000   ; qtot 255.215128
10274         h2    369    ccc     H5  10274 0.10960400   1.008000   ; qtot 255.324732
10275         os    369    ccc     O1  10275 -0.28650000  16.000000   ; qtot 255.038232
10276         oh    369    ccc     O2  10276 -0.86012500  16.000000   ; qtot 254.178107
10277         oh    369    ccc     O3  10277 -0.83772800  16.000000   ; qtot 253.340379
10278         oh    369    ccc     O4  10278 -0.77449700  16.000000   ; qtot 252.565882
10279         c3    369    ccc     C6  10279 0.37576500  12.010000   ; qtot 252.941647
10280         ho    369    ccc     H6  10280 0.53656000   1.008000   ; qtot 253.478207
10281         ho    369    ccc     H7  10281 0.49492100   1.008000   ; qtot 253.973128
10282         ho    369    ccc     H8  10282 0.51297200   1.008000   ; qtot 254.486100
10283         h1    369    ccc     H9  10283 0.05653400   1.008000   ; qtot 254.542634
10284         h1    369    ccc    H10  10284 0.05653400   1.008000   ; qtot 254.599168
10285         oh    369    ccc     O5  10285 -0.84113600  16.000000   ; qtot 253.758032
10286         ho    369    ccc    H11  10286 0.51201600   1.008000   ; qtot 254.270048
10287         os    369    ccc     O6  10287 -0.26013600  16.000000   ; qtot 254.009912
; residue  370 ccc rtp ccc q 0.0
10288         c3    370    ccc     C1  10288 -0.33178800  12.010000   ; qtot 253.678124
10289         c3    370    ccc     C2  10289 0.30606500  12.010000   ; qtot 253.984189
10290         h1    370    ccc     H1  10290 0.11662300   1.008000   ; qtot 254.100812
10291         h1    370    ccc     H2  10291 0.11526800   1.008000   ; qtot 254.216080
10292         c3    370    ccc     C3  10292 0.15592700  12.010000   ; qtot 254.372007
10293         c3    370    ccc     C4  10293 0.28383300  12.010000   ; qtot 254.655840
10294         c3    370    ccc     C5  10294 0.32403300  12.010000   ; qtot 254.979873
10295         h1    370    ccc     H3  10295 0.13386900   1.008000   ; qtot 255.113742
10296         h1    370    ccc     H4  10296 0.10146700   1.008000   ; qtot 255.215209
10297         h2    370    ccc     H5  10297 0.10960400   1.008000   ; qtot 255.324813
10298         os    370    ccc     O1  10298 -0.28650000  16.000000   ; qtot 255.038313
10299         oh    370    ccc     O2  10299 -0.86012500  16.000000   ; qtot 254.178188
10300         oh    370    ccc     O3  10300 -0.83772800  16.000000   ; qtot 253.340460
10301         oh    370    ccc     O4  10301 -0.77449700  16.000000   ; qtot 252.565963
10302         c3    370    ccc     C6  10302 0.37576500  12.010000   ; qtot 252.941728
10303         ho    370    ccc     H6  10303 0.53656000   1.008000   ; qtot 253.478288
10304         ho    370    ccc     H7  10304 0.49492100   1.008000   ; qtot 253.973209
10305         ho    370    ccc     H8  10305 0.51297200   1.008000   ; qtot 254.486181
10306         h1    370    ccc     H9  10306 0.05653400   1.008000   ; qtot 254.542715
10307         h1    370    ccc    H10  10307 0.05653400   1.008000   ; qtot 254.599249
10308         oh    370    ccc     O5  10308 -0.84113600  16.000000   ; qtot 253.758113
10309         ho    370    ccc    H11  10309 0.51201600   1.008000   ; qtot 254.270129
10310         os    370    ccc     O6  10310 -0.26013600  16.000000   ; qtot 254.009993
; residue  371 ccc rtp ccc q 0.0
10311         c3    371    ccc     C1  10311 -0.33178800  12.010000   ; qtot 253.678205
10312         c3    371    ccc     C2  10312 0.30606500  12.010000   ; qtot 253.984270
10313         h1    371    ccc     H1  10313 0.11662300   1.008000   ; qtot 254.100893
10314         h1    371    ccc     H2  10314 0.11526800   1.008000   ; qtot 254.216161
10315         c3    371    ccc     C3  10315 0.15592700  12.010000   ; qtot 254.372088
10316         c3    371    ccc     C4  10316 0.28383300  12.010000   ; qtot 254.655921
10317         c3    371    ccc     C5  10317 0.32403300  12.010000   ; qtot 254.979954
10318         h1    371    ccc     H3  10318 0.13386900   1.008000   ; qtot 255.113823
10319         h1    371    ccc     H4  10319 0.10146700   1.008000   ; qtot 255.215290
10320         h2    371    ccc     H5  10320 0.10960400   1.008000   ; qtot 255.324894
10321         os    371    ccc     O1  10321 -0.28650000  16.000000   ; qtot 255.038394
10322         oh    371    ccc     O2  10322 -0.86012500  16.000000   ; qtot 254.178269
10323         oh    371    ccc     O3  10323 -0.83772800  16.000000   ; qtot 253.340541
10324         oh    371    ccc     O4  10324 -0.77449700  16.000000   ; qtot 252.566044
10325         c3    371    ccc     C6  10325 0.37576500  12.010000   ; qtot 252.941809
10326         ho    371    ccc     H6  10326 0.53656000   1.008000   ; qtot 253.478369
10327         ho    371    ccc     H7  10327 0.49492100   1.008000   ; qtot 253.973290
10328         ho    371    ccc     H8  10328 0.51297200   1.008000   ; qtot 254.486262
10329         h1    371    ccc     H9  10329 0.05653400   1.008000   ; qtot 254.542796
10330         h1    371    ccc    H10  10330 0.05653400   1.008000   ; qtot 254.599330
10331         oh    371    ccc     O5  10331 -0.84113600  16.000000   ; qtot 253.758194
10332         ho    371    ccc    H11  10332 0.51201600   1.008000   ; qtot 254.270210
10333         os    371    ccc     O6  10333 -0.26013600  16.000000   ; qtot 254.010074
; residue  372 ccc rtp ccc q 0.0
10334         c3    372    ccc     C1  10334 -0.33178800  12.010000   ; qtot 253.678286
10335         c3    372    ccc     C2  10335 0.30606500  12.010000   ; qtot 253.984351
10336         h1    372    ccc     H1  10336 0.11662300   1.008000   ; qtot 254.100974
10337         h1    372    ccc     H2  10337 0.11526800   1.008000   ; qtot 254.216242
10338         c3    372    ccc     C3  10338 0.15592700  12.010000   ; qtot 254.372169
10339         c3    372    ccc     C4  10339 0.28383300  12.010000   ; qtot 254.656002
10340         c3    372    ccc     C5  10340 0.32403300  12.010000   ; qtot 254.980035
10341         h1    372    ccc     H3  10341 0.13386900   1.008000   ; qtot 255.113904
10342         h1    372    ccc     H4  10342 0.10146700   1.008000   ; qtot 255.215371
10343         h2    372    ccc     H5  10343 0.10960400   1.008000   ; qtot 255.324975
10344         os    372    ccc     O1  10344 -0.28650000  16.000000   ; qtot 255.038475
10345         oh    372    ccc     O2  10345 -0.86012500  16.000000   ; qtot 254.178350
10346         oh    372    ccc     O3  10346 -0.83772800  16.000000   ; qtot 253.340622
10347         oh    372    ccc     O4  10347 -0.77449700  16.000000   ; qtot 252.566125
10348         c3    372    ccc     C6  10348 0.37576500  12.010000   ; qtot 252.941890
10349         ho    372    ccc     H6  10349 0.53656000   1.008000   ; qtot 253.478450
10350         ho    372    ccc     H7  10350 0.49492100   1.008000   ; qtot 253.973371
10351         ho    372    ccc     H8  10351 0.51297200   1.008000   ; qtot 254.486343
10352         h1    372    ccc     H9  10352 0.05653400   1.008000   ; qtot 254.542877
10353         h1    372    ccc    H10  10353 0.05653400   1.008000   ; qtot 254.599411
10354         oh    372    ccc     O5  10354 -0.84113600  16.000000   ; qtot 253.758275
10355         ho    372    ccc    H11  10355 0.51201600   1.008000   ; qtot 254.270291
10356         os    372    ccc     O6  10356 -0.26013600  16.000000   ; qtot 254.010155
; residue  373 ccc rtp ccc q 0.0
10357         c3    373    ccc     C1  10357 -0.33178800  12.010000   ; qtot 253.678367
10358         c3    373    ccc     C2  10358 0.30606500  12.010000   ; qtot 253.984432
10359         h1    373    ccc     H1  10359 0.11662300   1.008000   ; qtot 254.101055
10360         h1    373    ccc     H2  10360 0.11526800   1.008000   ; qtot 254.216323
10361         c3    373    ccc     C3  10361 0.15592700  12.010000   ; qtot 254.372250
10362         c3    373    ccc     C4  10362 0.28383300  12.010000   ; qtot 254.656083
10363         c3    373    ccc     C5  10363 0.32403300  12.010000   ; qtot 254.980116
10364         h1    373    ccc     H3  10364 0.13386900   1.008000   ; qtot 255.113985
10365         h1    373    ccc     H4  10365 0.10146700   1.008000   ; qtot 255.215452
10366         h2    373    ccc     H5  10366 0.10960400   1.008000   ; qtot 255.325056
10367         os    373    ccc     O1  10367 -0.28650000  16.000000   ; qtot 255.038556
10368         oh    373    ccc     O2  10368 -0.86012500  16.000000   ; qtot 254.178431
10369         oh    373    ccc     O3  10369 -0.83772800  16.000000   ; qtot 253.340703
10370         oh    373    ccc     O4  10370 -0.77449700  16.000000   ; qtot 252.566206
10371         c3    373    ccc     C6  10371 0.37576500  12.010000   ; qtot 252.941971
10372         ho    373    ccc     H6  10372 0.53656000   1.008000   ; qtot 253.478531
10373         ho    373    ccc     H7  10373 0.49492100   1.008000   ; qtot 253.973452
10374         ho    373    ccc     H8  10374 0.51297200   1.008000   ; qtot 254.486424
10375         h1    373    ccc     H9  10375 0.05653400   1.008000   ; qtot 254.542958
10376         h1    373    ccc    H10  10376 0.05653400   1.008000   ; qtot 254.599492
10377         oh    373    ccc     O5  10377 -0.84113600  16.000000   ; qtot 253.758356
10378         ho    373    ccc    H11  10378 0.51201600   1.008000   ; qtot 254.270372
10379         os    373    ccc     O6  10379 -0.26013600  16.000000   ; qtot 254.010236
; residue  374 ccc rtp ccc q 0.0
10380         c3    374    ccc     C1  10380 -0.33178800  12.010000   ; qtot 253.678448
10381         c3    374    ccc     C2  10381 0.30606500  12.010000   ; qtot 253.984513
10382         h1    374    ccc     H1  10382 0.11662300   1.008000   ; qtot 254.101136
10383         h1    374    ccc     H2  10383 0.11526800   1.008000   ; qtot 254.216404
10384         c3    374    ccc     C3  10384 0.15592700  12.010000   ; qtot 254.372331
10385         c3    374    ccc     C4  10385 0.28383300  12.010000   ; qtot 254.656164
10386         c3    374    ccc     C5  10386 0.32403300  12.010000   ; qtot 254.980197
10387         h1    374    ccc     H3  10387 0.13386900   1.008000   ; qtot 255.114066
10388         h1    374    ccc     H4  10388 0.10146700   1.008000   ; qtot 255.215533
10389         h2    374    ccc     H5  10389 0.10960400   1.008000   ; qtot 255.325137
10390         os    374    ccc     O1  10390 -0.28650000  16.000000   ; qtot 255.038637
10391         oh    374    ccc     O2  10391 -0.86012500  16.000000   ; qtot 254.178512
10392         oh    374    ccc     O3  10392 -0.83772800  16.000000   ; qtot 253.340784
10393         oh    374    ccc     O4  10393 -0.77449700  16.000000   ; qtot 252.566287
10394         c3    374    ccc     C6  10394 0.37576500  12.010000   ; qtot 252.942052
10395         ho    374    ccc     H6  10395 0.53656000   1.008000   ; qtot 253.478612
10396         ho    374    ccc     H7  10396 0.49492100   1.008000   ; qtot 253.973533
10397         ho    374    ccc     H8  10397 0.51297200   1.008000   ; qtot 254.486505
10398         h1    374    ccc     H9  10398 0.05653400   1.008000   ; qtot 254.543039
10399         h1    374    ccc    H10  10399 0.05653400   1.008000   ; qtot 254.599573
10400         oh    374    ccc     O5  10400 -0.84113600  16.000000   ; qtot 253.758437
10401         ho    374    ccc    H11  10401 0.51201600   1.008000   ; qtot 254.270453
10402         os    374    ccc     O6  10402 -0.26013600  16.000000   ; qtot 254.010317
; residue  375 ccc rtp ccc q 0.0
10403         c3    375    ccc     C1  10403 -0.33178800  12.010000   ; qtot 253.678529
10404         c3    375    ccc     C2  10404 0.30606500  12.010000   ; qtot 253.984594
10405         h1    375    ccc     H1  10405 0.11662300   1.008000   ; qtot 254.101217
10406         h1    375    ccc     H2  10406 0.11526800   1.008000   ; qtot 254.216485
10407         c3    375    ccc     C3  10407 0.15592700  12.010000   ; qtot 254.372412
10408         c3    375    ccc     C4  10408 0.28383300  12.010000   ; qtot 254.656245
10409         c3    375    ccc     C5  10409 0.32403300  12.010000   ; qtot 254.980278
10410         h1    375    ccc     H3  10410 0.13386900   1.008000   ; qtot 255.114147
10411         h1    375    ccc     H4  10411 0.10146700   1.008000   ; qtot 255.215614
10412         h2    375    ccc     H5  10412 0.10960400   1.008000   ; qtot 255.325218
10413         os    375    ccc     O1  10413 -0.28650000  16.000000   ; qtot 255.038718
10414         oh    375    ccc     O2  10414 -0.86012500  16.000000   ; qtot 254.178593
10415         oh    375    ccc     O3  10415 -0.83772800  16.000000   ; qtot 253.340865
10416         oh    375    ccc     O4  10416 -0.77449700  16.000000   ; qtot 252.566368
10417         c3    375    ccc     C6  10417 0.37576500  12.010000   ; qtot 252.942133
10418         ho    375    ccc     H6  10418 0.53656000   1.008000   ; qtot 253.478693
10419         ho    375    ccc     H7  10419 0.49492100   1.008000   ; qtot 253.973614
10420         ho    375    ccc     H8  10420 0.51297200   1.008000   ; qtot 254.486586
10421         h1    375    ccc     H9  10421 0.05653400   1.008000   ; qtot 254.543120
10422         h1    375    ccc    H10  10422 0.05653400   1.008000   ; qtot 254.599654
10423         oh    375    ccc     O5  10423 -0.84113600  16.000000   ; qtot 253.758518
10424         ho    375    ccc    H11  10424 0.51201600   1.008000   ; qtot 254.270534
10425         os    375    ccc     O6  10425 -0.26013600  16.000000   ; qtot 254.010398
; residue  376 ccc rtp ccc q 0.0
10426         c3    376    ccc     C1  10426 -0.33178800  12.010000   ; qtot 253.678610
10427         c3    376    ccc     C2  10427 0.30606500  12.010000   ; qtot 253.984675
10428         h1    376    ccc     H1  10428 0.11662300   1.008000   ; qtot 254.101298
10429         h1    376    ccc     H2  10429 0.11526800   1.008000   ; qtot 254.216566
10430         c3    376    ccc     C3  10430 0.15592700  12.010000   ; qtot 254.372493
10431         c3    376    ccc     C4  10431 0.28383300  12.010000   ; qtot 254.656326
10432         c3    376    ccc     C5  10432 0.32403300  12.010000   ; qtot 254.980359
10433         h1    376    ccc     H3  10433 0.13386900   1.008000   ; qtot 255.114228
10434         h1    376    ccc     H4  10434 0.10146700   1.008000   ; qtot 255.215695
10435         h2    376    ccc     H5  10435 0.10960400   1.008000   ; qtot 255.325299
10436         os    376    ccc     O1  10436 -0.28650000  16.000000   ; qtot 255.038799
10437         oh    376    ccc     O2  10437 -0.86012500  16.000000   ; qtot 254.178674
10438         oh    376    ccc     O3  10438 -0.83772800  16.000000   ; qtot 253.340946
10439         oh    376    ccc     O4  10439 -0.77449700  16.000000   ; qtot 252.566449
10440         c3    376    ccc     C6  10440 0.37576500  12.010000   ; qtot 252.942214
10441         ho    376    ccc     H6  10441 0.53656000   1.008000   ; qtot 253.478774
10442         ho    376    ccc     H7  10442 0.49492100   1.008000   ; qtot 253.973695
10443         ho    376    ccc     H8  10443 0.51297200   1.008000   ; qtot 254.486667
10444         h1    376    ccc     H9  10444 0.05653400   1.008000   ; qtot 254.543201
10445         h1    376    ccc    H10  10445 0.05653400   1.008000   ; qtot 254.599735
10446         oh    376    ccc     O5  10446 -0.84113600  16.000000   ; qtot 253.758599
10447         ho    376    ccc    H11  10447 0.51201600   1.008000   ; qtot 254.270615
10448         os    376    ccc     O6  10448 -0.26013600  16.000000   ; qtot 254.010479
; residue  377 ccc rtp ccc q 0.0
10449         c3    377    ccc     C1  10449 -0.33178800  12.010000   ; qtot 253.678691
10450         c3    377    ccc     C2  10450 0.30606500  12.010000   ; qtot 253.984756
10451         h1    377    ccc     H1  10451 0.11662300   1.008000   ; qtot 254.101379
10452         h1    377    ccc     H2  10452 0.11526800   1.008000   ; qtot 254.216647
10453         c3    377    ccc     C3  10453 0.15592700  12.010000   ; qtot 254.372574
10454         c3    377    ccc     C4  10454 0.28383300  12.010000   ; qtot 254.656407
10455         c3    377    ccc     C5  10455 0.32403300  12.010000   ; qtot 254.980440
10456         h1    377    ccc     H3  10456 0.13386900   1.008000   ; qtot 255.114309
10457         h1    377    ccc     H4  10457 0.10146700   1.008000   ; qtot 255.215776
10458         h2    377    ccc     H5  10458 0.10960400   1.008000   ; qtot 255.325380
10459         os    377    ccc     O1  10459 -0.28650000  16.000000   ; qtot 255.038880
10460         oh    377    ccc     O2  10460 -0.86012500  16.000000   ; qtot 254.178755
10461         oh    377    ccc     O3  10461 -0.83772800  16.000000   ; qtot 253.341027
10462         oh    377    ccc     O4  10462 -0.77449700  16.000000   ; qtot 252.566530
10463         c3    377    ccc     C6  10463 0.37576500  12.010000   ; qtot 252.942295
10464         ho    377    ccc     H6  10464 0.53656000   1.008000   ; qtot 253.478855
10465         ho    377    ccc     H7  10465 0.49492100   1.008000   ; qtot 253.973776
10466         ho    377    ccc     H8  10466 0.51297200   1.008000   ; qtot 254.486748
10467         h1    377    ccc     H9  10467 0.05653400   1.008000   ; qtot 254.543282
10468         h1    377    ccc    H10  10468 0.05653400   1.008000   ; qtot 254.599816
10469         oh    377    ccc     O5  10469 -0.84113600  16.000000   ; qtot 253.758680
10470         ho    377    ccc    H11  10470 0.51201600   1.008000   ; qtot 254.270696
10471         os    377    ccc     O6  10471 -0.26013600  16.000000   ; qtot 254.010560
; residue  378 ccc rtp ccc q 0.0
10472         c3    378    ccc     C1  10472 -0.33178800  12.010000   ; qtot 253.678772
10473         c3    378    ccc     C2  10473 0.30606500  12.010000   ; qtot 253.984837
10474         h1    378    ccc     H1  10474 0.11662300   1.008000   ; qtot 254.101460
10475         h1    378    ccc     H2  10475 0.11526800   1.008000   ; qtot 254.216728
10476         c3    378    ccc     C3  10476 0.15592700  12.010000   ; qtot 254.372655
10477         c3    378    ccc     C4  10477 0.28383300  12.010000   ; qtot 254.656488
10478         c3    378    ccc     C5  10478 0.32403300  12.010000   ; qtot 254.980521
10479         h1    378    ccc     H3  10479 0.13386900   1.008000   ; qtot 255.114390
10480         h1    378    ccc     H4  10480 0.10146700   1.008000   ; qtot 255.215857
10481         h2    378    ccc     H5  10481 0.10960400   1.008000   ; qtot 255.325461
10482         os    378    ccc     O1  10482 -0.28650000  16.000000   ; qtot 255.038961
10483         oh    378    ccc     O2  10483 -0.86012500  16.000000   ; qtot 254.178836
10484         oh    378    ccc     O3  10484 -0.83772800  16.000000   ; qtot 253.341108
10485         oh    378    ccc     O4  10485 -0.77449700  16.000000   ; qtot 252.566611
10486         c3    378    ccc     C6  10486 0.37576500  12.010000   ; qtot 252.942376
10487         ho    378    ccc     H6  10487 0.53656000   1.008000   ; qtot 253.478936
10488         ho    378    ccc     H7  10488 0.49492100   1.008000   ; qtot 253.973857
10489         ho    378    ccc     H8  10489 0.51297200   1.008000   ; qtot 254.486829
10490         h1    378    ccc     H9  10490 0.05653400   1.008000   ; qtot 254.543363
10491         h1    378    ccc    H10  10491 0.05653400   1.008000   ; qtot 254.599897
10492         oh    378    ccc     O5  10492 -0.84113600  16.000000   ; qtot 253.758761
10493         ho    378    ccc    H11  10493 0.51201600   1.008000   ; qtot 254.270777
10494         os    378    ccc     O6  10494 -0.26013600  16.000000   ; qtot 254.010641
; residue  379 ccc rtp ccc q 0.0
10495         c3    379    ccc     C1  10495 -0.33178800  12.010000   ; qtot 253.678853
10496         c3    379    ccc     C2  10496 0.30606500  12.010000   ; qtot 253.984918
10497         h1    379    ccc     H1  10497 0.11662300   1.008000   ; qtot 254.101541
10498         h1    379    ccc     H2  10498 0.11526800   1.008000   ; qtot 254.216809
10499         c3    379    ccc     C3  10499 0.15592700  12.010000   ; qtot 254.372736
10500         c3    379    ccc     C4  10500 0.28383300  12.010000   ; qtot 254.656569
10501         c3    379    ccc     C5  10501 0.32403300  12.010000   ; qtot 254.980602
10502         h1    379    ccc     H3  10502 0.13386900   1.008000   ; qtot 255.114471
10503         h1    379    ccc     H4  10503 0.10146700   1.008000   ; qtot 255.215938
10504         h2    379    ccc     H5  10504 0.10960400   1.008000   ; qtot 255.325542
10505         os    379    ccc     O1  10505 -0.28650000  16.000000   ; qtot 255.039042
10506         oh    379    ccc     O2  10506 -0.86012500  16.000000   ; qtot 254.178917
10507         oh    379    ccc     O3  10507 -0.83772800  16.000000   ; qtot 253.341189
10508         oh    379    ccc     O4  10508 -0.77449700  16.000000   ; qtot 252.566692
10509         c3    379    ccc     C6  10509 0.37576500  12.010000   ; qtot 252.942457
10510         ho    379    ccc     H6  10510 0.53656000   1.008000   ; qtot 253.479017
10511         ho    379    ccc     H7  10511 0.49492100   1.008000   ; qtot 253.973938
10512         ho    379    ccc     H8  10512 0.51297200   1.008000   ; qtot 254.486910
10513         h1    379    ccc     H9  10513 0.05653400   1.008000   ; qtot 254.543444
10514         h1    379    ccc    H10  10514 0.05653400   1.008000   ; qtot 254.599978
10515         oh    379    ccc     O5  10515 -0.84113600  16.000000   ; qtot 253.758842
10516         ho    379    ccc    H11  10516 0.51201600   1.008000   ; qtot 254.270858
10517         os    379    ccc     O6  10517 -0.26013600  16.000000   ; qtot 254.010722
; residue  380 ccc rtp ccc q 0.0
10518         c3    380    ccc     C1  10518 -0.33178800  12.010000   ; qtot 253.678934
10519         c3    380    ccc     C2  10519 0.30606500  12.010000   ; qtot 253.984999
10520         h1    380    ccc     H1  10520 0.11662300   1.008000   ; qtot 254.101622
10521         h1    380    ccc     H2  10521 0.11526800   1.008000   ; qtot 254.216890
10522         c3    380    ccc     C3  10522 0.15592700  12.010000   ; qtot 254.372817
10523         c3    380    ccc     C4  10523 0.28383300  12.010000   ; qtot 254.656650
10524         c3    380    ccc     C5  10524 0.32403300  12.010000   ; qtot 254.980683
10525         h1    380    ccc     H3  10525 0.13386900   1.008000   ; qtot 255.114552
10526         h1    380    ccc     H4  10526 0.10146700   1.008000   ; qtot 255.216019
10527         h2    380    ccc     H5  10527 0.10960400   1.008000   ; qtot 255.325623
10528         os    380    ccc     O1  10528 -0.28650000  16.000000   ; qtot 255.039123
10529         oh    380    ccc     O2  10529 -0.86012500  16.000000   ; qtot 254.178998
10530         oh    380    ccc     O3  10530 -0.83772800  16.000000   ; qtot 253.341270
10531         oh    380    ccc     O4  10531 -0.77449700  16.000000   ; qtot 252.566773
10532         c3    380    ccc     C6  10532 0.37576500  12.010000   ; qtot 252.942538
10533         ho    380    ccc     H6  10533 0.53656000   1.008000   ; qtot 253.479098
10534         ho    380    ccc     H7  10534 0.49492100   1.008000   ; qtot 253.974019
10535         ho    380    ccc     H8  10535 0.51297200   1.008000   ; qtot 254.486991
10536         h1    380    ccc     H9  10536 0.05653400   1.008000   ; qtot 254.543525
10537         h1    380    ccc    H10  10537 0.05653400   1.008000   ; qtot 254.600059
10538         oh    380    ccc     O5  10538 -0.84113600  16.000000   ; qtot 253.758923
10539         ho    380    ccc    H11  10539 0.51201600   1.008000   ; qtot 254.270939
10540         os    380    ccc     O6  10540 -0.26013600  16.000000   ; qtot 254.010803
; residue  381 ccc rtp ccc q 0.0
10541         c3    381    ccc     C1  10541 -0.33178800  12.010000   ; qtot 253.679015
10542         c3    381    ccc     C2  10542 0.30606500  12.010000   ; qtot 253.985080
10543         h1    381    ccc     H1  10543 0.11662300   1.008000   ; qtot 254.101703
10544         h1    381    ccc     H2  10544 0.11526800   1.008000   ; qtot 254.216971
10545         c3    381    ccc     C3  10545 0.15592700  12.010000   ; qtot 254.372898
10546         c3    381    ccc     C4  10546 0.28383300  12.010000   ; qtot 254.656731
10547         c3    381    ccc     C5  10547 0.32403300  12.010000   ; qtot 254.980764
10548         h1    381    ccc     H3  10548 0.13386900   1.008000   ; qtot 255.114633
10549         h1    381    ccc     H4  10549 0.10146700   1.008000   ; qtot 255.216100
10550         h2    381    ccc     H5  10550 0.10960400   1.008000   ; qtot 255.325704
10551         os    381    ccc     O1  10551 -0.28650000  16.000000   ; qtot 255.039204
10552         oh    381    ccc     O2  10552 -0.86012500  16.000000   ; qtot 254.179079
10553         oh    381    ccc     O3  10553 -0.83772800  16.000000   ; qtot 253.341351
10554         oh    381    ccc     O4  10554 -0.77449700  16.000000   ; qtot 252.566854
10555         c3    381    ccc     C6  10555 0.37576500  12.010000   ; qtot 252.942619
10556         ho    381    ccc     H6  10556 0.53656000   1.008000   ; qtot 253.479179
10557         ho    381    ccc     H7  10557 0.49492100   1.008000   ; qtot 253.974100
10558         ho    381    ccc     H8  10558 0.51297200   1.008000   ; qtot 254.487072
10559         h1    381    ccc     H9  10559 0.05653400   1.008000   ; qtot 254.543606
10560         h1    381    ccc    H10  10560 0.05653400   1.008000   ; qtot 254.600140
10561         oh    381    ccc     O5  10561 -0.84113600  16.000000   ; qtot 253.759004
10562         ho    381    ccc    H11  10562 0.51201600   1.008000   ; qtot 254.271020
10563         os    381    ccc     O6  10563 -0.26013600  16.000000   ; qtot 254.010884
; residue  382 ccc rtp ccc q 0.0
10564         c3    382    ccc     C1  10564 -0.33178800  12.010000   ; qtot 253.679096
10565         c3    382    ccc     C2  10565 0.30606500  12.010000   ; qtot 253.985161
10566         h1    382    ccc     H1  10566 0.11662300   1.008000   ; qtot 254.101784
10567         h1    382    ccc     H2  10567 0.11526800   1.008000   ; qtot 254.217052
10568         c3    382    ccc     C3  10568 0.15592700  12.010000   ; qtot 254.372979
10569         c3    382    ccc     C4  10569 0.28383300  12.010000   ; qtot 254.656812
10570         c3    382    ccc     C5  10570 0.32403300  12.010000   ; qtot 254.980845
10571         h1    382    ccc     H3  10571 0.13386900   1.008000   ; qtot 255.114714
10572         h1    382    ccc     H4  10572 0.10146700   1.008000   ; qtot 255.216181
10573         h2    382    ccc     H5  10573 0.10960400   1.008000   ; qtot 255.325785
10574         os    382    ccc     O1  10574 -0.28650000  16.000000   ; qtot 255.039285
10575         oh    382    ccc     O2  10575 -0.86012500  16.000000   ; qtot 254.179160
10576         oh    382    ccc     O3  10576 -0.83772800  16.000000   ; qtot 253.341432
10577         oh    382    ccc     O4  10577 -0.77449700  16.000000   ; qtot 252.566935
10578         c3    382    ccc     C6  10578 0.37576500  12.010000   ; qtot 252.942700
10579         ho    382    ccc     H6  10579 0.53656000   1.008000   ; qtot 253.479260
10580         ho    382    ccc     H7  10580 0.49492100   1.008000   ; qtot 253.974181
10581         ho    382    ccc     H8  10581 0.51297200   1.008000   ; qtot 254.487153
10582         h1    382    ccc     H9  10582 0.05653400   1.008000   ; qtot 254.543687
10583         h1    382    ccc    H10  10583 0.05653400   1.008000   ; qtot 254.600221
10584         oh    382    ccc     O5  10584 -0.84113600  16.000000   ; qtot 253.759085
10585         ho    382    ccc    H11  10585 0.51201600   1.008000   ; qtot 254.271101
10586         os    382    ccc     O6  10586 -0.26013600  16.000000   ; qtot 254.010965
; residue  383 ccc rtp ccc q 0.0
10587         c3    383    ccc     C1  10587 -0.33178800  12.010000   ; qtot 253.679177
10588         c3    383    ccc     C2  10588 0.30606500  12.010000   ; qtot 253.985242
10589         h1    383    ccc     H1  10589 0.11662300   1.008000   ; qtot 254.101865
10590         h1    383    ccc     H2  10590 0.11526800   1.008000   ; qtot 254.217133
10591         c3    383    ccc     C3  10591 0.15592700  12.010000   ; qtot 254.373060
10592         c3    383    ccc     C4  10592 0.28383300  12.010000   ; qtot 254.656893
10593         c3    383    ccc     C5  10593 0.32403300  12.010000   ; qtot 254.980926
10594         h1    383    ccc     H3  10594 0.13386900   1.008000   ; qtot 255.114795
10595         h1    383    ccc     H4  10595 0.10146700   1.008000   ; qtot 255.216262
10596         h2    383    ccc     H5  10596 0.10960400   1.008000   ; qtot 255.325866
10597         os    383    ccc     O1  10597 -0.28650000  16.000000   ; qtot 255.039366
10598         oh    383    ccc     O2  10598 -0.86012500  16.000000   ; qtot 254.179241
10599         oh    383    ccc     O3  10599 -0.83772800  16.000000   ; qtot 253.341513
10600         oh    383    ccc     O4  10600 -0.77449700  16.000000   ; qtot 252.567016
10601         c3    383    ccc     C6  10601 0.37576500  12.010000   ; qtot 252.942781
10602         ho    383    ccc     H6  10602 0.53656000   1.008000   ; qtot 253.479341
10603         ho    383    ccc     H7  10603 0.49492100   1.008000   ; qtot 253.974262
10604         ho    383    ccc     H8  10604 0.51297200   1.008000   ; qtot 254.487234
10605         h1    383    ccc     H9  10605 0.05653400   1.008000   ; qtot 254.543768
10606         h1    383    ccc    H10  10606 0.05653400   1.008000   ; qtot 254.600302
10607         oh    383    ccc     O5  10607 -0.84113600  16.000000   ; qtot 253.759166
10608         ho    383    ccc    H11  10608 0.51201600   1.008000   ; qtot 254.271182
10609         os    383    ccc     O6  10609 -0.26013600  16.000000   ; qtot 254.011046
; residue  384 ccc rtp ccc q 0.0
10610         c3    384    ccc     C1  10610 -0.33178800  12.010000   ; qtot 253.679258
10611         c3    384    ccc     C2  10611 0.30606500  12.010000   ; qtot 253.985323
10612         h1    384    ccc     H1  10612 0.11662300   1.008000   ; qtot 254.101946
10613         h1    384    ccc     H2  10613 0.11526800   1.008000   ; qtot 254.217214
10614         c3    384    ccc     C3  10614 0.15592700  12.010000   ; qtot 254.373141
10615         c3    384    ccc     C4  10615 0.28383300  12.010000   ; qtot 254.656974
10616         c3    384    ccc     C5  10616 0.32403300  12.010000   ; qtot 254.981007
10617         h1    384    ccc     H3  10617 0.13386900   1.008000   ; qtot 255.114876
10618         h1    384    ccc     H4  10618 0.10146700   1.008000   ; qtot 255.216343
10619         h2    384    ccc     H5  10619 0.10960400   1.008000   ; qtot 255.325947
10620         os    384    ccc     O1  10620 -0.28650000  16.000000   ; qtot 255.039447
10621         oh    384    ccc     O2  10621 -0.86012500  16.000000   ; qtot 254.179322
10622         oh    384    ccc     O3  10622 -0.83772800  16.000000   ; qtot 253.341594
10623         oh    384    ccc     O4  10623 -0.77449700  16.000000   ; qtot 252.567097
10624         c3    384    ccc     C6  10624 0.37576500  12.010000   ; qtot 252.942862
10625         ho    384    ccc     H6  10625 0.53656000   1.008000   ; qtot 253.479422
10626         ho    384    ccc     H7  10626 0.49492100   1.008000   ; qtot 253.974343
10627         ho    384    ccc     H8  10627 0.51297200   1.008000   ; qtot 254.487315
10628         h1    384    ccc     H9  10628 0.05653400   1.008000   ; qtot 254.543849
10629         h1    384    ccc    H10  10629 0.05653400   1.008000   ; qtot 254.600383
10630         oh    384    ccc     O5  10630 -0.84113600  16.000000   ; qtot 253.759247
10631         ho    384    ccc    H11  10631 0.51201600   1.008000   ; qtot 254.271263
10632         os    384    ccc     O6  10632 -0.26013600  16.000000   ; qtot 254.011127
; residue  385 ccc rtp ccc q 0.0
10633         c3    385    ccc     C1  10633 -0.33178800  12.010000   ; qtot 253.679339
10634         c3    385    ccc     C2  10634 0.30606500  12.010000   ; qtot 253.985404
10635         h1    385    ccc     H1  10635 0.11662300   1.008000   ; qtot 254.102027
10636         h1    385    ccc     H2  10636 0.11526800   1.008000   ; qtot 254.217295
10637         c3    385    ccc     C3  10637 0.15592700  12.010000   ; qtot 254.373222
10638         c3    385    ccc     C4  10638 0.28383300  12.010000   ; qtot 254.657055
10639         c3    385    ccc     C5  10639 0.32403300  12.010000   ; qtot 254.981088
10640         h1    385    ccc     H3  10640 0.13386900   1.008000   ; qtot 255.114957
10641         h1    385    ccc     H4  10641 0.10146700   1.008000   ; qtot 255.216424
10642         h2    385    ccc     H5  10642 0.10960400   1.008000   ; qtot 255.326028
10643         os    385    ccc     O1  10643 -0.28650000  16.000000   ; qtot 255.039528
10644         oh    385    ccc     O2  10644 -0.86012500  16.000000   ; qtot 254.179403
10645         oh    385    ccc     O3  10645 -0.83772800  16.000000   ; qtot 253.341675
10646         oh    385    ccc     O4  10646 -0.77449700  16.000000   ; qtot 252.567178
10647         c3    385    ccc     C6  10647 0.37576500  12.010000   ; qtot 252.942943
10648         ho    385    ccc     H6  10648 0.53656000   1.008000   ; qtot 253.479503
10649         ho    385    ccc     H7  10649 0.49492100   1.008000   ; qtot 253.974424
10650         ho    385    ccc     H8  10650 0.51297200   1.008000   ; qtot 254.487396
10651         h1    385    ccc     H9  10651 0.05653400   1.008000   ; qtot 254.543930
10652         h1    385    ccc    H10  10652 0.05653400   1.008000   ; qtot 254.600464
10653         oh    385    ccc     O5  10653 -0.84113600  16.000000   ; qtot 253.759328
10654         ho    385    ccc    H11  10654 0.51201600   1.008000   ; qtot 254.271344
10655         os    385    ccc     O6  10655 -0.26013600  16.000000   ; qtot 254.011208
; residue  386 ccc rtp ccc q 0.0
10656         c3    386    ccc     C1  10656 -0.33178800  12.010000   ; qtot 253.679420
10657         c3    386    ccc     C2  10657 0.30606500  12.010000   ; qtot 253.985485
10658         h1    386    ccc     H1  10658 0.11662300   1.008000   ; qtot 254.102108
10659         h1    386    ccc     H2  10659 0.11526800   1.008000   ; qtot 254.217376
10660         c3    386    ccc     C3  10660 0.15592700  12.010000   ; qtot 254.373303
10661         c3    386    ccc     C4  10661 0.28383300  12.010000   ; qtot 254.657136
10662         c3    386    ccc     C5  10662 0.32403300  12.010000   ; qtot 254.981169
10663         h1    386    ccc     H3  10663 0.13386900   1.008000   ; qtot 255.115038
10664         h1    386    ccc     H4  10664 0.10146700   1.008000   ; qtot 255.216505
10665         h2    386    ccc     H5  10665 0.10960400   1.008000   ; qtot 255.326109
10666         os    386    ccc     O1  10666 -0.28650000  16.000000   ; qtot 255.039609
10667         oh    386    ccc     O2  10667 -0.86012500  16.000000   ; qtot 254.179484
10668         oh    386    ccc     O3  10668 -0.83772800  16.000000   ; qtot 253.341756
10669         oh    386    ccc     O4  10669 -0.77449700  16.000000   ; qtot 252.567259
10670         c3    386    ccc     C6  10670 0.37576500  12.010000   ; qtot 252.943024
10671         ho    386    ccc     H6  10671 0.53656000   1.008000   ; qtot 253.479584
10672         ho    386    ccc     H7  10672 0.49492100   1.008000   ; qtot 253.974505
10673         ho    386    ccc     H8  10673 0.51297200   1.008000   ; qtot 254.487477
10674         h1    386    ccc     H9  10674 0.05653400   1.008000   ; qtot 254.544011
10675         h1    386    ccc    H10  10675 0.05653400   1.008000   ; qtot 254.600545
10676         oh    386    ccc     O5  10676 -0.84113600  16.000000   ; qtot 253.759409
10677         ho    386    ccc    H11  10677 0.51201600   1.008000   ; qtot 254.271425
10678         os    386    ccc     O6  10678 -0.26013600  16.000000   ; qtot 254.011289
; residue  387 ccc rtp ccc q 0.0
10679         c3    387    ccc     C1  10679 -0.33178800  12.010000   ; qtot 253.679501
10680         c3    387    ccc     C2  10680 0.30606500  12.010000   ; qtot 253.985566
10681         h1    387    ccc     H1  10681 0.11662300   1.008000   ; qtot 254.102189
10682         h1    387    ccc     H2  10682 0.11526800   1.008000   ; qtot 254.217457
10683         c3    387    ccc     C3  10683 0.15592700  12.010000   ; qtot 254.373384
10684         c3    387    ccc     C4  10684 0.28383300  12.010000   ; qtot 254.657217
10685         c3    387    ccc     C5  10685 0.32403300  12.010000   ; qtot 254.981250
10686         h1    387    ccc     H3  10686 0.13386900   1.008000   ; qtot 255.115119
10687         h1    387    ccc     H4  10687 0.10146700   1.008000   ; qtot 255.216586
10688         h2    387    ccc     H5  10688 0.10960400   1.008000   ; qtot 255.326190
10689         os    387    ccc     O1  10689 -0.28650000  16.000000   ; qtot 255.039690
10690         oh    387    ccc     O2  10690 -0.86012500  16.000000   ; qtot 254.179565
10691         oh    387    ccc     O3  10691 -0.83772800  16.000000   ; qtot 253.341837
10692         oh    387    ccc     O4  10692 -0.77449700  16.000000   ; qtot 252.567340
10693         c3    387    ccc     C6  10693 0.37576500  12.010000   ; qtot 252.943105
10694         ho    387    ccc     H6  10694 0.53656000   1.008000   ; qtot 253.479665
10695         ho    387    ccc     H7  10695 0.49492100   1.008000   ; qtot 253.974586
10696         ho    387    ccc     H8  10696 0.51297200   1.008000   ; qtot 254.487558
10697         h1    387    ccc     H9  10697 0.05653400   1.008000   ; qtot 254.544092
10698         h1    387    ccc    H10  10698 0.05653400   1.008000   ; qtot 254.600626
10699         oh    387    ccc     O5  10699 -0.84113600  16.000000   ; qtot 253.759490
10700         ho    387    ccc    H11  10700 0.51201600   1.008000   ; qtot 254.271506
10701         os    387    ccc     O6  10701 -0.26013600  16.000000   ; qtot 254.011370
; residue  388 ccc rtp ccc q 0.0
10702         c3    388    ccc     C1  10702 -0.33178800  12.010000   ; qtot 253.679582
10703         c3    388    ccc     C2  10703 0.30606500  12.010000   ; qtot 253.985647
10704         h1    388    ccc     H1  10704 0.11662300   1.008000   ; qtot 254.102270
10705         h1    388    ccc     H2  10705 0.11526800   1.008000   ; qtot 254.217538
10706         c3    388    ccc     C3  10706 0.15592700  12.010000   ; qtot 254.373465
10707         c3    388    ccc     C4  10707 0.28383300  12.010000   ; qtot 254.657298
10708         c3    388    ccc     C5  10708 0.32403300  12.010000   ; qtot 254.981331
10709         h1    388    ccc     H3  10709 0.13386900   1.008000   ; qtot 255.115200
10710         h1    388    ccc     H4  10710 0.10146700   1.008000   ; qtot 255.216667
10711         h2    388    ccc     H5  10711 0.10960400   1.008000   ; qtot 255.326271
10712         os    388    ccc     O1  10712 -0.28650000  16.000000   ; qtot 255.039771
10713         oh    388    ccc     O2  10713 -0.86012500  16.000000   ; qtot 254.179646
10714         oh    388    ccc     O3  10714 -0.83772800  16.000000   ; qtot 253.341918
10715         oh    388    ccc     O4  10715 -0.77449700  16.000000   ; qtot 252.567421
10716         c3    388    ccc     C6  10716 0.37576500  12.010000   ; qtot 252.943186
10717         ho    388    ccc     H6  10717 0.53656000   1.008000   ; qtot 253.479746
10718         ho    388    ccc     H7  10718 0.49492100   1.008000   ; qtot 253.974667
10719         ho    388    ccc     H8  10719 0.51297200   1.008000   ; qtot 254.487639
10720         h1    388    ccc     H9  10720 0.05653400   1.008000   ; qtot 254.544173
10721         h1    388    ccc    H10  10721 0.05653400   1.008000   ; qtot 254.600707
10722         oh    388    ccc     O5  10722 -0.84113600  16.000000   ; qtot 253.759571
10723         ho    388    ccc    H11  10723 0.51201600   1.008000   ; qtot 254.271587
10724         os    388    ccc     O6  10724 -0.26013600  16.000000   ; qtot 254.011451
; residue  389 ccc rtp ccc q 0.0
10725         c3    389    ccc     C1  10725 -0.33178800  12.010000   ; qtot 253.679663
10726         c3    389    ccc     C2  10726 0.30606500  12.010000   ; qtot 253.985728
10727         h1    389    ccc     H1  10727 0.11662300   1.008000   ; qtot 254.102351
10728         h1    389    ccc     H2  10728 0.11526800   1.008000   ; qtot 254.217619
10729         c3    389    ccc     C3  10729 0.15592700  12.010000   ; qtot 254.373546
10730         c3    389    ccc     C4  10730 0.28383300  12.010000   ; qtot 254.657379
10731         c3    389    ccc     C5  10731 0.32403300  12.010000   ; qtot 254.981412
10732         h1    389    ccc     H3  10732 0.13386900   1.008000   ; qtot 255.115281
10733         h1    389    ccc     H4  10733 0.10146700   1.008000   ; qtot 255.216748
10734         h2    389    ccc     H5  10734 0.10960400   1.008000   ; qtot 255.326352
10735         os    389    ccc     O1  10735 -0.28650000  16.000000   ; qtot 255.039852
10736         oh    389    ccc     O2  10736 -0.86012500  16.000000   ; qtot 254.179727
10737         oh    389    ccc     O3  10737 -0.83772800  16.000000   ; qtot 253.341999
10738         oh    389    ccc     O4  10738 -0.77449700  16.000000   ; qtot 252.567502
10739         c3    389    ccc     C6  10739 0.37576500  12.010000   ; qtot 252.943267
10740         ho    389    ccc     H6  10740 0.53656000   1.008000   ; qtot 253.479827
10741         ho    389    ccc     H7  10741 0.49492100   1.008000   ; qtot 253.974748
10742         ho    389    ccc     H8  10742 0.51297200   1.008000   ; qtot 254.487720
10743         h1    389    ccc     H9  10743 0.05653400   1.008000   ; qtot 254.544254
10744         h1    389    ccc    H10  10744 0.05653400   1.008000   ; qtot 254.600788
10745         oh    389    ccc     O5  10745 -0.84113600  16.000000   ; qtot 253.759652
10746         ho    389    ccc    H11  10746 0.51201600   1.008000   ; qtot 254.271668
10747         os    389    ccc     O6  10747 -0.26013600  16.000000   ; qtot 254.011532
; residue  390 ccc rtp ccc q 0.0
10748         c3    390    ccc     C1  10748 -0.33178800  12.010000   ; qtot 253.679744
10749         c3    390    ccc     C2  10749 0.30606500  12.010000   ; qtot 253.985809
10750         h1    390    ccc     H1  10750 0.11662300   1.008000   ; qtot 254.102432
10751         h1    390    ccc     H2  10751 0.11526800   1.008000   ; qtot 254.217700
10752         c3    390    ccc     C3  10752 0.15592700  12.010000   ; qtot 254.373627
10753         c3    390    ccc     C4  10753 0.28383300  12.010000   ; qtot 254.657460
10754         c3    390    ccc     C5  10754 0.32403300  12.010000   ; qtot 254.981493
10755         h1    390    ccc     H3  10755 0.13386900   1.008000   ; qtot 255.115362
10756         h1    390    ccc     H4  10756 0.10146700   1.008000   ; qtot 255.216829
10757         h2    390    ccc     H5  10757 0.10960400   1.008000   ; qtot 255.326433
10758         os    390    ccc     O1  10758 -0.28650000  16.000000   ; qtot 255.039933
10759         oh    390    ccc     O2  10759 -0.86012500  16.000000   ; qtot 254.179808
10760         oh    390    ccc     O3  10760 -0.83772800  16.000000   ; qtot 253.342080
10761         oh    390    ccc     O4  10761 -0.77449700  16.000000   ; qtot 252.567583
10762         c3    390    ccc     C6  10762 0.37576500  12.010000   ; qtot 252.943348
10763         ho    390    ccc     H6  10763 0.53656000   1.008000   ; qtot 253.479908
10764         ho    390    ccc     H7  10764 0.49492100   1.008000   ; qtot 253.974829
10765         ho    390    ccc     H8  10765 0.51297200   1.008000   ; qtot 254.487801
10766         h1    390    ccc     H9  10766 0.05653400   1.008000   ; qtot 254.544335
10767         h1    390    ccc    H10  10767 0.05653400   1.008000   ; qtot 254.600869
10768         oh    390    ccc     O5  10768 -0.84113600  16.000000   ; qtot 253.759733
10769         ho    390    ccc    H11  10769 0.51201600   1.008000   ; qtot 254.271749
10770         os    390    ccc     O6  10770 -0.26013600  16.000000   ; qtot 254.011613
; residue  391 ccc rtp ccc q 0.0
10771         c3    391    ccc     C1  10771 -0.33178800  12.010000   ; qtot 253.679825
10772         c3    391    ccc     C2  10772 0.30606500  12.010000   ; qtot 253.985890
10773         h1    391    ccc     H1  10773 0.11662300   1.008000   ; qtot 254.102513
10774         h1    391    ccc     H2  10774 0.11526800   1.008000   ; qtot 254.217781
10775         c3    391    ccc     C3  10775 0.15592700  12.010000   ; qtot 254.373708
10776         c3    391    ccc     C4  10776 0.28383300  12.010000   ; qtot 254.657541
10777         c3    391    ccc     C5  10777 0.32403300  12.010000   ; qtot 254.981574
10778         h1    391    ccc     H3  10778 0.13386900   1.008000   ; qtot 255.115443
10779         h1    391    ccc     H4  10779 0.10146700   1.008000   ; qtot 255.216910
10780         h2    391    ccc     H5  10780 0.10960400   1.008000   ; qtot 255.326514
10781         os    391    ccc     O1  10781 -0.28650000  16.000000   ; qtot 255.040014
10782         oh    391    ccc     O2  10782 -0.86012500  16.000000   ; qtot 254.179889
10783         oh    391    ccc     O3  10783 -0.83772800  16.000000   ; qtot 253.342161
10784         oh    391    ccc     O4  10784 -0.77449700  16.000000   ; qtot 252.567664
10785         c3    391    ccc     C6  10785 0.37576500  12.010000   ; qtot 252.943429
10786         ho    391    ccc     H6  10786 0.53656000   1.008000   ; qtot 253.479989
10787         ho    391    ccc     H7  10787 0.49492100   1.008000   ; qtot 253.974910
10788         ho    391    ccc     H8  10788 0.51297200   1.008000   ; qtot 254.487882
10789         h1    391    ccc     H9  10789 0.05653400   1.008000   ; qtot 254.544416
10790         h1    391    ccc    H10  10790 0.05653400   1.008000   ; qtot 254.600950
10791         oh    391    ccc     O5  10791 -0.84113600  16.000000   ; qtot 253.759814
10792         ho    391    ccc    H11  10792 0.51201600   1.008000   ; qtot 254.271830
10793         os    391    ccc     O6  10793 -0.26013600  16.000000   ; qtot 254.011694
; residue  392 ccc rtp ccc q 0.0
10794         c3    392    ccc     C1  10794 -0.33178800  12.010000   ; qtot 253.679906
10795         c3    392    ccc     C2  10795 0.30606500  12.010000   ; qtot 253.985971
10796         h1    392    ccc     H1  10796 0.11662300   1.008000   ; qtot 254.102594
10797         h1    392    ccc     H2  10797 0.11526800   1.008000   ; qtot 254.217862
10798         c3    392    ccc     C3  10798 0.15592700  12.010000   ; qtot 254.373789
10799         c3    392    ccc     C4  10799 0.28383300  12.010000   ; qtot 254.657622
10800         c3    392    ccc     C5  10800 0.32403300  12.010000   ; qtot 254.981655
10801         h1    392    ccc     H3  10801 0.13386900   1.008000   ; qtot 255.115524
10802         h1    392    ccc     H4  10802 0.10146700   1.008000   ; qtot 255.216991
10803         h2    392    ccc     H5  10803 0.10960400   1.008000   ; qtot 255.326595
10804         os    392    ccc     O1  10804 -0.28650000  16.000000   ; qtot 255.040095
10805         oh    392    ccc     O2  10805 -0.86012500  16.000000   ; qtot 254.179970
10806         oh    392    ccc     O3  10806 -0.83772800  16.000000   ; qtot 253.342242
10807         oh    392    ccc     O4  10807 -0.77449700  16.000000   ; qtot 252.567745
10808         c3    392    ccc     C6  10808 0.37576500  12.010000   ; qtot 252.943510
10809         ho    392    ccc     H6  10809 0.53656000   1.008000   ; qtot 253.480070
10810         ho    392    ccc     H7  10810 0.49492100   1.008000   ; qtot 253.974991
10811         ho    392    ccc     H8  10811 0.51297200   1.008000   ; qtot 254.487963
10812         h1    392    ccc     H9  10812 0.05653400   1.008000   ; qtot 254.544497
10813         h1    392    ccc    H10  10813 0.05653400   1.008000   ; qtot 254.601031
10814         oh    392    ccc     O5  10814 -0.84113600  16.000000   ; qtot 253.759895
10815         ho    392    ccc    H11  10815 0.51201600   1.008000   ; qtot 254.271911
10816         os    392    ccc     O6  10816 -0.26013600  16.000000   ; qtot 254.011775
; residue  393 ccc rtp ccc q 0.0
10817         c3    393    ccc     C1  10817 -0.33178800  12.010000   ; qtot 253.679987
10818         c3    393    ccc     C2  10818 0.30606500  12.010000   ; qtot 253.986052
10819         h1    393    ccc     H1  10819 0.11662300   1.008000   ; qtot 254.102675
10820         h1    393    ccc     H2  10820 0.11526800   1.008000   ; qtot 254.217943
10821         c3    393    ccc     C3  10821 0.15592700  12.010000   ; qtot 254.373870
10822         c3    393    ccc     C4  10822 0.28383300  12.010000   ; qtot 254.657703
10823         c3    393    ccc     C5  10823 0.32403300  12.010000   ; qtot 254.981736
10824         h1    393    ccc     H3  10824 0.13386900   1.008000   ; qtot 255.115605
10825         h1    393    ccc     H4  10825 0.10146700   1.008000   ; qtot 255.217072
10826         h2    393    ccc     H5  10826 0.10960400   1.008000   ; qtot 255.326676
10827         os    393    ccc     O1  10827 -0.28650000  16.000000   ; qtot 255.040176
10828         oh    393    ccc     O2  10828 -0.86012500  16.000000   ; qtot 254.180051
10829         oh    393    ccc     O3  10829 -0.83772800  16.000000   ; qtot 253.342323
10830         oh    393    ccc     O4  10830 -0.77449700  16.000000   ; qtot 252.567826
10831         c3    393    ccc     C6  10831 0.37576500  12.010000   ; qtot 252.943591
10832         ho    393    ccc     H6  10832 0.53656000   1.008000   ; qtot 253.480151
10833         ho    393    ccc     H7  10833 0.49492100   1.008000   ; qtot 253.975072
10834         ho    393    ccc     H8  10834 0.51297200   1.008000   ; qtot 254.488044
10835         h1    393    ccc     H9  10835 0.05653400   1.008000   ; qtot 254.544578
10836         h1    393    ccc    H10  10836 0.05653400   1.008000   ; qtot 254.601112
10837         oh    393    ccc     O5  10837 -0.84113600  16.000000   ; qtot 253.759976
10838         ho    393    ccc    H11  10838 0.51201600   1.008000   ; qtot 254.271992
10839         os    393    ccc     O6  10839 -0.26013600  16.000000   ; qtot 254.011856
; residue  394 ccc rtp ccc q 0.0
10840         c3    394    ccc     C1  10840 -0.33178800  12.010000   ; qtot 253.680068
10841         c3    394    ccc     C2  10841 0.30606500  12.010000   ; qtot 253.986133
10842         h1    394    ccc     H1  10842 0.11662300   1.008000   ; qtot 254.102756
10843         h1    394    ccc     H2  10843 0.11526800   1.008000   ; qtot 254.218024
10844         c3    394    ccc     C3  10844 0.15592700  12.010000   ; qtot 254.373951
10845         c3    394    ccc     C4  10845 0.28383300  12.010000   ; qtot 254.657784
10846         c3    394    ccc     C5  10846 0.32403300  12.010000   ; qtot 254.981817
10847         h1    394    ccc     H3  10847 0.13386900   1.008000   ; qtot 255.115686
10848         h1    394    ccc     H4  10848 0.10146700   1.008000   ; qtot 255.217153
10849         h2    394    ccc     H5  10849 0.10960400   1.008000   ; qtot 255.326757
10850         os    394    ccc     O1  10850 -0.28650000  16.000000   ; qtot 255.040257
10851         oh    394    ccc     O2  10851 -0.86012500  16.000000   ; qtot 254.180132
10852         oh    394    ccc     O3  10852 -0.83772800  16.000000   ; qtot 253.342404
10853         oh    394    ccc     O4  10853 -0.77449700  16.000000   ; qtot 252.567907
10854         c3    394    ccc     C6  10854 0.37576500  12.010000   ; qtot 252.943672
10855         ho    394    ccc     H6  10855 0.53656000   1.008000   ; qtot 253.480232
10856         ho    394    ccc     H7  10856 0.49492100   1.008000   ; qtot 253.975153
10857         ho    394    ccc     H8  10857 0.51297200   1.008000   ; qtot 254.488125
10858         h1    394    ccc     H9  10858 0.05653400   1.008000   ; qtot 254.544659
10859         h1    394    ccc    H10  10859 0.05653400   1.008000   ; qtot 254.601193
10860         oh    394    ccc     O5  10860 -0.84113600  16.000000   ; qtot 253.760057
10861         ho    394    ccc    H11  10861 0.51201600   1.008000   ; qtot 254.272073
10862         os    394    ccc     O6  10862 -0.26013600  16.000000   ; qtot 254.011937
; residue  395 ccc rtp ccc q 0.0
10863         c3    395    ccc     C1  10863 -0.33178800  12.010000   ; qtot 253.680149
10864         c3    395    ccc     C2  10864 0.30606500  12.010000   ; qtot 253.986214
10865         h1    395    ccc     H1  10865 0.11662300   1.008000   ; qtot 254.102837
10866         h1    395    ccc     H2  10866 0.11526800   1.008000   ; qtot 254.218105
10867         c3    395    ccc     C3  10867 0.15592700  12.010000   ; qtot 254.374032
10868         c3    395    ccc     C4  10868 0.28383300  12.010000   ; qtot 254.657865
10869         c3    395    ccc     C5  10869 0.32403300  12.010000   ; qtot 254.981898
10870         h1    395    ccc     H3  10870 0.13386900   1.008000   ; qtot 255.115767
10871         h1    395    ccc     H4  10871 0.10146700   1.008000   ; qtot 255.217234
10872         h2    395    ccc     H5  10872 0.10960400   1.008000   ; qtot 255.326838
10873         os    395    ccc     O1  10873 -0.28650000  16.000000   ; qtot 255.040338
10874         oh    395    ccc     O2  10874 -0.86012500  16.000000   ; qtot 254.180213
10875         oh    395    ccc     O3  10875 -0.83772800  16.000000   ; qtot 253.342485
10876         oh    395    ccc     O4  10876 -0.77449700  16.000000   ; qtot 252.567988
10877         c3    395    ccc     C6  10877 0.37576500  12.010000   ; qtot 252.943753
10878         ho    395    ccc     H6  10878 0.53656000   1.008000   ; qtot 253.480313
10879         ho    395    ccc     H7  10879 0.49492100   1.008000   ; qtot 253.975234
10880         ho    395    ccc     H8  10880 0.51297200   1.008000   ; qtot 254.488206
10881         h1    395    ccc     H9  10881 0.05653400   1.008000   ; qtot 254.544740
10882         h1    395    ccc    H10  10882 0.05653400   1.008000   ; qtot 254.601274
10883         oh    395    ccc     O5  10883 -0.84113600  16.000000   ; qtot 253.760138
10884         ho    395    ccc    H11  10884 0.51201600   1.008000   ; qtot 254.272154
10885         os    395    ccc     O6  10885 -0.26013600  16.000000   ; qtot 254.012018
; residue  396 ccc rtp ccc q 0.0
10886         c3    396    ccc     C1  10886 -0.33178800  12.010000   ; qtot 253.680230
10887         c3    396    ccc     C2  10887 0.30606500  12.010000   ; qtot 253.986295
10888         h1    396    ccc     H1  10888 0.11662300   1.008000   ; qtot 254.102918
10889         h1    396    ccc     H2  10889 0.11526800   1.008000   ; qtot 254.218186
10890         c3    396    ccc     C3  10890 0.15592700  12.010000   ; qtot 254.374113
10891         c3    396    ccc     C4  10891 0.28383300  12.010000   ; qtot 254.657946
10892         c3    396    ccc     C5  10892 0.32403300  12.010000   ; qtot 254.981979
10893         h1    396    ccc     H3  10893 0.13386900   1.008000   ; qtot 255.115848
10894         h1    396    ccc     H4  10894 0.10146700   1.008000   ; qtot 255.217315
10895         h2    396    ccc     H5  10895 0.10960400   1.008000   ; qtot 255.326919
10896         os    396    ccc     O1  10896 -0.28650000  16.000000   ; qtot 255.040419
10897         oh    396    ccc     O2  10897 -0.86012500  16.000000   ; qtot 254.180294
10898         oh    396    ccc     O3  10898 -0.83772800  16.000000   ; qtot 253.342566
10899         oh    396    ccc     O4  10899 -0.77449700  16.000000   ; qtot 252.568069
10900         c3    396    ccc     C6  10900 0.37576500  12.010000   ; qtot 252.943834
10901         ho    396    ccc     H6  10901 0.53656000   1.008000   ; qtot 253.480394
10902         ho    396    ccc     H7  10902 0.49492100   1.008000   ; qtot 253.975315
10903         ho    396    ccc     H8  10903 0.51297200   1.008000   ; qtot 254.488287
10904         h1    396    ccc     H9  10904 0.05653400   1.008000   ; qtot 254.544821
10905         h1    396    ccc    H10  10905 0.05653400   1.008000   ; qtot 254.601355
10906         oh    396    ccc     O5  10906 -0.84113600  16.000000   ; qtot 253.760219
10907         ho    396    ccc    H11  10907 0.51201600   1.008000   ; qtot 254.272235
10908         os    396    ccc     O6  10908 -0.26013600  16.000000   ; qtot 254.012099
; residue  397 ccc rtp ccc q 0.0
10909         c3    397    ccc     C1  10909 -0.33178800  12.010000   ; qtot 253.680311
10910         c3    397    ccc     C2  10910 0.30606500  12.010000   ; qtot 253.986376
10911         h1    397    ccc     H1  10911 0.11662300   1.008000   ; qtot 254.102999
10912         h1    397    ccc     H2  10912 0.11526800   1.008000   ; qtot 254.218267
10913         c3    397    ccc     C3  10913 0.15592700  12.010000   ; qtot 254.374194
10914         c3    397    ccc     C4  10914 0.28383300  12.010000   ; qtot 254.658027
10915         c3    397    ccc     C5  10915 0.32403300  12.010000   ; qtot 254.982060
10916         h1    397    ccc     H3  10916 0.13386900   1.008000   ; qtot 255.115929
10917         h1    397    ccc     H4  10917 0.10146700   1.008000   ; qtot 255.217396
10918         h2    397    ccc     H5  10918 0.10960400   1.008000   ; qtot 255.327000
10919         os    397    ccc     O1  10919 -0.28650000  16.000000   ; qtot 255.040500
10920         oh    397    ccc     O2  10920 -0.86012500  16.000000   ; qtot 254.180375
10921         oh    397    ccc     O3  10921 -0.83772800  16.000000   ; qtot 253.342647
10922         oh    397    ccc     O4  10922 -0.77449700  16.000000   ; qtot 252.568150
10923         c3    397    ccc     C6  10923 0.37576500  12.010000   ; qtot 252.943915
10924         ho    397    ccc     H6  10924 0.53656000   1.008000   ; qtot 253.480475
10925         ho    397    ccc     H7  10925 0.49492100   1.008000   ; qtot 253.975396
10926         ho    397    ccc     H8  10926 0.51297200   1.008000   ; qtot 254.488368
10927         h1    397    ccc     H9  10927 0.05653400   1.008000   ; qtot 254.544902
10928         h1    397    ccc    H10  10928 0.05653400   1.008000   ; qtot 254.601436
10929         oh    397    ccc     O5  10929 -0.84113600  16.000000   ; qtot 253.760300
10930         ho    397    ccc    H11  10930 0.51201600   1.008000   ; qtot 254.272316
10931         os    397    ccc     O6  10931 -0.26013600  16.000000   ; qtot 254.012180
; residue  398 ccc rtp ccc q 0.0
10932         c3    398    ccc     C1  10932 -0.33178800  12.010000   ; qtot 253.680392
10933         c3    398    ccc     C2  10933 0.30606500  12.010000   ; qtot 253.986457
10934         h1    398    ccc     H1  10934 0.11662300   1.008000   ; qtot 254.103080
10935         h1    398    ccc     H2  10935 0.11526800   1.008000   ; qtot 254.218348
10936         c3    398    ccc     C3  10936 0.15592700  12.010000   ; qtot 254.374275
10937         c3    398    ccc     C4  10937 0.28383300  12.010000   ; qtot 254.658108
10938         c3    398    ccc     C5  10938 0.32403300  12.010000   ; qtot 254.982141
10939         h1    398    ccc     H3  10939 0.13386900   1.008000   ; qtot 255.116010
10940         h1    398    ccc     H4  10940 0.10146700   1.008000   ; qtot 255.217477
10941         h2    398    ccc     H5  10941 0.10960400   1.008000   ; qtot 255.327081
10942         os    398    ccc     O1  10942 -0.28650000  16.000000   ; qtot 255.040581
10943         oh    398    ccc     O2  10943 -0.86012500  16.000000   ; qtot 254.180456
10944         oh    398    ccc     O3  10944 -0.83772800  16.000000   ; qtot 253.342728
10945         oh    398    ccc     O4  10945 -0.77449700  16.000000   ; qtot 252.568231
10946         c3    398    ccc     C6  10946 0.37576500  12.010000   ; qtot 252.943996
10947         ho    398    ccc     H6  10947 0.53656000   1.008000   ; qtot 253.480556
10948         ho    398    ccc     H7  10948 0.49492100   1.008000   ; qtot 253.975477
10949         ho    398    ccc     H8  10949 0.51297200   1.008000   ; qtot 254.488449
10950         h1    398    ccc     H9  10950 0.05653400   1.008000   ; qtot 254.544983
10951         h1    398    ccc    H10  10951 0.05653400   1.008000   ; qtot 254.601517
10952         oh    398    ccc     O5  10952 -0.84113600  16.000000   ; qtot 253.760381
10953         ho    398    ccc    H11  10953 0.51201600   1.008000   ; qtot 254.272397
10954         os    398    ccc     O6  10954 -0.26013600  16.000000   ; qtot 254.012261
; residue  399 ccc rtp ccc q 0.0
10955         c3    399    ccc     C1  10955 -0.33178800  12.010000   ; qtot 253.680473
10956         c3    399    ccc     C2  10956 0.30606500  12.010000   ; qtot 253.986538
10957         h1    399    ccc     H1  10957 0.11662300   1.008000   ; qtot 254.103161
10958         h1    399    ccc     H2  10958 0.11526800   1.008000   ; qtot 254.218429
10959         c3    399    ccc     C3  10959 0.15592700  12.010000   ; qtot 254.374356
10960         c3    399    ccc     C4  10960 0.28383300  12.010000   ; qtot 254.658189
10961         c3    399    ccc     C5  10961 0.32403300  12.010000   ; qtot 254.982222
10962         h1    399    ccc     H3  10962 0.13386900   1.008000   ; qtot 255.116091
10963         h1    399    ccc     H4  10963 0.10146700   1.008000   ; qtot 255.217558
10964         h2    399    ccc     H5  10964 0.10960400   1.008000   ; qtot 255.327162
10965         os    399    ccc     O1  10965 -0.28650000  16.000000   ; qtot 255.040662
10966         oh    399    ccc     O2  10966 -0.86012500  16.000000   ; qtot 254.180537
10967         oh    399    ccc     O3  10967 -0.83772800  16.000000   ; qtot 253.342809
10968         oh    399    ccc     O4  10968 -0.77449700  16.000000   ; qtot 252.568312
10969         c3    399    ccc     C6  10969 0.37576500  12.010000   ; qtot 252.944077
10970         ho    399    ccc     H6  10970 0.53656000   1.008000   ; qtot 253.480637
10971         ho    399    ccc     H7  10971 0.49492100   1.008000   ; qtot 253.975558
10972         ho    399    ccc     H8  10972 0.51297200   1.008000   ; qtot 254.488530
10973         h1    399    ccc     H9  10973 0.05653400   1.008000   ; qtot 254.545064
10974         h1    399    ccc    H10  10974 0.05653400   1.008000   ; qtot 254.601598
10975         oh    399    ccc     O5  10975 -0.84113600  16.000000   ; qtot 253.760462
10976         ho    399    ccc    H11  10976 0.51201600   1.008000   ; qtot 254.272478
10977         os    399    ccc     O6  10977 -0.26013600  16.000000   ; qtot 254.012342
; residue  400 ccc rtp ccc q 0.0
10978         c3    400    ccc     C1  10978 -0.33178800  12.010000   ; qtot 253.680554
10979         c3    400    ccc     C2  10979 0.30606500  12.010000   ; qtot 253.986619
10980         h1    400    ccc     H1  10980 0.11662300   1.008000   ; qtot 254.103242
10981         h1    400    ccc     H2  10981 0.11526800   1.008000   ; qtot 254.218510
10982         c3    400    ccc     C3  10982 0.15592700  12.010000   ; qtot 254.374437
10983         c3    400    ccc     C4  10983 0.28383300  12.010000   ; qtot 254.658270
10984         c3    400    ccc     C5  10984 0.32403300  12.010000   ; qtot 254.982303
10985         h1    400    ccc     H3  10985 0.13386900   1.008000   ; qtot 255.116172
10986         h1    400    ccc     H4  10986 0.10146700   1.008000   ; qtot 255.217639
10987         h2    400    ccc     H5  10987 0.10960400   1.008000   ; qtot 255.327243
10988         os    400    ccc     O1  10988 -0.28650000  16.000000   ; qtot 255.040743
10989         oh    400    ccc     O2  10989 -0.86012500  16.000000   ; qtot 254.180618
10990         oh    400    ccc     O3  10990 -0.83772800  16.000000   ; qtot 253.342890
10991         oh    400    ccc     O4  10991 -0.77449700  16.000000   ; qtot 252.568393
10992         c3    400    ccc     C6  10992 0.37576500  12.010000   ; qtot 252.944158
10993         ho    400    ccc     H6  10993 0.53656000   1.008000   ; qtot 253.480718
10994         ho    400    ccc     H7  10994 0.49492100   1.008000   ; qtot 253.975639
10995         ho    400    ccc     H8  10995 0.51297200   1.008000   ; qtot 254.488611
10996         h1    400    ccc     H9  10996 0.05653400   1.008000   ; qtot 254.545145
10997         h1    400    ccc    H10  10997 0.05653400   1.008000   ; qtot 254.601679
10998         oh    400    ccc     O5  10998 -0.84113600  16.000000   ; qtot 253.760543
10999         ho    400    ccc    H11  10999 0.51201600   1.008000   ; qtot 254.272559
11000         os    400    ccc     O6  11000 -0.26013600  16.000000   ; qtot 254.012423
; residue  401 ccc rtp ccc q 0.0
11001         c3    401    ccc     C1  11001 -0.33178800  12.010000   ; qtot 253.680635
11002         c3    401    ccc     C2  11002 0.30606500  12.010000   ; qtot 253.986700
11003         h1    401    ccc     H1  11003 0.11662300   1.008000   ; qtot 254.103323
11004         h1    401    ccc     H2  11004 0.11526800   1.008000   ; qtot 254.218591
11005         c3    401    ccc     C3  11005 0.15592700  12.010000   ; qtot 254.374518
11006         c3    401    ccc     C4  11006 0.28383300  12.010000   ; qtot 254.658351
11007         c3    401    ccc     C5  11007 0.32403300  12.010000   ; qtot 254.982384
11008         h1    401    ccc     H3  11008 0.13386900   1.008000   ; qtot 255.116253
11009         h1    401    ccc     H4  11009 0.10146700   1.008000   ; qtot 255.217720
11010         h2    401    ccc     H5  11010 0.10960400   1.008000   ; qtot 255.327324
11011         os    401    ccc     O1  11011 -0.28650000  16.000000   ; qtot 255.040824
11012         oh    401    ccc     O2  11012 -0.86012500  16.000000   ; qtot 254.180699
11013         oh    401    ccc     O3  11013 -0.83772800  16.000000   ; qtot 253.342971
11014         oh    401    ccc     O4  11014 -0.77449700  16.000000   ; qtot 252.568474
11015         c3    401    ccc     C6  11015 0.37576500  12.010000   ; qtot 252.944239
11016         ho    401    ccc     H6  11016 0.53656000   1.008000   ; qtot 253.480799
11017         ho    401    ccc     H7  11017 0.49492100   1.008000   ; qtot 253.975720
11018         ho    401    ccc     H8  11018 0.51297200   1.008000   ; qtot 254.488692
11019         h1    401    ccc     H9  11019 0.05653400   1.008000   ; qtot 254.545226
11020         h1    401    ccc    H10  11020 0.05653400   1.008000   ; qtot 254.601760
11021         oh    401    ccc     O5  11021 -0.84113600  16.000000   ; qtot 253.760624
11022         ho    401    ccc    H11  11022 0.51201600   1.008000   ; qtot 254.272640
11023         os    401    ccc     O6  11023 -0.26013600  16.000000   ; qtot 254.012504
; residue  402 ccc rtp ccc q 0.0
11024         c3    402    ccc     C1  11024 -0.33178800  12.010000   ; qtot 253.680716
11025         c3    402    ccc     C2  11025 0.30606500  12.010000   ; qtot 253.986781
11026         h1    402    ccc     H1  11026 0.11662300   1.008000   ; qtot 254.103404
11027         h1    402    ccc     H2  11027 0.11526800   1.008000   ; qtot 254.218672
11028         c3    402    ccc     C3  11028 0.15592700  12.010000   ; qtot 254.374599
11029         c3    402    ccc     C4  11029 0.28383300  12.010000   ; qtot 254.658432
11030         c3    402    ccc     C5  11030 0.32403300  12.010000   ; qtot 254.982465
11031         h1    402    ccc     H3  11031 0.13386900   1.008000   ; qtot 255.116334
11032         h1    402    ccc     H4  11032 0.10146700   1.008000   ; qtot 255.217801
11033         h2    402    ccc     H5  11033 0.10960400   1.008000   ; qtot 255.327405
11034         os    402    ccc     O1  11034 -0.28650000  16.000000   ; qtot 255.040905
11035         oh    402    ccc     O2  11035 -0.86012500  16.000000   ; qtot 254.180780
11036         oh    402    ccc     O3  11036 -0.83772800  16.000000   ; qtot 253.343052
11037         oh    402    ccc     O4  11037 -0.77449700  16.000000   ; qtot 252.568555
11038         c3    402    ccc     C6  11038 0.37576500  12.010000   ; qtot 252.944320
11039         ho    402    ccc     H6  11039 0.53656000   1.008000   ; qtot 253.480880
11040         ho    402    ccc     H7  11040 0.49492100   1.008000   ; qtot 253.975801
11041         ho    402    ccc     H8  11041 0.51297200   1.008000   ; qtot 254.488773
11042         h1    402    ccc     H9  11042 0.05653400   1.008000   ; qtot 254.545307
11043         h1    402    ccc    H10  11043 0.05653400   1.008000   ; qtot 254.601841
11044         oh    402    ccc     O5  11044 -0.84113600  16.000000   ; qtot 253.760705
11045         ho    402    ccc    H11  11045 0.51201600   1.008000   ; qtot 254.272721
11046         os    402    ccc     O6  11046 -0.26013600  16.000000   ; qtot 254.012585
; residue  403 ccc rtp ccc q 0.0
11047         c3    403    ccc     C1  11047 -0.33178800  12.010000   ; qtot 253.680797
11048         c3    403    ccc     C2  11048 0.30606500  12.010000   ; qtot 253.986862
11049         h1    403    ccc     H1  11049 0.11662300   1.008000   ; qtot 254.103485
11050         h1    403    ccc     H2  11050 0.11526800   1.008000   ; qtot 254.218753
11051         c3    403    ccc     C3  11051 0.15592700  12.010000   ; qtot 254.374680
11052         c3    403    ccc     C4  11052 0.28383300  12.010000   ; qtot 254.658513
11053         c3    403    ccc     C5  11053 0.32403300  12.010000   ; qtot 254.982546
11054         h1    403    ccc     H3  11054 0.13386900   1.008000   ; qtot 255.116415
11055         h1    403    ccc     H4  11055 0.10146700   1.008000   ; qtot 255.217882
11056         h2    403    ccc     H5  11056 0.10960400   1.008000   ; qtot 255.327486
11057         os    403    ccc     O1  11057 -0.28650000  16.000000   ; qtot 255.040986
11058         oh    403    ccc     O2  11058 -0.86012500  16.000000   ; qtot 254.180861
11059         oh    403    ccc     O3  11059 -0.83772800  16.000000   ; qtot 253.343133
11060         oh    403    ccc     O4  11060 -0.77449700  16.000000   ; qtot 252.568636
11061         c3    403    ccc     C6  11061 0.37576500  12.010000   ; qtot 252.944401
11062         ho    403    ccc     H6  11062 0.53656000   1.008000   ; qtot 253.480961
11063         ho    403    ccc     H7  11063 0.49492100   1.008000   ; qtot 253.975882
11064         ho    403    ccc     H8  11064 0.51297200   1.008000   ; qtot 254.488854
11065         h1    403    ccc     H9  11065 0.05653400   1.008000   ; qtot 254.545388
11066         h1    403    ccc    H10  11066 0.05653400   1.008000   ; qtot 254.601922
11067         oh    403    ccc     O5  11067 -0.84113600  16.000000   ; qtot 253.760786
11068         ho    403    ccc    H11  11068 0.51201600   1.008000   ; qtot 254.272802
11069         os    403    ccc     O6  11069 -0.26013600  16.000000   ; qtot 254.012666
; residue  404 ccc rtp ccc q 0.0
11070         c3    404    ccc     C1  11070 -0.33178800  12.010000   ; qtot 253.680878
11071         c3    404    ccc     C2  11071 0.30606500  12.010000   ; qtot 253.986943
11072         h1    404    ccc     H1  11072 0.11662300   1.008000   ; qtot 254.103566
11073         h1    404    ccc     H2  11073 0.11526800   1.008000   ; qtot 254.218834
11074         c3    404    ccc     C3  11074 0.15592700  12.010000   ; qtot 254.374761
11075         c3    404    ccc     C4  11075 0.28383300  12.010000   ; qtot 254.658594
11076         c3    404    ccc     C5  11076 0.32403300  12.010000   ; qtot 254.982627
11077         h1    404    ccc     H3  11077 0.13386900   1.008000   ; qtot 255.116496
11078         h1    404    ccc     H4  11078 0.10146700   1.008000   ; qtot 255.217963
11079         h2    404    ccc     H5  11079 0.10960400   1.008000   ; qtot 255.327567
11080         os    404    ccc     O1  11080 -0.28650000  16.000000   ; qtot 255.041067
11081         oh    404    ccc     O2  11081 -0.86012500  16.000000   ; qtot 254.180942
11082         oh    404    ccc     O3  11082 -0.83772800  16.000000   ; qtot 253.343214
11083         oh    404    ccc     O4  11083 -0.77449700  16.000000   ; qtot 252.568717
11084         c3    404    ccc     C6  11084 0.37576500  12.010000   ; qtot 252.944482
11085         ho    404    ccc     H6  11085 0.53656000   1.008000   ; qtot 253.481042
11086         ho    404    ccc     H7  11086 0.49492100   1.008000   ; qtot 253.975963
11087         ho    404    ccc     H8  11087 0.51297200   1.008000   ; qtot 254.488935
11088         h1    404    ccc     H9  11088 0.05653400   1.008000   ; qtot 254.545469
11089         h1    404    ccc    H10  11089 0.05653400   1.008000   ; qtot 254.602003
11090         oh    404    ccc     O5  11090 -0.84113600  16.000000   ; qtot 253.760867
11091         ho    404    ccc    H11  11091 0.51201600   1.008000   ; qtot 254.272883
11092         os    404    ccc     O6  11092 -0.26013600  16.000000   ; qtot 254.012747
; residue  405 ccc rtp ccc q 0.0
11093         c3    405    ccc     C1  11093 -0.33178800  12.010000   ; qtot 253.680959
11094         c3    405    ccc     C2  11094 0.30606500  12.010000   ; qtot 253.987024
11095         h1    405    ccc     H1  11095 0.11662300   1.008000   ; qtot 254.103647
11096         h1    405    ccc     H2  11096 0.11526800   1.008000   ; qtot 254.218915
11097         c3    405    ccc     C3  11097 0.15592700  12.010000   ; qtot 254.374842
11098         c3    405    ccc     C4  11098 0.28383300  12.010000   ; qtot 254.658675
11099         c3    405    ccc     C5  11099 0.32403300  12.010000   ; qtot 254.982708
11100         h1    405    ccc     H3  11100 0.13386900   1.008000   ; qtot 255.116577
11101         h1    405    ccc     H4  11101 0.10146700   1.008000   ; qtot 255.218044
11102         h2    405    ccc     H5  11102 0.10960400   1.008000   ; qtot 255.327648
11103         os    405    ccc     O1  11103 -0.28650000  16.000000   ; qtot 255.041148
11104         oh    405    ccc     O2  11104 -0.86012500  16.000000   ; qtot 254.181023
11105         oh    405    ccc     O3  11105 -0.83772800  16.000000   ; qtot 253.343295
11106         oh    405    ccc     O4  11106 -0.77449700  16.000000   ; qtot 252.568798
11107         c3    405    ccc     C6  11107 0.37576500  12.010000   ; qtot 252.944563
11108         ho    405    ccc     H6  11108 0.53656000   1.008000   ; qtot 253.481123
11109         ho    405    ccc     H7  11109 0.49492100   1.008000   ; qtot 253.976044
11110         ho    405    ccc     H8  11110 0.51297200   1.008000   ; qtot 254.489016
11111         h1    405    ccc     H9  11111 0.05653400   1.008000   ; qtot 254.545550
11112         h1    405    ccc    H10  11112 0.05653400   1.008000   ; qtot 254.602084
11113         oh    405    ccc     O5  11113 -0.84113600  16.000000   ; qtot 253.760948
11114         ho    405    ccc    H11  11114 0.51201600   1.008000   ; qtot 254.272964
11115         os    405    ccc     O6  11115 -0.26013600  16.000000   ; qtot 254.012828
; residue  406 ccc rtp ccc q 0.0
11116         c3    406    ccc     C1  11116 -0.33178800  12.010000   ; qtot 253.681040
11117         c3    406    ccc     C2  11117 0.30606500  12.010000   ; qtot 253.987105
11118         h1    406    ccc     H1  11118 0.11662300   1.008000   ; qtot 254.103728
11119         h1    406    ccc     H2  11119 0.11526800   1.008000   ; qtot 254.218996
11120         c3    406    ccc     C3  11120 0.15592700  12.010000   ; qtot 254.374923
11121         c3    406    ccc     C4  11121 0.28383300  12.010000   ; qtot 254.658756
11122         c3    406    ccc     C5  11122 0.32403300  12.010000   ; qtot 254.982789
11123         h1    406    ccc     H3  11123 0.13386900   1.008000   ; qtot 255.116658
11124         h1    406    ccc     H4  11124 0.10146700   1.008000   ; qtot 255.218125
11125         h2    406    ccc     H5  11125 0.10960400   1.008000   ; qtot 255.327729
11126         os    406    ccc     O1  11126 -0.28650000  16.000000   ; qtot 255.041229
11127         oh    406    ccc     O2  11127 -0.86012500  16.000000   ; qtot 254.181104
11128         oh    406    ccc     O3  11128 -0.83772800  16.000000   ; qtot 253.343376
11129         oh    406    ccc     O4  11129 -0.77449700  16.000000   ; qtot 252.568879
11130         c3    406    ccc     C6  11130 0.37576500  12.010000   ; qtot 252.944644
11131         ho    406    ccc     H6  11131 0.53656000   1.008000   ; qtot 253.481204
11132         ho    406    ccc     H7  11132 0.49492100   1.008000   ; qtot 253.976125
11133         ho    406    ccc     H8  11133 0.51297200   1.008000   ; qtot 254.489097
11134         h1    406    ccc     H9  11134 0.05653400   1.008000   ; qtot 254.545631
11135         h1    406    ccc    H10  11135 0.05653400   1.008000   ; qtot 254.602165
11136         oh    406    ccc     O5  11136 -0.84113600  16.000000   ; qtot 253.761029
11137         ho    406    ccc    H11  11137 0.51201600   1.008000   ; qtot 254.273045
11138         os    406    ccc     O6  11138 -0.26013600  16.000000   ; qtot 254.012909
; residue  407 ccc rtp ccc q 0.0
11139         c3    407    ccc     C1  11139 -0.33178800  12.010000   ; qtot 253.681121
11140         c3    407    ccc     C2  11140 0.30606500  12.010000   ; qtot 253.987186
11141         h1    407    ccc     H1  11141 0.11662300   1.008000   ; qtot 254.103809
11142         h1    407    ccc     H2  11142 0.11526800   1.008000   ; qtot 254.219077
11143         c3    407    ccc     C3  11143 0.15592700  12.010000   ; qtot 254.375004
11144         c3    407    ccc     C4  11144 0.28383300  12.010000   ; qtot 254.658837
11145         c3    407    ccc     C5  11145 0.32403300  12.010000   ; qtot 254.982870
11146         h1    407    ccc     H3  11146 0.13386900   1.008000   ; qtot 255.116739
11147         h1    407    ccc     H4  11147 0.10146700   1.008000   ; qtot 255.218206
11148         h2    407    ccc     H5  11148 0.10960400   1.008000   ; qtot 255.327810
11149         os    407    ccc     O1  11149 -0.28650000  16.000000   ; qtot 255.041310
11150         oh    407    ccc     O2  11150 -0.86012500  16.000000   ; qtot 254.181185
11151         oh    407    ccc     O3  11151 -0.83772800  16.000000   ; qtot 253.343457
11152         oh    407    ccc     O4  11152 -0.77449700  16.000000   ; qtot 252.568960
11153         c3    407    ccc     C6  11153 0.37576500  12.010000   ; qtot 252.944725
11154         ho    407    ccc     H6  11154 0.53656000   1.008000   ; qtot 253.481285
11155         ho    407    ccc     H7  11155 0.49492100   1.008000   ; qtot 253.976206
11156         ho    407    ccc     H8  11156 0.51297200   1.008000   ; qtot 254.489178
11157         h1    407    ccc     H9  11157 0.05653400   1.008000   ; qtot 254.545712
11158         h1    407    ccc    H10  11158 0.05653400   1.008000   ; qtot 254.602246
11159         oh    407    ccc     O5  11159 -0.84113600  16.000000   ; qtot 253.761110
11160         ho    407    ccc    H11  11160 0.51201600   1.008000   ; qtot 254.273126
11161         os    407    ccc     O6  11161 -0.26013600  16.000000   ; qtot 254.012990
; residue  408 ccc rtp ccc q 0.0
11162         c3    408    ccc     C1  11162 -0.33178800  12.010000   ; qtot 253.681202
11163         c3    408    ccc     C2  11163 0.30606500  12.010000   ; qtot 253.987267
11164         h1    408    ccc     H1  11164 0.11662300   1.008000   ; qtot 254.103890
11165         h1    408    ccc     H2  11165 0.11526800   1.008000   ; qtot 254.219158
11166         c3    408    ccc     C3  11166 0.15592700  12.010000   ; qtot 254.375085
11167         c3    408    ccc     C4  11167 0.28383300  12.010000   ; qtot 254.658918
11168         c3    408    ccc     C5  11168 0.32403300  12.010000   ; qtot 254.982951
11169         h1    408    ccc     H3  11169 0.13386900   1.008000   ; qtot 255.116820
11170         h1    408    ccc     H4  11170 0.10146700   1.008000   ; qtot 255.218287
11171         h2    408    ccc     H5  11171 0.10960400   1.008000   ; qtot 255.327891
11172         os    408    ccc     O1  11172 -0.28650000  16.000000   ; qtot 255.041391
11173         oh    408    ccc     O2  11173 -0.86012500  16.000000   ; qtot 254.181266
11174         oh    408    ccc     O3  11174 -0.83772800  16.000000   ; qtot 253.343538
11175         oh    408    ccc     O4  11175 -0.77449700  16.000000   ; qtot 252.569041
11176         c3    408    ccc     C6  11176 0.37576500  12.010000   ; qtot 252.944806
11177         ho    408    ccc     H6  11177 0.53656000   1.008000   ; qtot 253.481366
11178         ho    408    ccc     H7  11178 0.49492100   1.008000   ; qtot 253.976287
11179         ho    408    ccc     H8  11179 0.51297200   1.008000   ; qtot 254.489259
11180         h1    408    ccc     H9  11180 0.05653400   1.008000   ; qtot 254.545793
11181         h1    408    ccc    H10  11181 0.05653400   1.008000   ; qtot 254.602327
11182         oh    408    ccc     O5  11182 -0.84113600  16.000000   ; qtot 253.761191
11183         ho    408    ccc    H11  11183 0.51201600   1.008000   ; qtot 254.273207
11184         os    408    ccc     O6  11184 -0.26013600  16.000000   ; qtot 254.013071
; residue  409 ccc rtp ccc q 0.0
11185         c3    409    ccc     C1  11185 -0.33178800  12.010000   ; qtot 253.681283
11186         c3    409    ccc     C2  11186 0.30606500  12.010000   ; qtot 253.987348
11187         h1    409    ccc     H1  11187 0.11662300   1.008000   ; qtot 254.103971
11188         h1    409    ccc     H2  11188 0.11526800   1.008000   ; qtot 254.219239
11189         c3    409    ccc     C3  11189 0.15592700  12.010000   ; qtot 254.375166
11190         c3    409    ccc     C4  11190 0.28383300  12.010000   ; qtot 254.658999
11191         c3    409    ccc     C5  11191 0.32403300  12.010000   ; qtot 254.983032
11192         h1    409    ccc     H3  11192 0.13386900   1.008000   ; qtot 255.116901
11193         h1    409    ccc     H4  11193 0.10146700   1.008000   ; qtot 255.218368
11194         h2    409    ccc     H5  11194 0.10960400   1.008000   ; qtot 255.327972
11195         os    409    ccc     O1  11195 -0.28650000  16.000000   ; qtot 255.041472
11196         oh    409    ccc     O2  11196 -0.86012500  16.000000   ; qtot 254.181347
11197         oh    409    ccc     O3  11197 -0.83772800  16.000000   ; qtot 253.343619
11198         oh    409    ccc     O4  11198 -0.77449700  16.000000   ; qtot 252.569122
11199         c3    409    ccc     C6  11199 0.37576500  12.010000   ; qtot 252.944887
11200         ho    409    ccc     H6  11200 0.53656000   1.008000   ; qtot 253.481447
11201         ho    409    ccc     H7  11201 0.49492100   1.008000   ; qtot 253.976368
11202         ho    409    ccc     H8  11202 0.51297200   1.008000   ; qtot 254.489340
11203         h1    409    ccc     H9  11203 0.05653400   1.008000   ; qtot 254.545874
11204         h1    409    ccc    H10  11204 0.05653400   1.008000   ; qtot 254.602408
11205         oh    409    ccc     O5  11205 -0.84113600  16.000000   ; qtot 253.761272
11206         ho    409    ccc    H11  11206 0.51201600   1.008000   ; qtot 254.273288
11207         os    409    ccc     O6  11207 -0.26013600  16.000000   ; qtot 254.013152
; residue  410 ccc rtp ccc q 0.0
11208         c3    410    ccc     C1  11208 -0.33178800  12.010000   ; qtot 253.681364
11209         c3    410    ccc     C2  11209 0.30606500  12.010000   ; qtot 253.987429
11210         h1    410    ccc     H1  11210 0.11662300   1.008000   ; qtot 254.104052
11211         h1    410    ccc     H2  11211 0.11526800   1.008000   ; qtot 254.219320
11212         c3    410    ccc     C3  11212 0.15592700  12.010000   ; qtot 254.375247
11213         c3    410    ccc     C4  11213 0.28383300  12.010000   ; qtot 254.659080
11214         c3    410    ccc     C5  11214 0.32403300  12.010000   ; qtot 254.983113
11215         h1    410    ccc     H3  11215 0.13386900   1.008000   ; qtot 255.116982
11216         h1    410    ccc     H4  11216 0.10146700   1.008000   ; qtot 255.218449
11217         h2    410    ccc     H5  11217 0.10960400   1.008000   ; qtot 255.328053
11218         os    410    ccc     O1  11218 -0.28650000  16.000000   ; qtot 255.041553
11219         oh    410    ccc     O2  11219 -0.86012500  16.000000   ; qtot 254.181428
11220         oh    410    ccc     O3  11220 -0.83772800  16.000000   ; qtot 253.343700
11221         oh    410    ccc     O4  11221 -0.77449700  16.000000   ; qtot 252.569203
11222         c3    410    ccc     C6  11222 0.37576500  12.010000   ; qtot 252.944968
11223         ho    410    ccc     H6  11223 0.53656000   1.008000   ; qtot 253.481528
11224         ho    410    ccc     H7  11224 0.49492100   1.008000   ; qtot 253.976449
11225         ho    410    ccc     H8  11225 0.51297200   1.008000   ; qtot 254.489421
11226         h1    410    ccc     H9  11226 0.05653400   1.008000   ; qtot 254.545955
11227         h1    410    ccc    H10  11227 0.05653400   1.008000   ; qtot 254.602489
11228         oh    410    ccc     O5  11228 -0.84113600  16.000000   ; qtot 253.761353
11229         ho    410    ccc    H11  11229 0.51201600   1.008000   ; qtot 254.273369
11230         os    410    ccc     O6  11230 -0.26013600  16.000000   ; qtot 254.013233
; residue  411 ccc rtp ccc q 0.0
11231         c3    411    ccc     C1  11231 -0.33178800  12.010000   ; qtot 253.681445
11232         c3    411    ccc     C2  11232 0.30606500  12.010000   ; qtot 253.987510
11233         h1    411    ccc     H1  11233 0.11662300   1.008000   ; qtot 254.104133
11234         h1    411    ccc     H2  11234 0.11526800   1.008000   ; qtot 254.219401
11235         c3    411    ccc     C3  11235 0.15592700  12.010000   ; qtot 254.375328
11236         c3    411    ccc     C4  11236 0.28383300  12.010000   ; qtot 254.659161
11237         c3    411    ccc     C5  11237 0.32403300  12.010000   ; qtot 254.983194
11238         h1    411    ccc     H3  11238 0.13386900   1.008000   ; qtot 255.117063
11239         h1    411    ccc     H4  11239 0.10146700   1.008000   ; qtot 255.218530
11240         h2    411    ccc     H5  11240 0.10960400   1.008000   ; qtot 255.328134
11241         os    411    ccc     O1  11241 -0.28650000  16.000000   ; qtot 255.041634
11242         oh    411    ccc     O2  11242 -0.86012500  16.000000   ; qtot 254.181509
11243         oh    411    ccc     O3  11243 -0.83772800  16.000000   ; qtot 253.343781
11244         oh    411    ccc     O4  11244 -0.77449700  16.000000   ; qtot 252.569284
11245         c3    411    ccc     C6  11245 0.37576500  12.010000   ; qtot 252.945049
11246         ho    411    ccc     H6  11246 0.53656000   1.008000   ; qtot 253.481609
11247         ho    411    ccc     H7  11247 0.49492100   1.008000   ; qtot 253.976530
11248         ho    411    ccc     H8  11248 0.51297200   1.008000   ; qtot 254.489502
11249         h1    411    ccc     H9  11249 0.05653400   1.008000   ; qtot 254.546036
11250         h1    411    ccc    H10  11250 0.05653400   1.008000   ; qtot 254.602570
11251         oh    411    ccc     O5  11251 -0.84113600  16.000000   ; qtot 253.761434
11252         ho    411    ccc    H11  11252 0.51201600   1.008000   ; qtot 254.273450
11253         os    411    ccc     O6  11253 -0.26013600  16.000000   ; qtot 254.013314
; residue  412 ccc rtp ccc q 0.0
11254         c3    412    ccc     C1  11254 -0.33178800  12.010000   ; qtot 253.681526
11255         c3    412    ccc     C2  11255 0.30606500  12.010000   ; qtot 253.987591
11256         h1    412    ccc     H1  11256 0.11662300   1.008000   ; qtot 254.104214
11257         h1    412    ccc     H2  11257 0.11526800   1.008000   ; qtot 254.219482
11258         c3    412    ccc     C3  11258 0.15592700  12.010000   ; qtot 254.375409
11259         c3    412    ccc     C4  11259 0.28383300  12.010000   ; qtot 254.659242
11260         c3    412    ccc     C5  11260 0.32403300  12.010000   ; qtot 254.983275
11261         h1    412    ccc     H3  11261 0.13386900   1.008000   ; qtot 255.117144
11262         h1    412    ccc     H4  11262 0.10146700   1.008000   ; qtot 255.218611
11263         h2    412    ccc     H5  11263 0.10960400   1.008000   ; qtot 255.328215
11264         os    412    ccc     O1  11264 -0.28650000  16.000000   ; qtot 255.041715
11265         oh    412    ccc     O2  11265 -0.86012500  16.000000   ; qtot 254.181590
11266         oh    412    ccc     O3  11266 -0.83772800  16.000000   ; qtot 253.343862
11267         oh    412    ccc     O4  11267 -0.77449700  16.000000   ; qtot 252.569365
11268         c3    412    ccc     C6  11268 0.37576500  12.010000   ; qtot 252.945130
11269         ho    412    ccc     H6  11269 0.53656000   1.008000   ; qtot 253.481690
11270         ho    412    ccc     H7  11270 0.49492100   1.008000   ; qtot 253.976611
11271         ho    412    ccc     H8  11271 0.51297200   1.008000   ; qtot 254.489583
11272         h1    412    ccc     H9  11272 0.05653400   1.008000   ; qtot 254.546117
11273         h1    412    ccc    H10  11273 0.05653400   1.008000   ; qtot 254.602651
11274         oh    412    ccc     O5  11274 -0.84113600  16.000000   ; qtot 253.761515
11275         ho    412    ccc    H11  11275 0.51201600   1.008000   ; qtot 254.273531
11276         os    412    ccc     O6  11276 -0.26013600  16.000000   ; qtot 254.013395
; residue  413 ccc rtp ccc q 0.0
11277         c3    413    ccc     C1  11277 -0.33178800  12.010000   ; qtot 253.681607
11278         c3    413    ccc     C2  11278 0.30606500  12.010000   ; qtot 253.987672
11279         h1    413    ccc     H1  11279 0.11662300   1.008000   ; qtot 254.104295
11280         h1    413    ccc     H2  11280 0.11526800   1.008000   ; qtot 254.219563
11281         c3    413    ccc     C3  11281 0.15592700  12.010000   ; qtot 254.375490
11282         c3    413    ccc     C4  11282 0.28383300  12.010000   ; qtot 254.659323
11283         c3    413    ccc     C5  11283 0.32403300  12.010000   ; qtot 254.983356
11284         h1    413    ccc     H3  11284 0.13386900   1.008000   ; qtot 255.117225
11285         h1    413    ccc     H4  11285 0.10146700   1.008000   ; qtot 255.218692
11286         h2    413    ccc     H5  11286 0.10960400   1.008000   ; qtot 255.328296
11287         os    413    ccc     O1  11287 -0.28650000  16.000000   ; qtot 255.041796
11288         oh    413    ccc     O2  11288 -0.86012500  16.000000   ; qtot 254.181671
11289         oh    413    ccc     O3  11289 -0.83772800  16.000000   ; qtot 253.343943
11290         oh    413    ccc     O4  11290 -0.77449700  16.000000   ; qtot 252.569446
11291         c3    413    ccc     C6  11291 0.37576500  12.010000   ; qtot 252.945211
11292         ho    413    ccc     H6  11292 0.53656000   1.008000   ; qtot 253.481771
11293         ho    413    ccc     H7  11293 0.49492100   1.008000   ; qtot 253.976692
11294         ho    413    ccc     H8  11294 0.51297200   1.008000   ; qtot 254.489664
11295         h1    413    ccc     H9  11295 0.05653400   1.008000   ; qtot 254.546198
11296         h1    413    ccc    H10  11296 0.05653400   1.008000   ; qtot 254.602732
11297         oh    413    ccc     O5  11297 -0.84113600  16.000000   ; qtot 253.761596
11298         ho    413    ccc    H11  11298 0.51201600   1.008000   ; qtot 254.273612
11299         os    413    ccc     O6  11299 -0.26013600  16.000000   ; qtot 254.013476
; residue  414 ccc rtp ccc q 0.0
11300         c3    414    ccc     C1  11300 -0.33178800  12.010000   ; qtot 253.681688
11301         c3    414    ccc     C2  11301 0.30606500  12.010000   ; qtot 253.987753
11302         h1    414    ccc     H1  11302 0.11662300   1.008000   ; qtot 254.104376
11303         h1    414    ccc     H2  11303 0.11526800   1.008000   ; qtot 254.219644
11304         c3    414    ccc     C3  11304 0.15592700  12.010000   ; qtot 254.375571
11305         c3    414    ccc     C4  11305 0.28383300  12.010000   ; qtot 254.659404
11306         c3    414    ccc     C5  11306 0.32403300  12.010000   ; qtot 254.983437
11307         h1    414    ccc     H3  11307 0.13386900   1.008000   ; qtot 255.117306
11308         h1    414    ccc     H4  11308 0.10146700   1.008000   ; qtot 255.218773
11309         h2    414    ccc     H5  11309 0.10960400   1.008000   ; qtot 255.328377
11310         os    414    ccc     O1  11310 -0.28650000  16.000000   ; qtot 255.041877
11311         oh    414    ccc     O2  11311 -0.86012500  16.000000   ; qtot 254.181752
11312         oh    414    ccc     O3  11312 -0.83772800  16.000000   ; qtot 253.344024
11313         oh    414    ccc     O4  11313 -0.77449700  16.000000   ; qtot 252.569527
11314         c3    414    ccc     C6  11314 0.37576500  12.010000   ; qtot 252.945292
11315         ho    414    ccc     H6  11315 0.53656000   1.008000   ; qtot 253.481852
11316         ho    414    ccc     H7  11316 0.49492100   1.008000   ; qtot 253.976773
11317         ho    414    ccc     H8  11317 0.51297200   1.008000   ; qtot 254.489745
11318         h1    414    ccc     H9  11318 0.05653400   1.008000   ; qtot 254.546279
11319         h1    414    ccc    H10  11319 0.05653400   1.008000   ; qtot 254.602813
11320         oh    414    ccc     O5  11320 -0.84113600  16.000000   ; qtot 253.761677
11321         ho    414    ccc    H11  11321 0.51201600   1.008000   ; qtot 254.273693
11322         os    414    ccc     O6  11322 -0.26013600  16.000000   ; qtot 254.013557
; residue  415 ccc rtp ccc q 0.0
11323         c3    415    ccc     C1  11323 -0.33178800  12.010000   ; qtot 253.681769
11324         c3    415    ccc     C2  11324 0.30606500  12.010000   ; qtot 253.987834
11325         h1    415    ccc     H1  11325 0.11662300   1.008000   ; qtot 254.104457
11326         h1    415    ccc     H2  11326 0.11526800   1.008000   ; qtot 254.219725
11327         c3    415    ccc     C3  11327 0.15592700  12.010000   ; qtot 254.375652
11328         c3    415    ccc     C4  11328 0.28383300  12.010000   ; qtot 254.659485
11329         c3    415    ccc     C5  11329 0.32403300  12.010000   ; qtot 254.983518
11330         h1    415    ccc     H3  11330 0.13386900   1.008000   ; qtot 255.117387
11331         h1    415    ccc     H4  11331 0.10146700   1.008000   ; qtot 255.218854
11332         h2    415    ccc     H5  11332 0.10960400   1.008000   ; qtot 255.328458
11333         os    415    ccc     O1  11333 -0.28650000  16.000000   ; qtot 255.041958
11334         oh    415    ccc     O2  11334 -0.86012500  16.000000   ; qtot 254.181833
11335         oh    415    ccc     O3  11335 -0.83772800  16.000000   ; qtot 253.344105
11336         oh    415    ccc     O4  11336 -0.77449700  16.000000   ; qtot 252.569608
11337         c3    415    ccc     C6  11337 0.37576500  12.010000   ; qtot 252.945373
11338         ho    415    ccc     H6  11338 0.53656000   1.008000   ; qtot 253.481933
11339         ho    415    ccc     H7  11339 0.49492100   1.008000   ; qtot 253.976854
11340         ho    415    ccc     H8  11340 0.51297200   1.008000   ; qtot 254.489826
11341         h1    415    ccc     H9  11341 0.05653400   1.008000   ; qtot 254.546360
11342         h1    415    ccc    H10  11342 0.05653400   1.008000   ; qtot 254.602894
11343         oh    415    ccc     O5  11343 -0.84113600  16.000000   ; qtot 253.761758
11344         ho    415    ccc    H11  11344 0.51201600   1.008000   ; qtot 254.273774
11345         os    415    ccc     O6  11345 -0.26013600  16.000000   ; qtot 254.013638
; residue  416 ccc rtp ccc q 0.0
11346         c3    416    ccc     C1  11346 -0.33178800  12.010000   ; qtot 253.681850
11347         c3    416    ccc     C2  11347 0.30606500  12.010000   ; qtot 253.987915
11348         h1    416    ccc     H1  11348 0.11662300   1.008000   ; qtot 254.104538
11349         h1    416    ccc     H2  11349 0.11526800   1.008000   ; qtot 254.219806
11350         c3    416    ccc     C3  11350 0.15592700  12.010000   ; qtot 254.375733
11351         c3    416    ccc     C4  11351 0.28383300  12.010000   ; qtot 254.659566
11352         c3    416    ccc     C5  11352 0.32403300  12.010000   ; qtot 254.983599
11353         h1    416    ccc     H3  11353 0.13386900   1.008000   ; qtot 255.117468
11354         h1    416    ccc     H4  11354 0.10146700   1.008000   ; qtot 255.218935
11355         h2    416    ccc     H5  11355 0.10960400   1.008000   ; qtot 255.328539
11356         os    416    ccc     O1  11356 -0.28650000  16.000000   ; qtot 255.042039
11357         oh    416    ccc     O2  11357 -0.86012500  16.000000   ; qtot 254.181914
11358         oh    416    ccc     O3  11358 -0.83772800  16.000000   ; qtot 253.344186
11359         oh    416    ccc     O4  11359 -0.77449700  16.000000   ; qtot 252.569689
11360         c3    416    ccc     C6  11360 0.37576500  12.010000   ; qtot 252.945454
11361         ho    416    ccc     H6  11361 0.53656000   1.008000   ; qtot 253.482014
11362         ho    416    ccc     H7  11362 0.49492100   1.008000   ; qtot 253.976935
11363         ho    416    ccc     H8  11363 0.51297200   1.008000   ; qtot 254.489907
11364         h1    416    ccc     H9  11364 0.05653400   1.008000   ; qtot 254.546441
11365         h1    416    ccc    H10  11365 0.05653400   1.008000   ; qtot 254.602975
11366         oh    416    ccc     O5  11366 -0.84113600  16.000000   ; qtot 253.761839
11367         ho    416    ccc    H11  11367 0.51201600   1.008000   ; qtot 254.273855
11368         os    416    ccc     O6  11368 -0.26013600  16.000000   ; qtot 254.013719
; residue  417 ccc rtp ccc q 0.0
11369         c3    417    ccc     C1  11369 -0.33178800  12.010000   ; qtot 253.681931
11370         c3    417    ccc     C2  11370 0.30606500  12.010000   ; qtot 253.987996
11371         h1    417    ccc     H1  11371 0.11662300   1.008000   ; qtot 254.104619
11372         h1    417    ccc     H2  11372 0.11526800   1.008000   ; qtot 254.219887
11373         c3    417    ccc     C3  11373 0.15592700  12.010000   ; qtot 254.375814
11374         c3    417    ccc     C4  11374 0.28383300  12.010000   ; qtot 254.659647
11375         c3    417    ccc     C5  11375 0.32403300  12.010000   ; qtot 254.983680
11376         h1    417    ccc     H3  11376 0.13386900   1.008000   ; qtot 255.117549
11377         h1    417    ccc     H4  11377 0.10146700   1.008000   ; qtot 255.219016
11378         h2    417    ccc     H5  11378 0.10960400   1.008000   ; qtot 255.328620
11379         os    417    ccc     O1  11379 -0.28650000  16.000000   ; qtot 255.042120
11380         oh    417    ccc     O2  11380 -0.86012500  16.000000   ; qtot 254.181995
11381         oh    417    ccc     O3  11381 -0.83772800  16.000000   ; qtot 253.344267
11382         oh    417    ccc     O4  11382 -0.77449700  16.000000   ; qtot 252.569770
11383         c3    417    ccc     C6  11383 0.37576500  12.010000   ; qtot 252.945535
11384         ho    417    ccc     H6  11384 0.53656000   1.008000   ; qtot 253.482095
11385         ho    417    ccc     H7  11385 0.49492100   1.008000   ; qtot 253.977016
11386         ho    417    ccc     H8  11386 0.51297200   1.008000   ; qtot 254.489988
11387         h1    417    ccc     H9  11387 0.05653400   1.008000   ; qtot 254.546522
11388         h1    417    ccc    H10  11388 0.05653400   1.008000   ; qtot 254.603056
11389         oh    417    ccc     O5  11389 -0.84113600  16.000000   ; qtot 253.761920
11390         ho    417    ccc    H11  11390 0.51201600   1.008000   ; qtot 254.273936
11391         os    417    ccc     O6  11391 -0.26013600  16.000000   ; qtot 254.013800
; residue  418 ccc rtp ccc q 0.0
11392         c3    418    ccc     C1  11392 -0.33178800  12.010000   ; qtot 253.682012
11393         c3    418    ccc     C2  11393 0.30606500  12.010000   ; qtot 253.988077
11394         h1    418    ccc     H1  11394 0.11662300   1.008000   ; qtot 254.104700
11395         h1    418    ccc     H2  11395 0.11526800   1.008000   ; qtot 254.219968
11396         c3    418    ccc     C3  11396 0.15592700  12.010000   ; qtot 254.375895
11397         c3    418    ccc     C4  11397 0.28383300  12.010000   ; qtot 254.659728
11398         c3    418    ccc     C5  11398 0.32403300  12.010000   ; qtot 254.983761
11399         h1    418    ccc     H3  11399 0.13386900   1.008000   ; qtot 255.117630
11400         h1    418    ccc     H4  11400 0.10146700   1.008000   ; qtot 255.219097
11401         h2    418    ccc     H5  11401 0.10960400   1.008000   ; qtot 255.328701
11402         os    418    ccc     O1  11402 -0.28650000  16.000000   ; qtot 255.042201
11403         oh    418    ccc     O2  11403 -0.86012500  16.000000   ; qtot 254.182076
11404         oh    418    ccc     O3  11404 -0.83772800  16.000000   ; qtot 253.344348
11405         oh    418    ccc     O4  11405 -0.77449700  16.000000   ; qtot 252.569851
11406         c3    418    ccc     C6  11406 0.37576500  12.010000   ; qtot 252.945616
11407         ho    418    ccc     H6  11407 0.53656000   1.008000   ; qtot 253.482176
11408         ho    418    ccc     H7  11408 0.49492100   1.008000   ; qtot 253.977097
11409         ho    418    ccc     H8  11409 0.51297200   1.008000   ; qtot 254.490069
11410         h1    418    ccc     H9  11410 0.05653400   1.008000   ; qtot 254.546603
11411         h1    418    ccc    H10  11411 0.05653400   1.008000   ; qtot 254.603137
11412         oh    418    ccc     O5  11412 -0.84113600  16.000000   ; qtot 253.762001
11413         ho    418    ccc    H11  11413 0.51201600   1.008000   ; qtot 254.274017
11414         os    418    ccc     O6  11414 -0.26013600  16.000000   ; qtot 254.013881
; residue  419 ccc rtp ccc q 0.0
11415         c3    419    ccc     C1  11415 -0.33178800  12.010000   ; qtot 253.682093
11416         c3    419    ccc     C2  11416 0.30606500  12.010000   ; qtot 253.988158
11417         h1    419    ccc     H1  11417 0.11662300   1.008000   ; qtot 254.104781
11418         h1    419    ccc     H2  11418 0.11526800   1.008000   ; qtot 254.220049
11419         c3    419    ccc     C3  11419 0.15592700  12.010000   ; qtot 254.375976
11420         c3    419    ccc     C4  11420 0.28383300  12.010000   ; qtot 254.659809
11421         c3    419    ccc     C5  11421 0.32403300  12.010000   ; qtot 254.983842
11422         h1    419    ccc     H3  11422 0.13386900   1.008000   ; qtot 255.117711
11423         h1    419    ccc     H4  11423 0.10146700   1.008000   ; qtot 255.219178
11424         h2    419    ccc     H5  11424 0.10960400   1.008000   ; qtot 255.328782
11425         os    419    ccc     O1  11425 -0.28650000  16.000000   ; qtot 255.042282
11426         oh    419    ccc     O2  11426 -0.86012500  16.000000   ; qtot 254.182157
11427         oh    419    ccc     O3  11427 -0.83772800  16.000000   ; qtot 253.344429
11428         oh    419    ccc     O4  11428 -0.77449700  16.000000   ; qtot 252.569932
11429         c3    419    ccc     C6  11429 0.37576500  12.010000   ; qtot 252.945697
11430         ho    419    ccc     H6  11430 0.53656000   1.008000   ; qtot 253.482257
11431         ho    419    ccc     H7  11431 0.49492100   1.008000   ; qtot 253.977178
11432         ho    419    ccc     H8  11432 0.51297200   1.008000   ; qtot 254.490150
11433         h1    419    ccc     H9  11433 0.05653400   1.008000   ; qtot 254.546684
11434         h1    419    ccc    H10  11434 0.05653400   1.008000   ; qtot 254.603218
11435         oh    419    ccc     O5  11435 -0.84113600  16.000000   ; qtot 253.762082
11436         ho    419    ccc    H11  11436 0.51201600   1.008000   ; qtot 254.274098
11437         os    419    ccc     O6  11437 -0.26013600  16.000000   ; qtot 254.013962
; residue  420 ccc rtp ccc q 0.0
11438         c3    420    ccc     C1  11438 -0.33178800  12.010000   ; qtot 253.682174
11439         c3    420    ccc     C2  11439 0.30606500  12.010000   ; qtot 253.988239
11440         h1    420    ccc     H1  11440 0.11662300   1.008000   ; qtot 254.104862
11441         h1    420    ccc     H2  11441 0.11526800   1.008000   ; qtot 254.220130
11442         c3    420    ccc     C3  11442 0.15592700  12.010000   ; qtot 254.376057
11443         c3    420    ccc     C4  11443 0.28383300  12.010000   ; qtot 254.659890
11444         c3    420    ccc     C5  11444 0.32403300  12.010000   ; qtot 254.983923
11445         h1    420    ccc     H3  11445 0.13386900   1.008000   ; qtot 255.117792
11446         h1    420    ccc     H4  11446 0.10146700   1.008000   ; qtot 255.219259
11447         h2    420    ccc     H5  11447 0.10960400   1.008000   ; qtot 255.328863
11448         os    420    ccc     O1  11448 -0.28650000  16.000000   ; qtot 255.042363
11449         oh    420    ccc     O2  11449 -0.86012500  16.000000   ; qtot 254.182238
11450         oh    420    ccc     O3  11450 -0.83772800  16.000000   ; qtot 253.344510
11451         oh    420    ccc     O4  11451 -0.77449700  16.000000   ; qtot 252.570013
11452         c3    420    ccc     C6  11452 0.37576500  12.010000   ; qtot 252.945778
11453         ho    420    ccc     H6  11453 0.53656000   1.008000   ; qtot 253.482338
11454         ho    420    ccc     H7  11454 0.49492100   1.008000   ; qtot 253.977259
11455         ho    420    ccc     H8  11455 0.51297200   1.008000   ; qtot 254.490231
11456         h1    420    ccc     H9  11456 0.05653400   1.008000   ; qtot 254.546765
11457         h1    420    ccc    H10  11457 0.05653400   1.008000   ; qtot 254.603299
11458         oh    420    ccc     O5  11458 -0.84113600  16.000000   ; qtot 253.762163
11459         ho    420    ccc    H11  11459 0.51201600   1.008000   ; qtot 254.274179
11460         os    420    ccc     O6  11460 -0.26013600  16.000000   ; qtot 254.014043
; residue  421 ccc rtp ccc q 0.0
11461         c3    421    ccc     C1  11461 -0.33178800  12.010000   ; qtot 253.682255
11462         c3    421    ccc     C2  11462 0.30606500  12.010000   ; qtot 253.988320
11463         h1    421    ccc     H1  11463 0.11662300   1.008000   ; qtot 254.104943
11464         h1    421    ccc     H2  11464 0.11526800   1.008000   ; qtot 254.220211
11465         c3    421    ccc     C3  11465 0.15592700  12.010000   ; qtot 254.376138
11466         c3    421    ccc     C4  11466 0.28383300  12.010000   ; qtot 254.659971
11467         c3    421    ccc     C5  11467 0.32403300  12.010000   ; qtot 254.984004
11468         h1    421    ccc     H3  11468 0.13386900   1.008000   ; qtot 255.117873
11469         h1    421    ccc     H4  11469 0.10146700   1.008000   ; qtot 255.219340
11470         h2    421    ccc     H5  11470 0.10960400   1.008000   ; qtot 255.328944
11471         os    421    ccc     O1  11471 -0.28650000  16.000000   ; qtot 255.042444
11472         oh    421    ccc     O2  11472 -0.86012500  16.000000   ; qtot 254.182319
11473         oh    421    ccc     O3  11473 -0.83772800  16.000000   ; qtot 253.344591
11474         oh    421    ccc     O4  11474 -0.77449700  16.000000   ; qtot 252.570094
11475         c3    421    ccc     C6  11475 0.37576500  12.010000   ; qtot 252.945859
11476         ho    421    ccc     H6  11476 0.53656000   1.008000   ; qtot 253.482419
11477         ho    421    ccc     H7  11477 0.49492100   1.008000   ; qtot 253.977340
11478         ho    421    ccc     H8  11478 0.51297200   1.008000   ; qtot 254.490312
11479         h1    421    ccc     H9  11479 0.05653400   1.008000   ; qtot 254.546846
11480         h1    421    ccc    H10  11480 0.05653400   1.008000   ; qtot 254.603380
11481         oh    421    ccc     O5  11481 -0.84113600  16.000000   ; qtot 253.762244
11482         ho    421    ccc    H11  11482 0.51201600   1.008000   ; qtot 254.274260
11483         os    421    ccc     O6  11483 -0.26013600  16.000000   ; qtot 254.014124
; residue  422 ccc rtp ccc q 0.0
11484         c3    422    ccc     C1  11484 -0.33178800  12.010000   ; qtot 253.682336
11485         c3    422    ccc     C2  11485 0.30606500  12.010000   ; qtot 253.988401
11486         h1    422    ccc     H1  11486 0.11662300   1.008000   ; qtot 254.105024
11487         h1    422    ccc     H2  11487 0.11526800   1.008000   ; qtot 254.220292
11488         c3    422    ccc     C3  11488 0.15592700  12.010000   ; qtot 254.376219
11489         c3    422    ccc     C4  11489 0.28383300  12.010000   ; qtot 254.660052
11490         c3    422    ccc     C5  11490 0.32403300  12.010000   ; qtot 254.984085
11491         h1    422    ccc     H3  11491 0.13386900   1.008000   ; qtot 255.117954
11492         h1    422    ccc     H4  11492 0.10146700   1.008000   ; qtot 255.219421
11493         h2    422    ccc     H5  11493 0.10960400   1.008000   ; qtot 255.329025
11494         os    422    ccc     O1  11494 -0.28650000  16.000000   ; qtot 255.042525
11495         oh    422    ccc     O2  11495 -0.86012500  16.000000   ; qtot 254.182400
11496         oh    422    ccc     O3  11496 -0.83772800  16.000000   ; qtot 253.344672
11497         oh    422    ccc     O4  11497 -0.77449700  16.000000   ; qtot 252.570175
11498         c3    422    ccc     C6  11498 0.37576500  12.010000   ; qtot 252.945940
11499         ho    422    ccc     H6  11499 0.53656000   1.008000   ; qtot 253.482500
11500         ho    422    ccc     H7  11500 0.49492100   1.008000   ; qtot 253.977421
11501         ho    422    ccc     H8  11501 0.51297200   1.008000   ; qtot 254.490393
11502         h1    422    ccc     H9  11502 0.05653400   1.008000   ; qtot 254.546927
11503         h1    422    ccc    H10  11503 0.05653400   1.008000   ; qtot 254.603461
11504         oh    422    ccc     O5  11504 -0.84113600  16.000000   ; qtot 253.762325
11505         ho    422    ccc    H11  11505 0.51201600   1.008000   ; qtot 254.274341
11506         os    422    ccc     O6  11506 -0.26013600  16.000000   ; qtot 254.014205
; residue  423 ccc rtp ccc q 0.0
11507         c3    423    ccc     C1  11507 -0.33178800  12.010000   ; qtot 253.682417
11508         c3    423    ccc     C2  11508 0.30606500  12.010000   ; qtot 253.988482
11509         h1    423    ccc     H1  11509 0.11662300   1.008000   ; qtot 254.105105
11510         h1    423    ccc     H2  11510 0.11526800   1.008000   ; qtot 254.220373
11511         c3    423    ccc     C3  11511 0.15592700  12.010000   ; qtot 254.376300
11512         c3    423    ccc     C4  11512 0.28383300  12.010000   ; qtot 254.660133
11513         c3    423    ccc     C5  11513 0.32403300  12.010000   ; qtot 254.984166
11514         h1    423    ccc     H3  11514 0.13386900   1.008000   ; qtot 255.118035
11515         h1    423    ccc     H4  11515 0.10146700   1.008000   ; qtot 255.219502
11516         h2    423    ccc     H5  11516 0.10960400   1.008000   ; qtot 255.329106
11517         os    423    ccc     O1  11517 -0.28650000  16.000000   ; qtot 255.042606
11518         oh    423    ccc     O2  11518 -0.86012500  16.000000   ; qtot 254.182481
11519         oh    423    ccc     O3  11519 -0.83772800  16.000000   ; qtot 253.344753
11520         oh    423    ccc     O4  11520 -0.77449700  16.000000   ; qtot 252.570256
11521         c3    423    ccc     C6  11521 0.37576500  12.010000   ; qtot 252.946021
11522         ho    423    ccc     H6  11522 0.53656000   1.008000   ; qtot 253.482581
11523         ho    423    ccc     H7  11523 0.49492100   1.008000   ; qtot 253.977502
11524         ho    423    ccc     H8  11524 0.51297200   1.008000   ; qtot 254.490474
11525         h1    423    ccc     H9  11525 0.05653400   1.008000   ; qtot 254.547008
11526         h1    423    ccc    H10  11526 0.05653400   1.008000   ; qtot 254.603542
11527         oh    423    ccc     O5  11527 -0.84113600  16.000000   ; qtot 253.762406
11528         ho    423    ccc    H11  11528 0.51201600   1.008000   ; qtot 254.274422
11529         os    423    ccc     O6  11529 -0.26013600  16.000000   ; qtot 254.014286
; residue  424 ccc rtp ccc q 0.0
11530         c3    424    ccc     C1  11530 -0.33178800  12.010000   ; qtot 253.682498
11531         c3    424    ccc     C2  11531 0.30606500  12.010000   ; qtot 253.988563
11532         h1    424    ccc     H1  11532 0.11662300   1.008000   ; qtot 254.105186
11533         h1    424    ccc     H2  11533 0.11526800   1.008000   ; qtot 254.220454
11534         c3    424    ccc     C3  11534 0.15592700  12.010000   ; qtot 254.376381
11535         c3    424    ccc     C4  11535 0.28383300  12.010000   ; qtot 254.660214
11536         c3    424    ccc     C5  11536 0.32403300  12.010000   ; qtot 254.984247
11537         h1    424    ccc     H3  11537 0.13386900   1.008000   ; qtot 255.118116
11538         h1    424    ccc     H4  11538 0.10146700   1.008000   ; qtot 255.219583
11539         h2    424    ccc     H5  11539 0.10960400   1.008000   ; qtot 255.329187
11540         os    424    ccc     O1  11540 -0.28650000  16.000000   ; qtot 255.042687
11541         oh    424    ccc     O2  11541 -0.86012500  16.000000   ; qtot 254.182562
11542         oh    424    ccc     O3  11542 -0.83772800  16.000000   ; qtot 253.344834
11543         oh    424    ccc     O4  11543 -0.77449700  16.000000   ; qtot 252.570337
11544         c3    424    ccc     C6  11544 0.37576500  12.010000   ; qtot 252.946102
11545         ho    424    ccc     H6  11545 0.53656000   1.008000   ; qtot 253.482662
11546         ho    424    ccc     H7  11546 0.49492100   1.008000   ; qtot 253.977583
11547         ho    424    ccc     H8  11547 0.51297200   1.008000   ; qtot 254.490555
11548         h1    424    ccc     H9  11548 0.05653400   1.008000   ; qtot 254.547089
11549         h1    424    ccc    H10  11549 0.05653400   1.008000   ; qtot 254.603623
11550         oh    424    ccc     O5  11550 -0.84113600  16.000000   ; qtot 253.762487
11551         ho    424    ccc    H11  11551 0.51201600   1.008000   ; qtot 254.274503
11552         os    424    ccc     O6  11552 -0.26013600  16.000000   ; qtot 254.014367
; residue  425 ccc rtp ccc q 0.0
11553         c3    425    ccc     C1  11553 -0.33178800  12.010000   ; qtot 253.682579
11554         c3    425    ccc     C2  11554 0.30606500  12.010000   ; qtot 253.988644
11555         h1    425    ccc     H1  11555 0.11662300   1.008000   ; qtot 254.105267
11556         h1    425    ccc     H2  11556 0.11526800   1.008000   ; qtot 254.220535
11557         c3    425    ccc     C3  11557 0.15592700  12.010000   ; qtot 254.376462
11558         c3    425    ccc     C4  11558 0.28383300  12.010000   ; qtot 254.660295
11559         c3    425    ccc     C5  11559 0.32403300  12.010000   ; qtot 254.984328
11560         h1    425    ccc     H3  11560 0.13386900   1.008000   ; qtot 255.118197
11561         h1    425    ccc     H4  11561 0.10146700   1.008000   ; qtot 255.219664
11562         h2    425    ccc     H5  11562 0.10960400   1.008000   ; qtot 255.329268
11563         os    425    ccc     O1  11563 -0.28650000  16.000000   ; qtot 255.042768
11564         oh    425    ccc     O2  11564 -0.86012500  16.000000   ; qtot 254.182643
11565         oh    425    ccc     O3  11565 -0.83772800  16.000000   ; qtot 253.344915
11566         oh    425    ccc     O4  11566 -0.77449700  16.000000   ; qtot 252.570418
11567         c3    425    ccc     C6  11567 0.37576500  12.010000   ; qtot 252.946183
11568         ho    425    ccc     H6  11568 0.53656000   1.008000   ; qtot 253.482743
11569         ho    425    ccc     H7  11569 0.49492100   1.008000   ; qtot 253.977664
11570         ho    425    ccc     H8  11570 0.51297200   1.008000   ; qtot 254.490636
11571         h1    425    ccc     H9  11571 0.05653400   1.008000   ; qtot 254.547170
11572         h1    425    ccc    H10  11572 0.05653400   1.008000   ; qtot 254.603704
11573         oh    425    ccc     O5  11573 -0.84113600  16.000000   ; qtot 253.762568
11574         ho    425    ccc    H11  11574 0.51201600   1.008000   ; qtot 254.274584
11575         os    425    ccc     O6  11575 -0.26013600  16.000000   ; qtot 254.014448
; residue  426 ccc rtp ccc q 0.0
11576         c3    426    ccc     C1  11576 -0.33178800  12.010000   ; qtot 253.682660
11577         c3    426    ccc     C2  11577 0.30606500  12.010000   ; qtot 253.988725
11578         h1    426    ccc     H1  11578 0.11662300   1.008000   ; qtot 254.105348
11579         h1    426    ccc     H2  11579 0.11526800   1.008000   ; qtot 254.220616
11580         c3    426    ccc     C3  11580 0.15592700  12.010000   ; qtot 254.376543
11581         c3    426    ccc     C4  11581 0.28383300  12.010000   ; qtot 254.660376
11582         c3    426    ccc     C5  11582 0.32403300  12.010000   ; qtot 254.984409
11583         h1    426    ccc     H3  11583 0.13386900   1.008000   ; qtot 255.118278
11584         h1    426    ccc     H4  11584 0.10146700   1.008000   ; qtot 255.219745
11585         h2    426    ccc     H5  11585 0.10960400   1.008000   ; qtot 255.329349
11586         os    426    ccc     O1  11586 -0.28650000  16.000000   ; qtot 255.042849
11587         oh    426    ccc     O2  11587 -0.86012500  16.000000   ; qtot 254.182724
11588         oh    426    ccc     O3  11588 -0.83772800  16.000000   ; qtot 253.344996
11589         oh    426    ccc     O4  11589 -0.77449700  16.000000   ; qtot 252.570499
11590         c3    426    ccc     C6  11590 0.37576500  12.010000   ; qtot 252.946264
11591         ho    426    ccc     H6  11591 0.53656000   1.008000   ; qtot 253.482824
11592         ho    426    ccc     H7  11592 0.49492100   1.008000   ; qtot 253.977745
11593         ho    426    ccc     H8  11593 0.51297200   1.008000   ; qtot 254.490717
11594         h1    426    ccc     H9  11594 0.05653400   1.008000   ; qtot 254.547251
11595         h1    426    ccc    H10  11595 0.05653400   1.008000   ; qtot 254.603785
11596         oh    426    ccc     O5  11596 -0.84113600  16.000000   ; qtot 253.762649
11597         ho    426    ccc    H11  11597 0.51201600   1.008000   ; qtot 254.274665
11598         os    426    ccc     O6  11598 -0.26013600  16.000000   ; qtot 254.014529
; residue  427 ccc rtp ccc q 0.0
11599         c3    427    ccc     C1  11599 -0.33178800  12.010000   ; qtot 253.682741
11600         c3    427    ccc     C2  11600 0.30606500  12.010000   ; qtot 253.988806
11601         h1    427    ccc     H1  11601 0.11662300   1.008000   ; qtot 254.105429
11602         h1    427    ccc     H2  11602 0.11526800   1.008000   ; qtot 254.220697
11603         c3    427    ccc     C3  11603 0.15592700  12.010000   ; qtot 254.376624
11604         c3    427    ccc     C4  11604 0.28383300  12.010000   ; qtot 254.660457
11605         c3    427    ccc     C5  11605 0.32403300  12.010000   ; qtot 254.984490
11606         h1    427    ccc     H3  11606 0.13386900   1.008000   ; qtot 255.118359
11607         h1    427    ccc     H4  11607 0.10146700   1.008000   ; qtot 255.219826
11608         h2    427    ccc     H5  11608 0.10960400   1.008000   ; qtot 255.329430
11609         os    427    ccc     O1  11609 -0.28650000  16.000000   ; qtot 255.042930
11610         oh    427    ccc     O2  11610 -0.86012500  16.000000   ; qtot 254.182805
11611         oh    427    ccc     O3  11611 -0.83772800  16.000000   ; qtot 253.345077
11612         oh    427    ccc     O4  11612 -0.77449700  16.000000   ; qtot 252.570580
11613         c3    427    ccc     C6  11613 0.37576500  12.010000   ; qtot 252.946345
11614         ho    427    ccc     H6  11614 0.53656000   1.008000   ; qtot 253.482905
11615         ho    427    ccc     H7  11615 0.49492100   1.008000   ; qtot 253.977826
11616         ho    427    ccc     H8  11616 0.51297200   1.008000   ; qtot 254.490798
11617         h1    427    ccc     H9  11617 0.05653400   1.008000   ; qtot 254.547332
11618         h1    427    ccc    H10  11618 0.05653400   1.008000   ; qtot 254.603866
11619         oh    427    ccc     O5  11619 -0.84113600  16.000000   ; qtot 253.762730
11620         ho    427    ccc    H11  11620 0.51201600   1.008000   ; qtot 254.274746
11621         os    427    ccc     O6  11621 -0.26013600  16.000000   ; qtot 254.014610
; residue  428 ccc rtp ccc q 0.0
11622         c3    428    ccc     C1  11622 -0.33178800  12.010000   ; qtot 253.682822
11623         c3    428    ccc     C2  11623 0.30606500  12.010000   ; qtot 253.988887
11624         h1    428    ccc     H1  11624 0.11662300   1.008000   ; qtot 254.105510
11625         h1    428    ccc     H2  11625 0.11526800   1.008000   ; qtot 254.220778
11626         c3    428    ccc     C3  11626 0.15592700  12.010000   ; qtot 254.376705
11627         c3    428    ccc     C4  11627 0.28383300  12.010000   ; qtot 254.660538
11628         c3    428    ccc     C5  11628 0.32403300  12.010000   ; qtot 254.984571
11629         h1    428    ccc     H3  11629 0.13386900   1.008000   ; qtot 255.118440
11630         h1    428    ccc     H4  11630 0.10146700   1.008000   ; qtot 255.219907
11631         h2    428    ccc     H5  11631 0.10960400   1.008000   ; qtot 255.329511
11632         os    428    ccc     O1  11632 -0.28650000  16.000000   ; qtot 255.043011
11633         oh    428    ccc     O2  11633 -0.86012500  16.000000   ; qtot 254.182886
11634         oh    428    ccc     O3  11634 -0.83772800  16.000000   ; qtot 253.345158
11635         oh    428    ccc     O4  11635 -0.77449700  16.000000   ; qtot 252.570661
11636         c3    428    ccc     C6  11636 0.37576500  12.010000   ; qtot 252.946426
11637         ho    428    ccc     H6  11637 0.53656000   1.008000   ; qtot 253.482986
11638         ho    428    ccc     H7  11638 0.49492100   1.008000   ; qtot 253.977907
11639         ho    428    ccc     H8  11639 0.51297200   1.008000   ; qtot 254.490879
11640         h1    428    ccc     H9  11640 0.05653400   1.008000   ; qtot 254.547413
11641         h1    428    ccc    H10  11641 0.05653400   1.008000   ; qtot 254.603947
11642         oh    428    ccc     O5  11642 -0.84113600  16.000000   ; qtot 253.762811
11643         ho    428    ccc    H11  11643 0.51201600   1.008000   ; qtot 254.274827
11644         os    428    ccc     O6  11644 -0.26013600  16.000000   ; qtot 254.014691
; residue  429 ccc rtp ccc q 0.0
11645         c3    429    ccc     C1  11645 -0.33178800  12.010000   ; qtot 253.682903
11646         c3    429    ccc     C2  11646 0.30606500  12.010000   ; qtot 253.988968
11647         h1    429    ccc     H1  11647 0.11662300   1.008000   ; qtot 254.105591
11648         h1    429    ccc     H2  11648 0.11526800   1.008000   ; qtot 254.220859
11649         c3    429    ccc     C3  11649 0.15592700  12.010000   ; qtot 254.376786
11650         c3    429    ccc     C4  11650 0.28383300  12.010000   ; qtot 254.660619
11651         c3    429    ccc     C5  11651 0.32403300  12.010000   ; qtot 254.984652
11652         h1    429    ccc     H3  11652 0.13386900   1.008000   ; qtot 255.118521
11653         h1    429    ccc     H4  11653 0.10146700   1.008000   ; qtot 255.219988
11654         h2    429    ccc     H5  11654 0.10960400   1.008000   ; qtot 255.329592
11655         os    429    ccc     O1  11655 -0.28650000  16.000000   ; qtot 255.043092
11656         oh    429    ccc     O2  11656 -0.86012500  16.000000   ; qtot 254.182967
11657         oh    429    ccc     O3  11657 -0.83772800  16.000000   ; qtot 253.345239
11658         oh    429    ccc     O4  11658 -0.77449700  16.000000   ; qtot 252.570742
11659         c3    429    ccc     C6  11659 0.37576500  12.010000   ; qtot 252.946507
11660         ho    429    ccc     H6  11660 0.53656000   1.008000   ; qtot 253.483067
11661         ho    429    ccc     H7  11661 0.49492100   1.008000   ; qtot 253.977988
11662         ho    429    ccc     H8  11662 0.51297200   1.008000   ; qtot 254.490960
11663         h1    429    ccc     H9  11663 0.05653400   1.008000   ; qtot 254.547494
11664         h1    429    ccc    H10  11664 0.05653400   1.008000   ; qtot 254.604028
11665         oh    429    ccc     O5  11665 -0.84113600  16.000000   ; qtot 253.762892
11666         ho    429    ccc    H11  11666 0.51201600   1.008000   ; qtot 254.274908
11667         os    429    ccc     O6  11667 -0.26013600  16.000000   ; qtot 254.014772
; residue  430 ccc rtp ccc q 0.0
11668         c3    430    ccc     C1  11668 -0.33178800  12.010000   ; qtot 253.682984
11669         c3    430    ccc     C2  11669 0.30606500  12.010000   ; qtot 253.989049
11670         h1    430    ccc     H1  11670 0.11662300   1.008000   ; qtot 254.105672
11671         h1    430    ccc     H2  11671 0.11526800   1.008000   ; qtot 254.220940
11672         c3    430    ccc     C3  11672 0.15592700  12.010000   ; qtot 254.376867
11673         c3    430    ccc     C4  11673 0.28383300  12.010000   ; qtot 254.660700
11674         c3    430    ccc     C5  11674 0.32403300  12.010000   ; qtot 254.984733
11675         h1    430    ccc     H3  11675 0.13386900   1.008000   ; qtot 255.118602
11676         h1    430    ccc     H4  11676 0.10146700   1.008000   ; qtot 255.220069
11677         h2    430    ccc     H5  11677 0.10960400   1.008000   ; qtot 255.329673
11678         os    430    ccc     O1  11678 -0.28650000  16.000000   ; qtot 255.043173
11679         oh    430    ccc     O2  11679 -0.86012500  16.000000   ; qtot 254.183048
11680         oh    430    ccc     O3  11680 -0.83772800  16.000000   ; qtot 253.345320
11681         oh    430    ccc     O4  11681 -0.77449700  16.000000   ; qtot 252.570823
11682         c3    430    ccc     C6  11682 0.37576500  12.010000   ; qtot 252.946588
11683         ho    430    ccc     H6  11683 0.53656000   1.008000   ; qtot 253.483148
11684         ho    430    ccc     H7  11684 0.49492100   1.008000   ; qtot 253.978069
11685         ho    430    ccc     H8  11685 0.51297200   1.008000   ; qtot 254.491041
11686         h1    430    ccc     H9  11686 0.05653400   1.008000   ; qtot 254.547575
11687         h1    430    ccc    H10  11687 0.05653400   1.008000   ; qtot 254.604109
11688         oh    430    ccc     O5  11688 -0.84113600  16.000000   ; qtot 253.762973
11689         ho    430    ccc    H11  11689 0.51201600   1.008000   ; qtot 254.274989
11690         os    430    ccc     O6  11690 -0.26013600  16.000000   ; qtot 254.014853
; residue  431 ccc rtp ccc q 0.0
11691         c3    431    ccc     C1  11691 -0.33178800  12.010000   ; qtot 253.683065
11692         c3    431    ccc     C2  11692 0.30606500  12.010000   ; qtot 253.989130
11693         h1    431    ccc     H1  11693 0.11662300   1.008000   ; qtot 254.105753
11694         h1    431    ccc     H2  11694 0.11526800   1.008000   ; qtot 254.221021
11695         c3    431    ccc     C3  11695 0.15592700  12.010000   ; qtot 254.376948
11696         c3    431    ccc     C4  11696 0.28383300  12.010000   ; qtot 254.660781
11697         c3    431    ccc     C5  11697 0.32403300  12.010000   ; qtot 254.984814
11698         h1    431    ccc     H3  11698 0.13386900   1.008000   ; qtot 255.118683
11699         h1    431    ccc     H4  11699 0.10146700   1.008000   ; qtot 255.220150
11700         h2    431    ccc     H5  11700 0.10960400   1.008000   ; qtot 255.329754
11701         os    431    ccc     O1  11701 -0.28650000  16.000000   ; qtot 255.043254
11702         oh    431    ccc     O2  11702 -0.86012500  16.000000   ; qtot 254.183129
11703         oh    431    ccc     O3  11703 -0.83772800  16.000000   ; qtot 253.345401
11704         oh    431    ccc     O4  11704 -0.77449700  16.000000   ; qtot 252.570904
11705         c3    431    ccc     C6  11705 0.37576500  12.010000   ; qtot 252.946669
11706         ho    431    ccc     H6  11706 0.53656000   1.008000   ; qtot 253.483229
11707         ho    431    ccc     H7  11707 0.49492100   1.008000   ; qtot 253.978150
11708         ho    431    ccc     H8  11708 0.51297200   1.008000   ; qtot 254.491122
11709         h1    431    ccc     H9  11709 0.05653400   1.008000   ; qtot 254.547656
11710         h1    431    ccc    H10  11710 0.05653400   1.008000   ; qtot 254.604190
11711         oh    431    ccc     O5  11711 -0.84113600  16.000000   ; qtot 253.763054
11712         ho    431    ccc    H11  11712 0.51201600   1.008000   ; qtot 254.275070
11713         os    431    ccc     O6  11713 -0.26013600  16.000000   ; qtot 254.014934
; residue  432 ccc rtp ccc q 0.0
11714         c3    432    ccc     C1  11714 -0.33178800  12.010000   ; qtot 253.683146
11715         c3    432    ccc     C2  11715 0.30606500  12.010000   ; qtot 253.989211
11716         h1    432    ccc     H1  11716 0.11662300   1.008000   ; qtot 254.105834
11717         h1    432    ccc     H2  11717 0.11526800   1.008000   ; qtot 254.221102
11718         c3    432    ccc     C3  11718 0.15592700  12.010000   ; qtot 254.377029
11719         c3    432    ccc     C4  11719 0.28383300  12.010000   ; qtot 254.660862
11720         c3    432    ccc     C5  11720 0.32403300  12.010000   ; qtot 254.984895
11721         h1    432    ccc     H3  11721 0.13386900   1.008000   ; qtot 255.118764
11722         h1    432    ccc     H4  11722 0.10146700   1.008000   ; qtot 255.220231
11723         h2    432    ccc     H5  11723 0.10960400   1.008000   ; qtot 255.329835
11724         os    432    ccc     O1  11724 -0.28650000  16.000000   ; qtot 255.043335
11725         oh    432    ccc     O2  11725 -0.86012500  16.000000   ; qtot 254.183210
11726         oh    432    ccc     O3  11726 -0.83772800  16.000000   ; qtot 253.345482
11727         oh    432    ccc     O4  11727 -0.77449700  16.000000   ; qtot 252.570985
11728         c3    432    ccc     C6  11728 0.37576500  12.010000   ; qtot 252.946750
11729         ho    432    ccc     H6  11729 0.53656000   1.008000   ; qtot 253.483310
11730         ho    432    ccc     H7  11730 0.49492100   1.008000   ; qtot 253.978231
11731         ho    432    ccc     H8  11731 0.51297200   1.008000   ; qtot 254.491203
11732         h1    432    ccc     H9  11732 0.05653400   1.008000   ; qtot 254.547737
11733         h1    432    ccc    H10  11733 0.05653400   1.008000   ; qtot 254.604271
11734         oh    432    ccc     O5  11734 -0.84113600  16.000000   ; qtot 253.763135
11735         ho    432    ccc    H11  11735 0.51201600   1.008000   ; qtot 254.275151
11736         os    432    ccc     O6  11736 -0.26013600  16.000000   ; qtot 254.015015
; residue  433 ccc rtp ccc q 0.0
11737         c3    433    ccc     C1  11737 -0.33178800  12.010000   ; qtot 253.683227
11738         c3    433    ccc     C2  11738 0.30606500  12.010000   ; qtot 253.989292
11739         h1    433    ccc     H1  11739 0.11662300   1.008000   ; qtot 254.105915
11740         h1    433    ccc     H2  11740 0.11526800   1.008000   ; qtot 254.221183
11741         c3    433    ccc     C3  11741 0.15592700  12.010000   ; qtot 254.377110
11742         c3    433    ccc     C4  11742 0.28383300  12.010000   ; qtot 254.660943
11743         c3    433    ccc     C5  11743 0.32403300  12.010000   ; qtot 254.984976
11744         h1    433    ccc     H3  11744 0.13386900   1.008000   ; qtot 255.118845
11745         h1    433    ccc     H4  11745 0.10146700   1.008000   ; qtot 255.220312
11746         h2    433    ccc     H5  11746 0.10960400   1.008000   ; qtot 255.329916
11747         os    433    ccc     O1  11747 -0.28650000  16.000000   ; qtot 255.043416
11748         oh    433    ccc     O2  11748 -0.86012500  16.000000   ; qtot 254.183291
11749         oh    433    ccc     O3  11749 -0.83772800  16.000000   ; qtot 253.345563
11750         oh    433    ccc     O4  11750 -0.77449700  16.000000   ; qtot 252.571066
11751         c3    433    ccc     C6  11751 0.37576500  12.010000   ; qtot 252.946831
11752         ho    433    ccc     H6  11752 0.53656000   1.008000   ; qtot 253.483391
11753         ho    433    ccc     H7  11753 0.49492100   1.008000   ; qtot 253.978312
11754         ho    433    ccc     H8  11754 0.51297200   1.008000   ; qtot 254.491284
11755         h1    433    ccc     H9  11755 0.05653400   1.008000   ; qtot 254.547818
11756         h1    433    ccc    H10  11756 0.05653400   1.008000   ; qtot 254.604352
11757         oh    433    ccc     O5  11757 -0.84113600  16.000000   ; qtot 253.763216
11758         ho    433    ccc    H11  11758 0.51201600   1.008000   ; qtot 254.275232
11759         os    433    ccc     O6  11759 -0.26013600  16.000000   ; qtot 254.015096
; residue  434 ccc rtp ccc q 0.0
11760         c3    434    ccc     C1  11760 -0.33178800  12.010000   ; qtot 253.683308
11761         c3    434    ccc     C2  11761 0.30606500  12.010000   ; qtot 253.989373
11762         h1    434    ccc     H1  11762 0.11662300   1.008000   ; qtot 254.105996
11763         h1    434    ccc     H2  11763 0.11526800   1.008000   ; qtot 254.221264
11764         c3    434    ccc     C3  11764 0.15592700  12.010000   ; qtot 254.377191
11765         c3    434    ccc     C4  11765 0.28383300  12.010000   ; qtot 254.661024
11766         c3    434    ccc     C5  11766 0.32403300  12.010000   ; qtot 254.985057
11767         h1    434    ccc     H3  11767 0.13386900   1.008000   ; qtot 255.118926
11768         h1    434    ccc     H4  11768 0.10146700   1.008000   ; qtot 255.220393
11769         h2    434    ccc     H5  11769 0.10960400   1.008000   ; qtot 255.329997
11770         os    434    ccc     O1  11770 -0.28650000  16.000000   ; qtot 255.043497
11771         oh    434    ccc     O2  11771 -0.86012500  16.000000   ; qtot 254.183372
11772         oh    434    ccc     O3  11772 -0.83772800  16.000000   ; qtot 253.345644
11773         oh    434    ccc     O4  11773 -0.77449700  16.000000   ; qtot 252.571147
11774         c3    434    ccc     C6  11774 0.37576500  12.010000   ; qtot 252.946912
11775         ho    434    ccc     H6  11775 0.53656000   1.008000   ; qtot 253.483472
11776         ho    434    ccc     H7  11776 0.49492100   1.008000   ; qtot 253.978393
11777         ho    434    ccc     H8  11777 0.51297200   1.008000   ; qtot 254.491365
11778         h1    434    ccc     H9  11778 0.05653400   1.008000   ; qtot 254.547899
11779         h1    434    ccc    H10  11779 0.05653400   1.008000   ; qtot 254.604433
11780         oh    434    ccc     O5  11780 -0.84113600  16.000000   ; qtot 253.763297
11781         ho    434    ccc    H11  11781 0.51201600   1.008000   ; qtot 254.275313
11782         os    434    ccc     O6  11782 -0.26013600  16.000000   ; qtot 254.015177
; residue  435 ccc rtp ccc q 0.0
11783         c3    435    ccc     C1  11783 -0.33178800  12.010000   ; qtot 253.683389
11784         c3    435    ccc     C2  11784 0.30606500  12.010000   ; qtot 253.989454
11785         h1    435    ccc     H1  11785 0.11662300   1.008000   ; qtot 254.106077
11786         h1    435    ccc     H2  11786 0.11526800   1.008000   ; qtot 254.221345
11787         c3    435    ccc     C3  11787 0.15592700  12.010000   ; qtot 254.377272
11788         c3    435    ccc     C4  11788 0.28383300  12.010000   ; qtot 254.661105
11789         c3    435    ccc     C5  11789 0.32403300  12.010000   ; qtot 254.985138
11790         h1    435    ccc     H3  11790 0.13386900   1.008000   ; qtot 255.119007
11791         h1    435    ccc     H4  11791 0.10146700   1.008000   ; qtot 255.220474
11792         h2    435    ccc     H5  11792 0.10960400   1.008000   ; qtot 255.330078
11793         os    435    ccc     O1  11793 -0.28650000  16.000000   ; qtot 255.043578
11794         oh    435    ccc     O2  11794 -0.86012500  16.000000   ; qtot 254.183453
11795         oh    435    ccc     O3  11795 -0.83772800  16.000000   ; qtot 253.345725
11796         oh    435    ccc     O4  11796 -0.77449700  16.000000   ; qtot 252.571228
11797         c3    435    ccc     C6  11797 0.37576500  12.010000   ; qtot 252.946993
11798         ho    435    ccc     H6  11798 0.53656000   1.008000   ; qtot 253.483553
11799         ho    435    ccc     H7  11799 0.49492100   1.008000   ; qtot 253.978474
11800         ho    435    ccc     H8  11800 0.51297200   1.008000   ; qtot 254.491446
11801         h1    435    ccc     H9  11801 0.05653400   1.008000   ; qtot 254.547980
11802         h1    435    ccc    H10  11802 0.05653400   1.008000   ; qtot 254.604514
11803         oh    435    ccc     O5  11803 -0.84113600  16.000000   ; qtot 253.763378
11804         ho    435    ccc    H11  11804 0.51201600   1.008000   ; qtot 254.275394
11805         os    435    ccc     O6  11805 -0.26013600  16.000000   ; qtot 254.015258
; residue  436 ccc rtp ccc q 0.0
11806         c3    436    ccc     C1  11806 -0.33178800  12.010000   ; qtot 253.683470
11807         c3    436    ccc     C2  11807 0.30606500  12.010000   ; qtot 253.989535
11808         h1    436    ccc     H1  11808 0.11662300   1.008000   ; qtot 254.106158
11809         h1    436    ccc     H2  11809 0.11526800   1.008000   ; qtot 254.221426
11810         c3    436    ccc     C3  11810 0.15592700  12.010000   ; qtot 254.377353
11811         c3    436    ccc     C4  11811 0.28383300  12.010000   ; qtot 254.661186
11812         c3    436    ccc     C5  11812 0.32403300  12.010000   ; qtot 254.985219
11813         h1    436    ccc     H3  11813 0.13386900   1.008000   ; qtot 255.119088
11814         h1    436    ccc     H4  11814 0.10146700   1.008000   ; qtot 255.220555
11815         h2    436    ccc     H5  11815 0.10960400   1.008000   ; qtot 255.330159
11816         os    436    ccc     O1  11816 -0.28650000  16.000000   ; qtot 255.043659
11817         oh    436    ccc     O2  11817 -0.86012500  16.000000   ; qtot 254.183534
11818         oh    436    ccc     O3  11818 -0.83772800  16.000000   ; qtot 253.345806
11819         oh    436    ccc     O4  11819 -0.77449700  16.000000   ; qtot 252.571309
11820         c3    436    ccc     C6  11820 0.37576500  12.010000   ; qtot 252.947074
11821         ho    436    ccc     H6  11821 0.53656000   1.008000   ; qtot 253.483634
11822         ho    436    ccc     H7  11822 0.49492100   1.008000   ; qtot 253.978555
11823         ho    436    ccc     H8  11823 0.51297200   1.008000   ; qtot 254.491527
11824         h1    436    ccc     H9  11824 0.05653400   1.008000   ; qtot 254.548061
11825         h1    436    ccc    H10  11825 0.05653400   1.008000   ; qtot 254.604595
11826         oh    436    ccc     O5  11826 -0.84113600  16.000000   ; qtot 253.763459
11827         ho    436    ccc    H11  11827 0.51201600   1.008000   ; qtot 254.275475
11828         os    436    ccc     O6  11828 -0.26013600  16.000000   ; qtot 254.015339
; residue  437 ccc rtp ccc q 0.0
11829         c3    437    ccc     C1  11829 -0.33178800  12.010000   ; qtot 253.683551
11830         c3    437    ccc     C2  11830 0.30606500  12.010000   ; qtot 253.989616
11831         h1    437    ccc     H1  11831 0.11662300   1.008000   ; qtot 254.106239
11832         h1    437    ccc     H2  11832 0.11526800   1.008000   ; qtot 254.221507
11833         c3    437    ccc     C3  11833 0.15592700  12.010000   ; qtot 254.377434
11834         c3    437    ccc     C4  11834 0.28383300  12.010000   ; qtot 254.661267
11835         c3    437    ccc     C5  11835 0.32403300  12.010000   ; qtot 254.985300
11836         h1    437    ccc     H3  11836 0.13386900   1.008000   ; qtot 255.119169
11837         h1    437    ccc     H4  11837 0.10146700   1.008000   ; qtot 255.220636
11838         h2    437    ccc     H5  11838 0.10960400   1.008000   ; qtot 255.330240
11839         os    437    ccc     O1  11839 -0.28650000  16.000000   ; qtot 255.043740
11840         oh    437    ccc     O2  11840 -0.86012500  16.000000   ; qtot 254.183615
11841         oh    437    ccc     O3  11841 -0.83772800  16.000000   ; qtot 253.345887
11842         oh    437    ccc     O4  11842 -0.77449700  16.000000   ; qtot 252.571390
11843         c3    437    ccc     C6  11843 0.37576500  12.010000   ; qtot 252.947155
11844         ho    437    ccc     H6  11844 0.53656000   1.008000   ; qtot 253.483715
11845         ho    437    ccc     H7  11845 0.49492100   1.008000   ; qtot 253.978636
11846         ho    437    ccc     H8  11846 0.51297200   1.008000   ; qtot 254.491608
11847         h1    437    ccc     H9  11847 0.05653400   1.008000   ; qtot 254.548142
11848         h1    437    ccc    H10  11848 0.05653400   1.008000   ; qtot 254.604676
11849         oh    437    ccc     O5  11849 -0.84113600  16.000000   ; qtot 253.763540
11850         ho    437    ccc    H11  11850 0.51201600   1.008000   ; qtot 254.275556
11851         os    437    ccc     O6  11851 -0.26013600  16.000000   ; qtot 254.015420
; residue  438 ccc rtp ccc q 0.0
11852         c3    438    ccc     C1  11852 -0.33178800  12.010000   ; qtot 253.683632
11853         c3    438    ccc     C2  11853 0.30606500  12.010000   ; qtot 253.989697
11854         h1    438    ccc     H1  11854 0.11662300   1.008000   ; qtot 254.106320
11855         h1    438    ccc     H2  11855 0.11526800   1.008000   ; qtot 254.221588
11856         c3    438    ccc     C3  11856 0.15592700  12.010000   ; qtot 254.377515
11857         c3    438    ccc     C4  11857 0.28383300  12.010000   ; qtot 254.661348
11858         c3    438    ccc     C5  11858 0.32403300  12.010000   ; qtot 254.985381
11859         h1    438    ccc     H3  11859 0.13386900   1.008000   ; qtot 255.119250
11860         h1    438    ccc     H4  11860 0.10146700   1.008000   ; qtot 255.220717
11861         h2    438    ccc     H5  11861 0.10960400   1.008000   ; qtot 255.330321
11862         os    438    ccc     O1  11862 -0.28650000  16.000000   ; qtot 255.043821
11863         oh    438    ccc     O2  11863 -0.86012500  16.000000   ; qtot 254.183696
11864         oh    438    ccc     O3  11864 -0.83772800  16.000000   ; qtot 253.345968
11865         oh    438    ccc     O4  11865 -0.77449700  16.000000   ; qtot 252.571471
11866         c3    438    ccc     C6  11866 0.37576500  12.010000   ; qtot 252.947236
11867         ho    438    ccc     H6  11867 0.53656000   1.008000   ; qtot 253.483796
11868         ho    438    ccc     H7  11868 0.49492100   1.008000   ; qtot 253.978717
11869         ho    438    ccc     H8  11869 0.51297200   1.008000   ; qtot 254.491689
11870         h1    438    ccc     H9  11870 0.05653400   1.008000   ; qtot 254.548223
11871         h1    438    ccc    H10  11871 0.05653400   1.008000   ; qtot 254.604757
11872         oh    438    ccc     O5  11872 -0.84113600  16.000000   ; qtot 253.763621
11873         ho    438    ccc    H11  11873 0.51201600   1.008000   ; qtot 254.275637
11874         os    438    ccc     O6  11874 -0.26013600  16.000000   ; qtot 254.015501
; residue  439 ccc rtp ccc q 0.0
11875         c3    439    ccc     C1  11875 -0.33178800  12.010000   ; qtot 253.683713
11876         c3    439    ccc     C2  11876 0.30606500  12.010000   ; qtot 253.989778
11877         h1    439    ccc     H1  11877 0.11662300   1.008000   ; qtot 254.106401
11878         h1    439    ccc     H2  11878 0.11526800   1.008000   ; qtot 254.221669
11879         c3    439    ccc     C3  11879 0.15592700  12.010000   ; qtot 254.377596
11880         c3    439    ccc     C4  11880 0.28383300  12.010000   ; qtot 254.661429
11881         c3    439    ccc     C5  11881 0.32403300  12.010000   ; qtot 254.985462
11882         h1    439    ccc     H3  11882 0.13386900   1.008000   ; qtot 255.119331
11883         h1    439    ccc     H4  11883 0.10146700   1.008000   ; qtot 255.220798
11884         h2    439    ccc     H5  11884 0.10960400   1.008000   ; qtot 255.330402
11885         os    439    ccc     O1  11885 -0.28650000  16.000000   ; qtot 255.043902
11886         oh    439    ccc     O2  11886 -0.86012500  16.000000   ; qtot 254.183777
11887         oh    439    ccc     O3  11887 -0.83772800  16.000000   ; qtot 253.346049
11888         oh    439    ccc     O4  11888 -0.77449700  16.000000   ; qtot 252.571552
11889         c3    439    ccc     C6  11889 0.37576500  12.010000   ; qtot 252.947317
11890         ho    439    ccc     H6  11890 0.53656000   1.008000   ; qtot 253.483877
11891         ho    439    ccc     H7  11891 0.49492100   1.008000   ; qtot 253.978798
11892         ho    439    ccc     H8  11892 0.51297200   1.008000   ; qtot 254.491770
11893         h1    439    ccc     H9  11893 0.05653400   1.008000   ; qtot 254.548304
11894         h1    439    ccc    H10  11894 0.05653400   1.008000   ; qtot 254.604838
11895         oh    439    ccc     O5  11895 -0.84113600  16.000000   ; qtot 253.763702
11896         ho    439    ccc    H11  11896 0.51201600   1.008000   ; qtot 254.275718
11897         os    439    ccc     O6  11897 -0.26013600  16.000000   ; qtot 254.015582
; residue  440 ccc rtp ccc q 0.0
11898         c3    440    ccc     C1  11898 -0.33178800  12.010000   ; qtot 253.683794
11899         c3    440    ccc     C2  11899 0.30606500  12.010000   ; qtot 253.989859
11900         h1    440    ccc     H1  11900 0.11662300   1.008000   ; qtot 254.106482
11901         h1    440    ccc     H2  11901 0.11526800   1.008000   ; qtot 254.221750
11902         c3    440    ccc     C3  11902 0.15592700  12.010000   ; qtot 254.377677
11903         c3    440    ccc     C4  11903 0.28383300  12.010000   ; qtot 254.661510
11904         c3    440    ccc     C5  11904 0.32403300  12.010000   ; qtot 254.985543
11905         h1    440    ccc     H3  11905 0.13386900   1.008000   ; qtot 255.119412
11906         h1    440    ccc     H4  11906 0.10146700   1.008000   ; qtot 255.220879
11907         h2    440    ccc     H5  11907 0.10960400   1.008000   ; qtot 255.330483
11908         os    440    ccc     O1  11908 -0.28650000  16.000000   ; qtot 255.043983
11909         oh    440    ccc     O2  11909 -0.86012500  16.000000   ; qtot 254.183858
11910         oh    440    ccc     O3  11910 -0.83772800  16.000000   ; qtot 253.346130
11911         oh    440    ccc     O4  11911 -0.77449700  16.000000   ; qtot 252.571633
11912         c3    440    ccc     C6  11912 0.37576500  12.010000   ; qtot 252.947398
11913         ho    440    ccc     H6  11913 0.53656000   1.008000   ; qtot 253.483958
11914         ho    440    ccc     H7  11914 0.49492100   1.008000   ; qtot 253.978879
11915         ho    440    ccc     H8  11915 0.51297200   1.008000   ; qtot 254.491851
11916         h1    440    ccc     H9  11916 0.05653400   1.008000   ; qtot 254.548385
11917         h1    440    ccc    H10  11917 0.05653400   1.008000   ; qtot 254.604919
11918         oh    440    ccc     O5  11918 -0.84113600  16.000000   ; qtot 253.763783
11919         ho    440    ccc    H11  11919 0.51201600   1.008000   ; qtot 254.275799
11920         os    440    ccc     O6  11920 -0.26013600  16.000000   ; qtot 254.015663
; residue  441 ccc rtp ccc q 0.0
11921         c3    441    ccc     C1  11921 -0.33178800  12.010000   ; qtot 253.683875
11922         c3    441    ccc     C2  11922 0.30606500  12.010000   ; qtot 253.989940
11923         h1    441    ccc     H1  11923 0.11662300   1.008000   ; qtot 254.106563
11924         h1    441    ccc     H2  11924 0.11526800   1.008000   ; qtot 254.221831
11925         c3    441    ccc     C3  11925 0.15592700  12.010000   ; qtot 254.377758
11926         c3    441    ccc     C4  11926 0.28383300  12.010000   ; qtot 254.661591
11927         c3    441    ccc     C5  11927 0.32403300  12.010000   ; qtot 254.985624
11928         h1    441    ccc     H3  11928 0.13386900   1.008000   ; qtot 255.119493
11929         h1    441    ccc     H4  11929 0.10146700   1.008000   ; qtot 255.220960
11930         h2    441    ccc     H5  11930 0.10960400   1.008000   ; qtot 255.330564
11931         os    441    ccc     O1  11931 -0.28650000  16.000000   ; qtot 255.044064
11932         oh    441    ccc     O2  11932 -0.86012500  16.000000   ; qtot 254.183939
11933         oh    441    ccc     O3  11933 -0.83772800  16.000000   ; qtot 253.346211
11934         oh    441    ccc     O4  11934 -0.77449700  16.000000   ; qtot 252.571714
11935         c3    441    ccc     C6  11935 0.37576500  12.010000   ; qtot 252.947479
11936         ho    441    ccc     H6  11936 0.53656000   1.008000   ; qtot 253.484039
11937         ho    441    ccc     H7  11937 0.49492100   1.008000   ; qtot 253.978960
11938         ho    441    ccc     H8  11938 0.51297200   1.008000   ; qtot 254.491932
11939         h1    441    ccc     H9  11939 0.05653400   1.008000   ; qtot 254.548466
11940         h1    441    ccc    H10  11940 0.05653400   1.008000   ; qtot 254.605000
11941         oh    441    ccc     O5  11941 -0.84113600  16.000000   ; qtot 253.763864
11942         ho    441    ccc    H11  11942 0.51201600   1.008000   ; qtot 254.275880
11943         os    441    ccc     O6  11943 -0.26013600  16.000000   ; qtot 254.015744
; residue  442 ccc rtp ccc q 0.0
11944         c3    442    ccc     C1  11944 -0.33178800  12.010000   ; qtot 253.683956
11945         c3    442    ccc     C2  11945 0.30606500  12.010000   ; qtot 253.990021
11946         h1    442    ccc     H1  11946 0.11662300   1.008000   ; qtot 254.106644
11947         h1    442    ccc     H2  11947 0.11526800   1.008000   ; qtot 254.221912
11948         c3    442    ccc     C3  11948 0.15592700  12.010000   ; qtot 254.377839
11949         c3    442    ccc     C4  11949 0.28383300  12.010000   ; qtot 254.661672
11950         c3    442    ccc     C5  11950 0.32403300  12.010000   ; qtot 254.985705
11951         h1    442    ccc     H3  11951 0.13386900   1.008000   ; qtot 255.119574
11952         h1    442    ccc     H4  11952 0.10146700   1.008000   ; qtot 255.221041
11953         h2    442    ccc     H5  11953 0.10960400   1.008000   ; qtot 255.330645
11954         os    442    ccc     O1  11954 -0.28650000  16.000000   ; qtot 255.044145
11955         oh    442    ccc     O2  11955 -0.86012500  16.000000   ; qtot 254.184020
11956         oh    442    ccc     O3  11956 -0.83772800  16.000000   ; qtot 253.346292
11957         oh    442    ccc     O4  11957 -0.77449700  16.000000   ; qtot 252.571795
11958         c3    442    ccc     C6  11958 0.37576500  12.010000   ; qtot 252.947560
11959         ho    442    ccc     H6  11959 0.53656000   1.008000   ; qtot 253.484120
11960         ho    442    ccc     H7  11960 0.49492100   1.008000   ; qtot 253.979041
11961         ho    442    ccc     H8  11961 0.51297200   1.008000   ; qtot 254.492013
11962         h1    442    ccc     H9  11962 0.05653400   1.008000   ; qtot 254.548547
11963         h1    442    ccc    H10  11963 0.05653400   1.008000   ; qtot 254.605081
11964         oh    442    ccc     O5  11964 -0.84113600  16.000000   ; qtot 253.763945
11965         ho    442    ccc    H11  11965 0.51201600   1.008000   ; qtot 254.275961
11966         os    442    ccc     O6  11966 -0.26013600  16.000000   ; qtot 254.015825
; residue  443 ccc rtp ccc q 0.0
11967         c3    443    ccc     C1  11967 -0.33178800  12.010000   ; qtot 253.684037
11968         c3    443    ccc     C2  11968 0.30606500  12.010000   ; qtot 253.990102
11969         h1    443    ccc     H1  11969 0.11662300   1.008000   ; qtot 254.106725
11970         h1    443    ccc     H2  11970 0.11526800   1.008000   ; qtot 254.221993
11971         c3    443    ccc     C3  11971 0.15592700  12.010000   ; qtot 254.377920
11972         c3    443    ccc     C4  11972 0.28383300  12.010000   ; qtot 254.661753
11973         c3    443    ccc     C5  11973 0.32403300  12.010000   ; qtot 254.985786
11974         h1    443    ccc     H3  11974 0.13386900   1.008000   ; qtot 255.119655
11975         h1    443    ccc     H4  11975 0.10146700   1.008000   ; qtot 255.221122
11976         h2    443    ccc     H5  11976 0.10960400   1.008000   ; qtot 255.330726
11977         os    443    ccc     O1  11977 -0.28650000  16.000000   ; qtot 255.044226
11978         oh    443    ccc     O2  11978 -0.86012500  16.000000   ; qtot 254.184101
11979         oh    443    ccc     O3  11979 -0.83772800  16.000000   ; qtot 253.346373
11980         oh    443    ccc     O4  11980 -0.77449700  16.000000   ; qtot 252.571876
11981         c3    443    ccc     C6  11981 0.37576500  12.010000   ; qtot 252.947641
11982         ho    443    ccc     H6  11982 0.53656000   1.008000   ; qtot 253.484201
11983         ho    443    ccc     H7  11983 0.49492100   1.008000   ; qtot 253.979122
11984         ho    443    ccc     H8  11984 0.51297200   1.008000   ; qtot 254.492094
11985         h1    443    ccc     H9  11985 0.05653400   1.008000   ; qtot 254.548628
11986         h1    443    ccc    H10  11986 0.05653400   1.008000   ; qtot 254.605162
11987         oh    443    ccc     O5  11987 -0.84113600  16.000000   ; qtot 253.764026
11988         ho    443    ccc    H11  11988 0.51201600   1.008000   ; qtot 254.276042
11989         os    443    ccc     O6  11989 -0.26013600  16.000000   ; qtot 254.015906
; residue  444 ccc rtp ccc q 0.0
11990         c3    444    ccc     C1  11990 -0.33178800  12.010000   ; qtot 253.684118
11991         c3    444    ccc     C2  11991 0.30606500  12.010000   ; qtot 253.990183
11992         h1    444    ccc     H1  11992 0.11662300   1.008000   ; qtot 254.106806
11993         h1    444    ccc     H2  11993 0.11526800   1.008000   ; qtot 254.222074
11994         c3    444    ccc     C3  11994 0.15592700  12.010000   ; qtot 254.378001
11995         c3    444    ccc     C4  11995 0.28383300  12.010000   ; qtot 254.661834
11996         c3    444    ccc     C5  11996 0.32403300  12.010000   ; qtot 254.985867
11997         h1    444    ccc     H3  11997 0.13386900   1.008000   ; qtot 255.119736
11998         h1    444    ccc     H4  11998 0.10146700   1.008000   ; qtot 255.221203
11999         h2    444    ccc     H5  11999 0.10960400   1.008000   ; qtot 255.330807
12000         os    444    ccc     O1  12000 -0.28650000  16.000000   ; qtot 255.044307
12001         oh    444    ccc     O2  12001 -0.86012500  16.000000   ; qtot 254.184182
12002         oh    444    ccc     O3  12002 -0.83772800  16.000000   ; qtot 253.346454
12003         oh    444    ccc     O4  12003 -0.77449700  16.000000   ; qtot 252.571957
12004         c3    444    ccc     C6  12004 0.37576500  12.010000   ; qtot 252.947722
12005         ho    444    ccc     H6  12005 0.53656000   1.008000   ; qtot 253.484282
12006         ho    444    ccc     H7  12006 0.49492100   1.008000   ; qtot 253.979203
12007         ho    444    ccc     H8  12007 0.51297200   1.008000   ; qtot 254.492175
12008         h1    444    ccc     H9  12008 0.05653400   1.008000   ; qtot 254.548709
12009         h1    444    ccc    H10  12009 0.05653400   1.008000   ; qtot 254.605243
12010         oh    444    ccc     O5  12010 -0.84113600  16.000000   ; qtot 253.764107
12011         ho    444    ccc    H11  12011 0.51201600   1.008000   ; qtot 254.276123
12012         os    444    ccc     O6  12012 -0.26013600  16.000000   ; qtot 254.015987
; residue  445 ccc rtp ccc q 0.0
12013         c3    445    ccc     C1  12013 -0.33178800  12.010000   ; qtot 253.684199
12014         c3    445    ccc     C2  12014 0.30606500  12.010000   ; qtot 253.990264
12015         h1    445    ccc     H1  12015 0.11662300   1.008000   ; qtot 254.106887
12016         h1    445    ccc     H2  12016 0.11526800   1.008000   ; qtot 254.222155
12017         c3    445    ccc     C3  12017 0.15592700  12.010000   ; qtot 254.378082
12018         c3    445    ccc     C4  12018 0.28383300  12.010000   ; qtot 254.661915
12019         c3    445    ccc     C5  12019 0.32403300  12.010000   ; qtot 254.985948
12020         h1    445    ccc     H3  12020 0.13386900   1.008000   ; qtot 255.119817
12021         h1    445    ccc     H4  12021 0.10146700   1.008000   ; qtot 255.221284
12022         h2    445    ccc     H5  12022 0.10960400   1.008000   ; qtot 255.330888
12023         os    445    ccc     O1  12023 -0.28650000  16.000000   ; qtot 255.044388
12024         oh    445    ccc     O2  12024 -0.86012500  16.000000   ; qtot 254.184263
12025         oh    445    ccc     O3  12025 -0.83772800  16.000000   ; qtot 253.346535
12026         oh    445    ccc     O4  12026 -0.77449700  16.000000   ; qtot 252.572038
12027         c3    445    ccc     C6  12027 0.37576500  12.010000   ; qtot 252.947803
12028         ho    445    ccc     H6  12028 0.53656000   1.008000   ; qtot 253.484363
12029         ho    445    ccc     H7  12029 0.49492100   1.008000   ; qtot 253.979284
12030         ho    445    ccc     H8  12030 0.51297200   1.008000   ; qtot 254.492256
12031         h1    445    ccc     H9  12031 0.05653400   1.008000   ; qtot 254.548790
12032         h1    445    ccc    H10  12032 0.05653400   1.008000   ; qtot 254.605324
12033         oh    445    ccc     O5  12033 -0.84113600  16.000000   ; qtot 253.764188
12034         ho    445    ccc    H11  12034 0.51201600   1.008000   ; qtot 254.276204
12035         os    445    ccc     O6  12035 -0.26013600  16.000000   ; qtot 254.016068
; residue  446 ccc rtp ccc q 0.0
12036         c3    446    ccc     C1  12036 -0.33178800  12.010000   ; qtot 253.684280
12037         c3    446    ccc     C2  12037 0.30606500  12.010000   ; qtot 253.990345
12038         h1    446    ccc     H1  12038 0.11662300   1.008000   ; qtot 254.106968
12039         h1    446    ccc     H2  12039 0.11526800   1.008000   ; qtot 254.222236
12040         c3    446    ccc     C3  12040 0.15592700  12.010000   ; qtot 254.378163
12041         c3    446    ccc     C4  12041 0.28383300  12.010000   ; qtot 254.661996
12042         c3    446    ccc     C5  12042 0.32403300  12.010000   ; qtot 254.986029
12043         h1    446    ccc     H3  12043 0.13386900   1.008000   ; qtot 255.119898
12044         h1    446    ccc     H4  12044 0.10146700   1.008000   ; qtot 255.221365
12045         h2    446    ccc     H5  12045 0.10960400   1.008000   ; qtot 255.330969
12046         os    446    ccc     O1  12046 -0.28650000  16.000000   ; qtot 255.044469
12047         oh    446    ccc     O2  12047 -0.86012500  16.000000   ; qtot 254.184344
12048         oh    446    ccc     O3  12048 -0.83772800  16.000000   ; qtot 253.346616
12049         oh    446    ccc     O4  12049 -0.77449700  16.000000   ; qtot 252.572119
12050         c3    446    ccc     C6  12050 0.37576500  12.010000   ; qtot 252.947884
12051         ho    446    ccc     H6  12051 0.53656000   1.008000   ; qtot 253.484444
12052         ho    446    ccc     H7  12052 0.49492100   1.008000   ; qtot 253.979365
12053         ho    446    ccc     H8  12053 0.51297200   1.008000   ; qtot 254.492337
12054         h1    446    ccc     H9  12054 0.05653400   1.008000   ; qtot 254.548871
12055         h1    446    ccc    H10  12055 0.05653400   1.008000   ; qtot 254.605405
12056         oh    446    ccc     O5  12056 -0.84113600  16.000000   ; qtot 253.764269
12057         ho    446    ccc    H11  12057 0.51201600   1.008000   ; qtot 254.276285
12058         os    446    ccc     O6  12058 -0.26013600  16.000000   ; qtot 254.016149
; residue  447 ccc rtp ccc q 0.0
12059         c3    447    ccc     C1  12059 -0.33178800  12.010000   ; qtot 253.684361
12060         c3    447    ccc     C2  12060 0.30606500  12.010000   ; qtot 253.990426
12061         h1    447    ccc     H1  12061 0.11662300   1.008000   ; qtot 254.107049
12062         h1    447    ccc     H2  12062 0.11526800   1.008000   ; qtot 254.222317
12063         c3    447    ccc     C3  12063 0.15592700  12.010000   ; qtot 254.378244
12064         c3    447    ccc     C4  12064 0.28383300  12.010000   ; qtot 254.662077
12065         c3    447    ccc     C5  12065 0.32403300  12.010000   ; qtot 254.986110
12066         h1    447    ccc     H3  12066 0.13386900   1.008000   ; qtot 255.119979
12067         h1    447    ccc     H4  12067 0.10146700   1.008000   ; qtot 255.221446
12068         h2    447    ccc     H5  12068 0.10960400   1.008000   ; qtot 255.331050
12069         os    447    ccc     O1  12069 -0.28650000  16.000000   ; qtot 255.044550
12070         oh    447    ccc     O2  12070 -0.86012500  16.000000   ; qtot 254.184425
12071         oh    447    ccc     O3  12071 -0.83772800  16.000000   ; qtot 253.346697
12072         oh    447    ccc     O4  12072 -0.77449700  16.000000   ; qtot 252.572200
12073         c3    447    ccc     C6  12073 0.37576500  12.010000   ; qtot 252.947965
12074         ho    447    ccc     H6  12074 0.53656000   1.008000   ; qtot 253.484525
12075         ho    447    ccc     H7  12075 0.49492100   1.008000   ; qtot 253.979446
12076         ho    447    ccc     H8  12076 0.51297200   1.008000   ; qtot 254.492418
12077         h1    447    ccc     H9  12077 0.05653400   1.008000   ; qtot 254.548952
12078         h1    447    ccc    H10  12078 0.05653400   1.008000   ; qtot 254.605486
12079         oh    447    ccc     O5  12079 -0.84113600  16.000000   ; qtot 253.764350
12080         ho    447    ccc    H11  12080 0.51201600   1.008000   ; qtot 254.276366
12081         os    447    ccc     O6  12081 -0.26013600  16.000000   ; qtot 254.016230
; residue  448 ccc rtp ccc q 0.0
12082         c3    448    ccc     C1  12082 -0.33178800  12.010000   ; qtot 253.684442
12083         c3    448    ccc     C2  12083 0.30606500  12.010000   ; qtot 253.990507
12084         h1    448    ccc     H1  12084 0.11662300   1.008000   ; qtot 254.107130
12085         h1    448    ccc     H2  12085 0.11526800   1.008000   ; qtot 254.222398
12086         c3    448    ccc     C3  12086 0.15592700  12.010000   ; qtot 254.378325
12087         c3    448    ccc     C4  12087 0.28383300  12.010000   ; qtot 254.662158
12088         c3    448    ccc     C5  12088 0.32403300  12.010000   ; qtot 254.986191
12089         h1    448    ccc     H3  12089 0.13386900   1.008000   ; qtot 255.120060
12090         h1    448    ccc     H4  12090 0.10146700   1.008000   ; qtot 255.221527
12091         h2    448    ccc     H5  12091 0.10960400   1.008000   ; qtot 255.331131
12092         os    448    ccc     O1  12092 -0.28650000  16.000000   ; qtot 255.044631
12093         oh    448    ccc     O2  12093 -0.86012500  16.000000   ; qtot 254.184506
12094         oh    448    ccc     O3  12094 -0.83772800  16.000000   ; qtot 253.346778
12095         oh    448    ccc     O4  12095 -0.77449700  16.000000   ; qtot 252.572281
12096         c3    448    ccc     C6  12096 0.37576500  12.010000   ; qtot 252.948046
12097         ho    448    ccc     H6  12097 0.53656000   1.008000   ; qtot 253.484606
12098         ho    448    ccc     H7  12098 0.49492100   1.008000   ; qtot 253.979527
12099         ho    448    ccc     H8  12099 0.51297200   1.008000   ; qtot 254.492499
12100         h1    448    ccc     H9  12100 0.05653400   1.008000   ; qtot 254.549033
12101         h1    448    ccc    H10  12101 0.05653400   1.008000   ; qtot 254.605567
12102         oh    448    ccc     O5  12102 -0.84113600  16.000000   ; qtot 253.764431
12103         ho    448    ccc    H11  12103 0.51201600   1.008000   ; qtot 254.276447
12104         os    448    ccc     O6  12104 -0.26013600  16.000000   ; qtot 254.016311
; residue  449 ccc rtp ccc q 0.0
12105         c3    449    ccc     C1  12105 -0.33178800  12.010000   ; qtot 253.684523
12106         c3    449    ccc     C2  12106 0.30606500  12.010000   ; qtot 253.990588
12107         h1    449    ccc     H1  12107 0.11662300   1.008000   ; qtot 254.107211
12108         h1    449    ccc     H2  12108 0.11526800   1.008000   ; qtot 254.222479
12109         c3    449    ccc     C3  12109 0.15592700  12.010000   ; qtot 254.378406
12110         c3    449    ccc     C4  12110 0.28383300  12.010000   ; qtot 254.662239
12111         c3    449    ccc     C5  12111 0.32403300  12.010000   ; qtot 254.986272
12112         h1    449    ccc     H3  12112 0.13386900   1.008000   ; qtot 255.120141
12113         h1    449    ccc     H4  12113 0.10146700   1.008000   ; qtot 255.221608
12114         h2    449    ccc     H5  12114 0.10960400   1.008000   ; qtot 255.331212
12115         os    449    ccc     O1  12115 -0.28650000  16.000000   ; qtot 255.044712
12116         oh    449    ccc     O2  12116 -0.86012500  16.000000   ; qtot 254.184587
12117         oh    449    ccc     O3  12117 -0.83772800  16.000000   ; qtot 253.346859
12118         oh    449    ccc     O4  12118 -0.77449700  16.000000   ; qtot 252.572362
12119         c3    449    ccc     C6  12119 0.37576500  12.010000   ; qtot 252.948127
12120         ho    449    ccc     H6  12120 0.53656000   1.008000   ; qtot 253.484687
12121         ho    449    ccc     H7  12121 0.49492100   1.008000   ; qtot 253.979608
12122         ho    449    ccc     H8  12122 0.51297200   1.008000   ; qtot 254.492580
12123         h1    449    ccc     H9  12123 0.05653400   1.008000   ; qtot 254.549114
12124         h1    449    ccc    H10  12124 0.05653400   1.008000   ; qtot 254.605648
12125         oh    449    ccc     O5  12125 -0.84113600  16.000000   ; qtot 253.764512
12126         ho    449    ccc    H11  12126 0.51201600   1.008000   ; qtot 254.276528
12127         os    449    ccc     O6  12127 -0.26013600  16.000000   ; qtot 254.016392
; residue  450 ccc rtp ccc q 0.0
12128         c3    450    ccc     C1  12128 -0.33178800  12.010000   ; qtot 253.684604
12129         c3    450    ccc     C2  12129 0.30606500  12.010000   ; qtot 253.990669
12130         h1    450    ccc     H1  12130 0.11662300   1.008000   ; qtot 254.107292
12131         h1    450    ccc     H2  12131 0.11526800   1.008000   ; qtot 254.222560
12132         c3    450    ccc     C3  12132 0.15592700  12.010000   ; qtot 254.378487
12133         c3    450    ccc     C4  12133 0.28383300  12.010000   ; qtot 254.662320
12134         c3    450    ccc     C5  12134 0.32403300  12.010000   ; qtot 254.986353
12135         h1    450    ccc     H3  12135 0.13386900   1.008000   ; qtot 255.120222
12136         h1    450    ccc     H4  12136 0.10146700   1.008000   ; qtot 255.221689
12137         h2    450    ccc     H5  12137 0.10960400   1.008000   ; qtot 255.331293
12138         os    450    ccc     O1  12138 -0.28650000  16.000000   ; qtot 255.044793
12139         oh    450    ccc     O2  12139 -0.86012500  16.000000   ; qtot 254.184668
12140         oh    450    ccc     O3  12140 -0.83772800  16.000000   ; qtot 253.346940
12141         oh    450    ccc     O4  12141 -0.77449700  16.000000   ; qtot 252.572443
12142         c3    450    ccc     C6  12142 0.37576500  12.010000   ; qtot 252.948208
12143         ho    450    ccc     H6  12143 0.53656000   1.008000   ; qtot 253.484768
12144         ho    450    ccc     H7  12144 0.49492100   1.008000   ; qtot 253.979689
12145         ho    450    ccc     H8  12145 0.51297200   1.008000   ; qtot 254.492661
12146         h1    450    ccc     H9  12146 0.05653400   1.008000   ; qtot 254.549195
12147         h1    450    ccc    H10  12147 0.05653400   1.008000   ; qtot 254.605729
12148         oh    450    ccc     O5  12148 -0.84113600  16.000000   ; qtot 253.764593
12149         ho    450    ccc    H11  12149 0.51201600   1.008000   ; qtot 254.276609
12150         os    450    ccc     O6  12150 -0.26013600  16.000000   ; qtot 254.016473
; residue  451 ccc rtp ccc q 0.0
12151         c3    451    ccc     C1  12151 -0.33178800  12.010000   ; qtot 253.684685
12152         c3    451    ccc     C2  12152 0.30606500  12.010000   ; qtot 253.990750
12153         h1    451    ccc     H1  12153 0.11662300   1.008000   ; qtot 254.107373
12154         h1    451    ccc     H2  12154 0.11526800   1.008000   ; qtot 254.222641
12155         c3    451    ccc     C3  12155 0.15592700  12.010000   ; qtot 254.378568
12156         c3    451    ccc     C4  12156 0.28383300  12.010000   ; qtot 254.662401
12157         c3    451    ccc     C5  12157 0.32403300  12.010000   ; qtot 254.986434
12158         h1    451    ccc     H3  12158 0.13386900   1.008000   ; qtot 255.120303
12159         h1    451    ccc     H4  12159 0.10146700   1.008000   ; qtot 255.221770
12160         h2    451    ccc     H5  12160 0.10960400   1.008000   ; qtot 255.331374
12161         os    451    ccc     O1  12161 -0.28650000  16.000000   ; qtot 255.044874
12162         oh    451    ccc     O2  12162 -0.86012500  16.000000   ; qtot 254.184749
12163         oh    451    ccc     O3  12163 -0.83772800  16.000000   ; qtot 253.347021
12164         oh    451    ccc     O4  12164 -0.77449700  16.000000   ; qtot 252.572524
12165         c3    451    ccc     C6  12165 0.37576500  12.010000   ; qtot 252.948289
12166         ho    451    ccc     H6  12166 0.53656000   1.008000   ; qtot 253.484849
12167         ho    451    ccc     H7  12167 0.49492100   1.008000   ; qtot 253.979770
12168         ho    451    ccc     H8  12168 0.51297200   1.008000   ; qtot 254.492742
12169         h1    451    ccc     H9  12169 0.05653400   1.008000   ; qtot 254.549276
12170         h1    451    ccc    H10  12170 0.05653400   1.008000   ; qtot 254.605810
12171         oh    451    ccc     O5  12171 -0.84113600  16.000000   ; qtot 253.764674
12172         ho    451    ccc    H11  12172 0.51201600   1.008000   ; qtot 254.276690
12173         os    451    ccc     O6  12173 -0.26013600  16.000000   ; qtot 254.016554
; residue  452 ccc rtp ccc q 0.0
12174         c3    452    ccc     C1  12174 -0.33178800  12.010000   ; qtot 253.684766
12175         c3    452    ccc     C2  12175 0.30606500  12.010000   ; qtot 253.990831
12176         h1    452    ccc     H1  12176 0.11662300   1.008000   ; qtot 254.107454
12177         h1    452    ccc     H2  12177 0.11526800   1.008000   ; qtot 254.222722
12178         c3    452    ccc     C3  12178 0.15592700  12.010000   ; qtot 254.378649
12179         c3    452    ccc     C4  12179 0.28383300  12.010000   ; qtot 254.662482
12180         c3    452    ccc     C5  12180 0.32403300  12.010000   ; qtot 254.986515
12181         h1    452    ccc     H3  12181 0.13386900   1.008000   ; qtot 255.120384
12182         h1    452    ccc     H4  12182 0.10146700   1.008000   ; qtot 255.221851
12183         h2    452    ccc     H5  12183 0.10960400   1.008000   ; qtot 255.331455
12184         os    452    ccc     O1  12184 -0.28650000  16.000000   ; qtot 255.044955
12185         oh    452    ccc     O2  12185 -0.86012500  16.000000   ; qtot 254.184830
12186         oh    452    ccc     O3  12186 -0.83772800  16.000000   ; qtot 253.347102
12187         oh    452    ccc     O4  12187 -0.77449700  16.000000   ; qtot 252.572605
12188         c3    452    ccc     C6  12188 0.37576500  12.010000   ; qtot 252.948370
12189         ho    452    ccc     H6  12189 0.53656000   1.008000   ; qtot 253.484930
12190         ho    452    ccc     H7  12190 0.49492100   1.008000   ; qtot 253.979851
12191         ho    452    ccc     H8  12191 0.51297200   1.008000   ; qtot 254.492823
12192         h1    452    ccc     H9  12192 0.05653400   1.008000   ; qtot 254.549357
12193         h1    452    ccc    H10  12193 0.05653400   1.008000   ; qtot 254.605891
12194         oh    452    ccc     O5  12194 -0.84113600  16.000000   ; qtot 253.764755
12195         ho    452    ccc    H11  12195 0.51201600   1.008000   ; qtot 254.276771
12196         os    452    ccc     O6  12196 -0.26013600  16.000000   ; qtot 254.016635
; residue  453 ccc rtp ccc q 0.0
12197         c3    453    ccc     C1  12197 -0.33178800  12.010000   ; qtot 253.684847
12198         c3    453    ccc     C2  12198 0.30606500  12.010000   ; qtot 253.990912
12199         h1    453    ccc     H1  12199 0.11662300   1.008000   ; qtot 254.107535
12200         h1    453    ccc     H2  12200 0.11526800   1.008000   ; qtot 254.222803
12201         c3    453    ccc     C3  12201 0.15592700  12.010000   ; qtot 254.378730
12202         c3    453    ccc     C4  12202 0.28383300  12.010000   ; qtot 254.662563
12203         c3    453    ccc     C5  12203 0.32403300  12.010000   ; qtot 254.986596
12204         h1    453    ccc     H3  12204 0.13386900   1.008000   ; qtot 255.120465
12205         h1    453    ccc     H4  12205 0.10146700   1.008000   ; qtot 255.221932
12206         h2    453    ccc     H5  12206 0.10960400   1.008000   ; qtot 255.331536
12207         os    453    ccc     O1  12207 -0.28650000  16.000000   ; qtot 255.045036
12208         oh    453    ccc     O2  12208 -0.86012500  16.000000   ; qtot 254.184911
12209         oh    453    ccc     O3  12209 -0.83772800  16.000000   ; qtot 253.347183
12210         oh    453    ccc     O4  12210 -0.77449700  16.000000   ; qtot 252.572686
12211         c3    453    ccc     C6  12211 0.37576500  12.010000   ; qtot 252.948451
12212         ho    453    ccc     H6  12212 0.53656000   1.008000   ; qtot 253.485011
12213         ho    453    ccc     H7  12213 0.49492100   1.008000   ; qtot 253.979932
12214         ho    453    ccc     H8  12214 0.51297200   1.008000   ; qtot 254.492904
12215         h1    453    ccc     H9  12215 0.05653400   1.008000   ; qtot 254.549438
12216         h1    453    ccc    H10  12216 0.05653400   1.008000   ; qtot 254.605972
12217         oh    453    ccc     O5  12217 -0.84113600  16.000000   ; qtot 253.764836
12218         ho    453    ccc    H11  12218 0.51201600   1.008000   ; qtot 254.276852
12219         os    453    ccc     O6  12219 -0.26013600  16.000000   ; qtot 254.016716
; residue  454 ccc rtp ccc q 0.0
12220         c3    454    ccc     C1  12220 -0.33178800  12.010000   ; qtot 253.684928
12221         c3    454    ccc     C2  12221 0.30606500  12.010000   ; qtot 253.990993
12222         h1    454    ccc     H1  12222 0.11662300   1.008000   ; qtot 254.107616
12223         h1    454    ccc     H2  12223 0.11526800   1.008000   ; qtot 254.222884
12224         c3    454    ccc     C3  12224 0.15592700  12.010000   ; qtot 254.378811
12225         c3    454    ccc     C4  12225 0.28383300  12.010000   ; qtot 254.662644
12226         c3    454    ccc     C5  12226 0.32403300  12.010000   ; qtot 254.986677
12227         h1    454    ccc     H3  12227 0.13386900   1.008000   ; qtot 255.120546
12228         h1    454    ccc     H4  12228 0.10146700   1.008000   ; qtot 255.222013
12229         h2    454    ccc     H5  12229 0.10960400   1.008000   ; qtot 255.331617
12230         os    454    ccc     O1  12230 -0.28650000  16.000000   ; qtot 255.045117
12231         oh    454    ccc     O2  12231 -0.86012500  16.000000   ; qtot 254.184992
12232         oh    454    ccc     O3  12232 -0.83772800  16.000000   ; qtot 253.347264
12233         oh    454    ccc     O4  12233 -0.77449700  16.000000   ; qtot 252.572767
12234         c3    454    ccc     C6  12234 0.37576500  12.010000   ; qtot 252.948532
12235         ho    454    ccc     H6  12235 0.53656000   1.008000   ; qtot 253.485092
12236         ho    454    ccc     H7  12236 0.49492100   1.008000   ; qtot 253.980013
12237         ho    454    ccc     H8  12237 0.51297200   1.008000   ; qtot 254.492985
12238         h1    454    ccc     H9  12238 0.05653400   1.008000   ; qtot 254.549519
12239         h1    454    ccc    H10  12239 0.05653400   1.008000   ; qtot 254.606053
12240         oh    454    ccc     O5  12240 -0.84113600  16.000000   ; qtot 253.764917
12241         ho    454    ccc    H11  12241 0.51201600   1.008000   ; qtot 254.276933
12242         os    454    ccc     O6  12242 -0.26013600  16.000000   ; qtot 254.016797
; residue  455 ccc rtp ccc q 0.0
12243         c3    455    ccc     C1  12243 -0.33178800  12.010000   ; qtot 253.685009
12244         c3    455    ccc     C2  12244 0.30606500  12.010000   ; qtot 253.991074
12245         h1    455    ccc     H1  12245 0.11662300   1.008000   ; qtot 254.107697
12246         h1    455    ccc     H2  12246 0.11526800   1.008000   ; qtot 254.222965
12247         c3    455    ccc     C3  12247 0.15592700  12.010000   ; qtot 254.378892
12248         c3    455    ccc     C4  12248 0.28383300  12.010000   ; qtot 254.662725
12249         c3    455    ccc     C5  12249 0.32403300  12.010000   ; qtot 254.986758
12250         h1    455    ccc     H3  12250 0.13386900   1.008000   ; qtot 255.120627
12251         h1    455    ccc     H4  12251 0.10146700   1.008000   ; qtot 255.222094
12252         h2    455    ccc     H5  12252 0.10960400   1.008000   ; qtot 255.331698
12253         os    455    ccc     O1  12253 -0.28650000  16.000000   ; qtot 255.045198
12254         oh    455    ccc     O2  12254 -0.86012500  16.000000   ; qtot 254.185073
12255         oh    455    ccc     O3  12255 -0.83772800  16.000000   ; qtot 253.347345
12256         oh    455    ccc     O4  12256 -0.77449700  16.000000   ; qtot 252.572848
12257         c3    455    ccc     C6  12257 0.37576500  12.010000   ; qtot 252.948613
12258         ho    455    ccc     H6  12258 0.53656000   1.008000   ; qtot 253.485173
12259         ho    455    ccc     H7  12259 0.49492100   1.008000   ; qtot 253.980094
12260         ho    455    ccc     H8  12260 0.51297200   1.008000   ; qtot 254.493066
12261         h1    455    ccc     H9  12261 0.05653400   1.008000   ; qtot 254.549600
12262         h1    455    ccc    H10  12262 0.05653400   1.008000   ; qtot 254.606134
12263         oh    455    ccc     O5  12263 -0.84113600  16.000000   ; qtot 253.764998
12264         ho    455    ccc    H11  12264 0.51201600   1.008000   ; qtot 254.277014
12265         os    455    ccc     O6  12265 -0.26013600  16.000000   ; qtot 254.016878
; residue  456 ccc rtp ccc q 0.0
12266         c3    456    ccc     C1  12266 -0.33178800  12.010000   ; qtot 253.685090
12267         c3    456    ccc     C2  12267 0.30606500  12.010000   ; qtot 253.991155
12268         h1    456    ccc     H1  12268 0.11662300   1.008000   ; qtot 254.107778
12269         h1    456    ccc     H2  12269 0.11526800   1.008000   ; qtot 254.223046
12270         c3    456    ccc     C3  12270 0.15592700  12.010000   ; qtot 254.378973
12271         c3    456    ccc     C4  12271 0.28383300  12.010000   ; qtot 254.662806
12272         c3    456    ccc     C5  12272 0.32403300  12.010000   ; qtot 254.986839
12273         h1    456    ccc     H3  12273 0.13386900   1.008000   ; qtot 255.120708
12274         h1    456    ccc     H4  12274 0.10146700   1.008000   ; qtot 255.222175
12275         h2    456    ccc     H5  12275 0.10960400   1.008000   ; qtot 255.331779
12276         os    456    ccc     O1  12276 -0.28650000  16.000000   ; qtot 255.045279
12277         oh    456    ccc     O2  12277 -0.86012500  16.000000   ; qtot 254.185154
12278         oh    456    ccc     O3  12278 -0.83772800  16.000000   ; qtot 253.347426
12279         oh    456    ccc     O4  12279 -0.77449700  16.000000   ; qtot 252.572929
12280         c3    456    ccc     C6  12280 0.37576500  12.010000   ; qtot 252.948694
12281         ho    456    ccc     H6  12281 0.53656000   1.008000   ; qtot 253.485254
12282         ho    456    ccc     H7  12282 0.49492100   1.008000   ; qtot 253.980175
12283         ho    456    ccc     H8  12283 0.51297200   1.008000   ; qtot 254.493147
12284         h1    456    ccc     H9  12284 0.05653400   1.008000   ; qtot 254.549681
12285         h1    456    ccc    H10  12285 0.05653400   1.008000   ; qtot 254.606215
12286         oh    456    ccc     O5  12286 -0.84113600  16.000000   ; qtot 253.765079
12287         ho    456    ccc    H11  12287 0.51201600   1.008000   ; qtot 254.277095
12288         os    456    ccc     O6  12288 -0.26013600  16.000000   ; qtot 254.016959
; residue  457 ccc rtp ccc q 0.0
12289         c3    457    ccc     C1  12289 -0.33178800  12.010000   ; qtot 253.685171
12290         c3    457    ccc     C2  12290 0.30606500  12.010000   ; qtot 253.991236
12291         h1    457    ccc     H1  12291 0.11662300   1.008000   ; qtot 254.107859
12292         h1    457    ccc     H2  12292 0.11526800   1.008000   ; qtot 254.223127
12293         c3    457    ccc     C3  12293 0.15592700  12.010000   ; qtot 254.379054
12294         c3    457    ccc     C4  12294 0.28383300  12.010000   ; qtot 254.662887
12295         c3    457    ccc     C5  12295 0.32403300  12.010000   ; qtot 254.986920
12296         h1    457    ccc     H3  12296 0.13386900   1.008000   ; qtot 255.120789
12297         h1    457    ccc     H4  12297 0.10146700   1.008000   ; qtot 255.222256
12298         h2    457    ccc     H5  12298 0.10960400   1.008000   ; qtot 255.331860
12299         os    457    ccc     O1  12299 -0.28650000  16.000000   ; qtot 255.045360
12300         oh    457    ccc     O2  12300 -0.86012500  16.000000   ; qtot 254.185235
12301         oh    457    ccc     O3  12301 -0.83772800  16.000000   ; qtot 253.347507
12302         oh    457    ccc     O4  12302 -0.77449700  16.000000   ; qtot 252.573010
12303         c3    457    ccc     C6  12303 0.37576500  12.010000   ; qtot 252.948775
12304         ho    457    ccc     H6  12304 0.53656000   1.008000   ; qtot 253.485335
12305         ho    457    ccc     H7  12305 0.49492100   1.008000   ; qtot 253.980256
12306         ho    457    ccc     H8  12306 0.51297200   1.008000   ; qtot 254.493228
12307         h1    457    ccc     H9  12307 0.05653400   1.008000   ; qtot 254.549762
12308         h1    457    ccc    H10  12308 0.05653400   1.008000   ; qtot 254.606296
12309         oh    457    ccc     O5  12309 -0.84113600  16.000000   ; qtot 253.765160
12310         ho    457    ccc    H11  12310 0.51201600   1.008000   ; qtot 254.277176
12311         os    457    ccc     O6  12311 -0.26013600  16.000000   ; qtot 254.017040
; residue  458 ccc rtp ccc q 0.0
12312         c3    458    ccc     C1  12312 -0.33178800  12.010000   ; qtot 253.685252
12313         c3    458    ccc     C2  12313 0.30606500  12.010000   ; qtot 253.991317
12314         h1    458    ccc     H1  12314 0.11662300   1.008000   ; qtot 254.107940
12315         h1    458    ccc     H2  12315 0.11526800   1.008000   ; qtot 254.223208
12316         c3    458    ccc     C3  12316 0.15592700  12.010000   ; qtot 254.379135
12317         c3    458    ccc     C4  12317 0.28383300  12.010000   ; qtot 254.662968
12318         c3    458    ccc     C5  12318 0.32403300  12.010000   ; qtot 254.987001
12319         h1    458    ccc     H3  12319 0.13386900   1.008000   ; qtot 255.120870
12320         h1    458    ccc     H4  12320 0.10146700   1.008000   ; qtot 255.222337
12321         h2    458    ccc     H5  12321 0.10960400   1.008000   ; qtot 255.331941
12322         os    458    ccc     O1  12322 -0.28650000  16.000000   ; qtot 255.045441
12323         oh    458    ccc     O2  12323 -0.86012500  16.000000   ; qtot 254.185316
12324         oh    458    ccc     O3  12324 -0.83772800  16.000000   ; qtot 253.347588
12325         oh    458    ccc     O4  12325 -0.77449700  16.000000   ; qtot 252.573091
12326         c3    458    ccc     C6  12326 0.37576500  12.010000   ; qtot 252.948856
12327         ho    458    ccc     H6  12327 0.53656000   1.008000   ; qtot 253.485416
12328         ho    458    ccc     H7  12328 0.49492100   1.008000   ; qtot 253.980337
12329         ho    458    ccc     H8  12329 0.51297200   1.008000   ; qtot 254.493309
12330         h1    458    ccc     H9  12330 0.05653400   1.008000   ; qtot 254.549843
12331         h1    458    ccc    H10  12331 0.05653400   1.008000   ; qtot 254.606377
12332         oh    458    ccc     O5  12332 -0.84113600  16.000000   ; qtot 253.765241
12333         ho    458    ccc    H11  12333 0.51201600   1.008000   ; qtot 254.277257
12334         os    458    ccc     O6  12334 -0.26013600  16.000000   ; qtot 254.017121
; residue  459 ccc rtp ccc q 0.0
12335         c3    459    ccc     C1  12335 -0.33178800  12.010000   ; qtot 253.685333
12336         c3    459    ccc     C2  12336 0.30606500  12.010000   ; qtot 253.991398
12337         h1    459    ccc     H1  12337 0.11662300   1.008000   ; qtot 254.108021
12338         h1    459    ccc     H2  12338 0.11526800   1.008000   ; qtot 254.223289
12339         c3    459    ccc     C3  12339 0.15592700  12.010000   ; qtot 254.379216
12340         c3    459    ccc     C4  12340 0.28383300  12.010000   ; qtot 254.663049
12341         c3    459    ccc     C5  12341 0.32403300  12.010000   ; qtot 254.987082
12342         h1    459    ccc     H3  12342 0.13386900   1.008000   ; qtot 255.120951
12343         h1    459    ccc     H4  12343 0.10146700   1.008000   ; qtot 255.222418
12344         h2    459    ccc     H5  12344 0.10960400   1.008000   ; qtot 255.332022
12345         os    459    ccc     O1  12345 -0.28650000  16.000000   ; qtot 255.045522
12346         oh    459    ccc     O2  12346 -0.86012500  16.000000   ; qtot 254.185397
12347         oh    459    ccc     O3  12347 -0.83772800  16.000000   ; qtot 253.347669
12348         oh    459    ccc     O4  12348 -0.77449700  16.000000   ; qtot 252.573172
12349         c3    459    ccc     C6  12349 0.37576500  12.010000   ; qtot 252.948937
12350         ho    459    ccc     H6  12350 0.53656000   1.008000   ; qtot 253.485497
12351         ho    459    ccc     H7  12351 0.49492100   1.008000   ; qtot 253.980418
12352         ho    459    ccc     H8  12352 0.51297200   1.008000   ; qtot 254.493390
12353         h1    459    ccc     H9  12353 0.05653400   1.008000   ; qtot 254.549924
12354         h1    459    ccc    H10  12354 0.05653400   1.008000   ; qtot 254.606458
12355         oh    459    ccc     O5  12355 -0.84113600  16.000000   ; qtot 253.765322
12356         ho    459    ccc    H11  12356 0.51201600   1.008000   ; qtot 254.277338
12357         os    459    ccc     O6  12357 -0.26013600  16.000000   ; qtot 254.017202
; residue  460 ccc rtp ccc q 0.0
12358         c3    460    ccc     C1  12358 -0.33178800  12.010000   ; qtot 253.685414
12359         c3    460    ccc     C2  12359 0.30606500  12.010000   ; qtot 253.991479
12360         h1    460    ccc     H1  12360 0.11662300   1.008000   ; qtot 254.108102
12361         h1    460    ccc     H2  12361 0.11526800   1.008000   ; qtot 254.223370
12362         c3    460    ccc     C3  12362 0.15592700  12.010000   ; qtot 254.379297
12363         c3    460    ccc     C4  12363 0.28383300  12.010000   ; qtot 254.663130
12364         c3    460    ccc     C5  12364 0.32403300  12.010000   ; qtot 254.987163
12365         h1    460    ccc     H3  12365 0.13386900   1.008000   ; qtot 255.121032
12366         h1    460    ccc     H4  12366 0.10146700   1.008000   ; qtot 255.222499
12367         h2    460    ccc     H5  12367 0.10960400   1.008000   ; qtot 255.332103
12368         os    460    ccc     O1  12368 -0.28650000  16.000000   ; qtot 255.045603
12369         oh    460    ccc     O2  12369 -0.86012500  16.000000   ; qtot 254.185478
12370         oh    460    ccc     O3  12370 -0.83772800  16.000000   ; qtot 253.347750
12371         oh    460    ccc     O4  12371 -0.77449700  16.000000   ; qtot 252.573253
12372         c3    460    ccc     C6  12372 0.37576500  12.010000   ; qtot 252.949018
12373         ho    460    ccc     H6  12373 0.53656000   1.008000   ; qtot 253.485578
12374         ho    460    ccc     H7  12374 0.49492100   1.008000   ; qtot 253.980499
12375         ho    460    ccc     H8  12375 0.51297200   1.008000   ; qtot 254.493471
12376         h1    460    ccc     H9  12376 0.05653400   1.008000   ; qtot 254.550005
12377         h1    460    ccc    H10  12377 0.05653400   1.008000   ; qtot 254.606539
12378         oh    460    ccc     O5  12378 -0.84113600  16.000000   ; qtot 253.765403
12379         ho    460    ccc    H11  12379 0.51201600   1.008000   ; qtot 254.277419
12380         os    460    ccc     O6  12380 -0.26013600  16.000000   ; qtot 254.017283
; residue  461 ccc rtp ccc q 0.0
12381         c3    461    ccc     C1  12381 -0.33178800  12.010000   ; qtot 253.685495
12382         c3    461    ccc     C2  12382 0.30606500  12.010000   ; qtot 253.991560
12383         h1    461    ccc     H1  12383 0.11662300   1.008000   ; qtot 254.108183
12384         h1    461    ccc     H2  12384 0.11526800   1.008000   ; qtot 254.223451
12385         c3    461    ccc     C3  12385 0.15592700  12.010000   ; qtot 254.379378
12386         c3    461    ccc     C4  12386 0.28383300  12.010000   ; qtot 254.663211
12387         c3    461    ccc     C5  12387 0.32403300  12.010000   ; qtot 254.987244
12388         h1    461    ccc     H3  12388 0.13386900   1.008000   ; qtot 255.121113
12389         h1    461    ccc     H4  12389 0.10146700   1.008000   ; qtot 255.222580
12390         h2    461    ccc     H5  12390 0.10960400   1.008000   ; qtot 255.332184
12391         os    461    ccc     O1  12391 -0.28650000  16.000000   ; qtot 255.045684
12392         oh    461    ccc     O2  12392 -0.86012500  16.000000   ; qtot 254.185559
12393         oh    461    ccc     O3  12393 -0.83772800  16.000000   ; qtot 253.347831
12394         oh    461    ccc     O4  12394 -0.77449700  16.000000   ; qtot 252.573334
12395         c3    461    ccc     C6  12395 0.37576500  12.010000   ; qtot 252.949099
12396         ho    461    ccc     H6  12396 0.53656000   1.008000   ; qtot 253.485659
12397         ho    461    ccc     H7  12397 0.49492100   1.008000   ; qtot 253.980580
12398         ho    461    ccc     H8  12398 0.51297200   1.008000   ; qtot 254.493552
12399         h1    461    ccc     H9  12399 0.05653400   1.008000   ; qtot 254.550086
12400         h1    461    ccc    H10  12400 0.05653400   1.008000   ; qtot 254.606620
12401         oh    461    ccc     O5  12401 -0.84113600  16.000000   ; qtot 253.765484
12402         ho    461    ccc    H11  12402 0.51201600   1.008000   ; qtot 254.277500
12403         os    461    ccc     O6  12403 -0.26013600  16.000000   ; qtot 254.017364
; residue  462 ccc rtp ccc q 0.0
12404         c3    462    ccc     C1  12404 -0.33178800  12.010000   ; qtot 253.685576
12405         c3    462    ccc     C2  12405 0.30606500  12.010000   ; qtot 253.991641
12406         h1    462    ccc     H1  12406 0.11662300   1.008000   ; qtot 254.108264
12407         h1    462    ccc     H2  12407 0.11526800   1.008000   ; qtot 254.223532
12408         c3    462    ccc     C3  12408 0.15592700  12.010000   ; qtot 254.379459
12409         c3    462    ccc     C4  12409 0.28383300  12.010000   ; qtot 254.663292
12410         c3    462    ccc     C5  12410 0.32403300  12.010000   ; qtot 254.987325
12411         h1    462    ccc     H3  12411 0.13386900   1.008000   ; qtot 255.121194
12412         h1    462    ccc     H4  12412 0.10146700   1.008000   ; qtot 255.222661
12413         h2    462    ccc     H5  12413 0.10960400   1.008000   ; qtot 255.332265
12414         os    462    ccc     O1  12414 -0.28650000  16.000000   ; qtot 255.045765
12415         oh    462    ccc     O2  12415 -0.86012500  16.000000   ; qtot 254.185640
12416         oh    462    ccc     O3  12416 -0.83772800  16.000000   ; qtot 253.347912
12417         oh    462    ccc     O4  12417 -0.77449700  16.000000   ; qtot 252.573415
12418         c3    462    ccc     C6  12418 0.37576500  12.010000   ; qtot 252.949180
12419         ho    462    ccc     H6  12419 0.53656000   1.008000   ; qtot 253.485740
12420         ho    462    ccc     H7  12420 0.49492100   1.008000   ; qtot 253.980661
12421         ho    462    ccc     H8  12421 0.51297200   1.008000   ; qtot 254.493633
12422         h1    462    ccc     H9  12422 0.05653400   1.008000   ; qtot 254.550167
12423         h1    462    ccc    H10  12423 0.05653400   1.008000   ; qtot 254.606701
12424         oh    462    ccc     O5  12424 -0.84113600  16.000000   ; qtot 253.765565
12425         ho    462    ccc    H11  12425 0.51201600   1.008000   ; qtot 254.277581
12426         os    462    ccc     O6  12426 -0.26013600  16.000000   ; qtot 254.017445
; residue  463 ccc rtp ccc q 0.0
12427         c3    463    ccc     C1  12427 -0.33178800  12.010000   ; qtot 253.685657
12428         c3    463    ccc     C2  12428 0.30606500  12.010000   ; qtot 253.991722
12429         h1    463    ccc     H1  12429 0.11662300   1.008000   ; qtot 254.108345
12430         h1    463    ccc     H2  12430 0.11526800   1.008000   ; qtot 254.223613
12431         c3    463    ccc     C3  12431 0.15592700  12.010000   ; qtot 254.379540
12432         c3    463    ccc     C4  12432 0.28383300  12.010000   ; qtot 254.663373
12433         c3    463    ccc     C5  12433 0.32403300  12.010000   ; qtot 254.987406
12434         h1    463    ccc     H3  12434 0.13386900   1.008000   ; qtot 255.121275
12435         h1    463    ccc     H4  12435 0.10146700   1.008000   ; qtot 255.222742
12436         h2    463    ccc     H5  12436 0.10960400   1.008000   ; qtot 255.332346
12437         os    463    ccc     O1  12437 -0.28650000  16.000000   ; qtot 255.045846
12438         oh    463    ccc     O2  12438 -0.86012500  16.000000   ; qtot 254.185721
12439         oh    463    ccc     O3  12439 -0.83772800  16.000000   ; qtot 253.347993
12440         oh    463    ccc     O4  12440 -0.77449700  16.000000   ; qtot 252.573496
12441         c3    463    ccc     C6  12441 0.37576500  12.010000   ; qtot 252.949261
12442         ho    463    ccc     H6  12442 0.53656000   1.008000   ; qtot 253.485821
12443         ho    463    ccc     H7  12443 0.49492100   1.008000   ; qtot 253.980742
12444         ho    463    ccc     H8  12444 0.51297200   1.008000   ; qtot 254.493714
12445         h1    463    ccc     H9  12445 0.05653400   1.008000   ; qtot 254.550248
12446         h1    463    ccc    H10  12446 0.05653400   1.008000   ; qtot 254.606782
12447         oh    463    ccc     O5  12447 -0.84113600  16.000000   ; qtot 253.765646
12448         ho    463    ccc    H11  12448 0.51201600   1.008000   ; qtot 254.277662
12449         os    463    ccc     O6  12449 -0.26013600  16.000000   ; qtot 254.017526
; residue  464 ccc rtp ccc q 0.0
12450         c3    464    ccc     C1  12450 -0.33178800  12.010000   ; qtot 253.685738
12451         c3    464    ccc     C2  12451 0.30606500  12.010000   ; qtot 253.991803
12452         h1    464    ccc     H1  12452 0.11662300   1.008000   ; qtot 254.108426
12453         h1    464    ccc     H2  12453 0.11526800   1.008000   ; qtot 254.223694
12454         c3    464    ccc     C3  12454 0.15592700  12.010000   ; qtot 254.379621
12455         c3    464    ccc     C4  12455 0.28383300  12.010000   ; qtot 254.663454
12456         c3    464    ccc     C5  12456 0.32403300  12.010000   ; qtot 254.987487
12457         h1    464    ccc     H3  12457 0.13386900   1.008000   ; qtot 255.121356
12458         h1    464    ccc     H4  12458 0.10146700   1.008000   ; qtot 255.222823
12459         h2    464    ccc     H5  12459 0.10960400   1.008000   ; qtot 255.332427
12460         os    464    ccc     O1  12460 -0.28650000  16.000000   ; qtot 255.045927
12461         oh    464    ccc     O2  12461 -0.86012500  16.000000   ; qtot 254.185802
12462         oh    464    ccc     O3  12462 -0.83772800  16.000000   ; qtot 253.348074
12463         oh    464    ccc     O4  12463 -0.77449700  16.000000   ; qtot 252.573577
12464         c3    464    ccc     C6  12464 0.37576500  12.010000   ; qtot 252.949342
12465         ho    464    ccc     H6  12465 0.53656000   1.008000   ; qtot 253.485902
12466         ho    464    ccc     H7  12466 0.49492100   1.008000   ; qtot 253.980823
12467         ho    464    ccc     H8  12467 0.51297200   1.008000   ; qtot 254.493795
12468         h1    464    ccc     H9  12468 0.05653400   1.008000   ; qtot 254.550329
12469         h1    464    ccc    H10  12469 0.05653400   1.008000   ; qtot 254.606863
12470         oh    464    ccc     O5  12470 -0.84113600  16.000000   ; qtot 253.765727
12471         ho    464    ccc    H11  12471 0.51201600   1.008000   ; qtot 254.277743
12472         os    464    ccc     O6  12472 -0.26013600  16.000000   ; qtot 254.017607
; residue  465 ccc rtp ccc q 0.0
12473         c3    465    ccc     C1  12473 -0.33178800  12.010000   ; qtot 253.685819
12474         c3    465    ccc     C2  12474 0.30606500  12.010000   ; qtot 253.991884
12475         h1    465    ccc     H1  12475 0.11662300   1.008000   ; qtot 254.108507
12476         h1    465    ccc     H2  12476 0.11526800   1.008000   ; qtot 254.223775
12477         c3    465    ccc     C3  12477 0.15592700  12.010000   ; qtot 254.379702
12478         c3    465    ccc     C4  12478 0.28383300  12.010000   ; qtot 254.663535
12479         c3    465    ccc     C5  12479 0.32403300  12.010000   ; qtot 254.987568
12480         h1    465    ccc     H3  12480 0.13386900   1.008000   ; qtot 255.121437
12481         h1    465    ccc     H4  12481 0.10146700   1.008000   ; qtot 255.222904
12482         h2    465    ccc     H5  12482 0.10960400   1.008000   ; qtot 255.332508
12483         os    465    ccc     O1  12483 -0.28650000  16.000000   ; qtot 255.046008
12484         oh    465    ccc     O2  12484 -0.86012500  16.000000   ; qtot 254.185883
12485         oh    465    ccc     O3  12485 -0.83772800  16.000000   ; qtot 253.348155
12486         oh    465    ccc     O4  12486 -0.77449700  16.000000   ; qtot 252.573658
12487         c3    465    ccc     C6  12487 0.37576500  12.010000   ; qtot 252.949423
12488         ho    465    ccc     H6  12488 0.53656000   1.008000   ; qtot 253.485983
12489         ho    465    ccc     H7  12489 0.49492100   1.008000   ; qtot 253.980904
12490         ho    465    ccc     H8  12490 0.51297200   1.008000   ; qtot 254.493876
12491         h1    465    ccc     H9  12491 0.05653400   1.008000   ; qtot 254.550410
12492         h1    465    ccc    H10  12492 0.05653400   1.008000   ; qtot 254.606944
12493         oh    465    ccc     O5  12493 -0.84113600  16.000000   ; qtot 253.765808
12494         ho    465    ccc    H11  12494 0.51201600   1.008000   ; qtot 254.277824
12495         os    465    ccc     O6  12495 -0.26013600  16.000000   ; qtot 254.017688
; residue  466 ccc rtp ccc q 0.0
12496         c3    466    ccc     C1  12496 -0.33178800  12.010000   ; qtot 253.685900
12497         c3    466    ccc     C2  12497 0.30606500  12.010000   ; qtot 253.991965
12498         h1    466    ccc     H1  12498 0.11662300   1.008000   ; qtot 254.108588
12499         h1    466    ccc     H2  12499 0.11526800   1.008000   ; qtot 254.223856
12500         c3    466    ccc     C3  12500 0.15592700  12.010000   ; qtot 254.379783
12501         c3    466    ccc     C4  12501 0.28383300  12.010000   ; qtot 254.663616
12502         c3    466    ccc     C5  12502 0.32403300  12.010000   ; qtot 254.987649
12503         h1    466    ccc     H3  12503 0.13386900   1.008000   ; qtot 255.121518
12504         h1    466    ccc     H4  12504 0.10146700   1.008000   ; qtot 255.222985
12505         h2    466    ccc     H5  12505 0.10960400   1.008000   ; qtot 255.332589
12506         os    466    ccc     O1  12506 -0.28650000  16.000000   ; qtot 255.046089
12507         oh    466    ccc     O2  12507 -0.86012500  16.000000   ; qtot 254.185964
12508         oh    466    ccc     O3  12508 -0.83772800  16.000000   ; qtot 253.348236
12509         oh    466    ccc     O4  12509 -0.77449700  16.000000   ; qtot 252.573739
12510         c3    466    ccc     C6  12510 0.37576500  12.010000   ; qtot 252.949504
12511         ho    466    ccc     H6  12511 0.53656000   1.008000   ; qtot 253.486064
12512         ho    466    ccc     H7  12512 0.49492100   1.008000   ; qtot 253.980985
12513         ho    466    ccc     H8  12513 0.51297200   1.008000   ; qtot 254.493957
12514         h1    466    ccc     H9  12514 0.05653400   1.008000   ; qtot 254.550491
12515         h1    466    ccc    H10  12515 0.05653400   1.008000   ; qtot 254.607025
12516         oh    466    ccc     O5  12516 -0.84113600  16.000000   ; qtot 253.765889
12517         ho    466    ccc    H11  12517 0.51201600   1.008000   ; qtot 254.277905
12518         os    466    ccc     O6  12518 -0.26013600  16.000000   ; qtot 254.017769
; residue  467 ccc rtp ccc q 0.0
12519         c3    467    ccc     C1  12519 -0.33178800  12.010000   ; qtot 253.685981
12520         c3    467    ccc     C2  12520 0.30606500  12.010000   ; qtot 253.992046
12521         h1    467    ccc     H1  12521 0.11662300   1.008000   ; qtot 254.108669
12522         h1    467    ccc     H2  12522 0.11526800   1.008000   ; qtot 254.223937
12523         c3    467    ccc     C3  12523 0.15592700  12.010000   ; qtot 254.379864
12524         c3    467    ccc     C4  12524 0.28383300  12.010000   ; qtot 254.663697
12525         c3    467    ccc     C5  12525 0.32403300  12.010000   ; qtot 254.987730
12526         h1    467    ccc     H3  12526 0.13386900   1.008000   ; qtot 255.121599
12527         h1    467    ccc     H4  12527 0.10146700   1.008000   ; qtot 255.223066
12528         h2    467    ccc     H5  12528 0.10960400   1.008000   ; qtot 255.332670
12529         os    467    ccc     O1  12529 -0.28650000  16.000000   ; qtot 255.046170
12530         oh    467    ccc     O2  12530 -0.86012500  16.000000   ; qtot 254.186045
12531         oh    467    ccc     O3  12531 -0.83772800  16.000000   ; qtot 253.348317
12532         oh    467    ccc     O4  12532 -0.77449700  16.000000   ; qtot 252.573820
12533         c3    467    ccc     C6  12533 0.37576500  12.010000   ; qtot 252.949585
12534         ho    467    ccc     H6  12534 0.53656000   1.008000   ; qtot 253.486145
12535         ho    467    ccc     H7  12535 0.49492100   1.008000   ; qtot 253.981066
12536         ho    467    ccc     H8  12536 0.51297200   1.008000   ; qtot 254.494038
12537         h1    467    ccc     H9  12537 0.05653400   1.008000   ; qtot 254.550572
12538         h1    467    ccc    H10  12538 0.05653400   1.008000   ; qtot 254.607106
12539         oh    467    ccc     O5  12539 -0.84113600  16.000000   ; qtot 253.765970
12540         ho    467    ccc    H11  12540 0.51201600   1.008000   ; qtot 254.277986
12541         os    467    ccc     O6  12541 -0.26013600  16.000000   ; qtot 254.017850
; residue  468 ccc rtp ccc q 0.0
12542         c3    468    ccc     C1  12542 -0.33178800  12.010000   ; qtot 253.686062
12543         c3    468    ccc     C2  12543 0.30606500  12.010000   ; qtot 253.992127
12544         h1    468    ccc     H1  12544 0.11662300   1.008000   ; qtot 254.108750
12545         h1    468    ccc     H2  12545 0.11526800   1.008000   ; qtot 254.224018
12546         c3    468    ccc     C3  12546 0.15592700  12.010000   ; qtot 254.379945
12547         c3    468    ccc     C4  12547 0.28383300  12.010000   ; qtot 254.663778
12548         c3    468    ccc     C5  12548 0.32403300  12.010000   ; qtot 254.987811
12549         h1    468    ccc     H3  12549 0.13386900   1.008000   ; qtot 255.121680
12550         h1    468    ccc     H4  12550 0.10146700   1.008000   ; qtot 255.223147
12551         h2    468    ccc     H5  12551 0.10960400   1.008000   ; qtot 255.332751
12552         os    468    ccc     O1  12552 -0.28650000  16.000000   ; qtot 255.046251
12553         oh    468    ccc     O2  12553 -0.86012500  16.000000   ; qtot 254.186126
12554         oh    468    ccc     O3  12554 -0.83772800  16.000000   ; qtot 253.348398
12555         oh    468    ccc     O4  12555 -0.77449700  16.000000   ; qtot 252.573901
12556         c3    468    ccc     C6  12556 0.37576500  12.010000   ; qtot 252.949666
12557         ho    468    ccc     H6  12557 0.53656000   1.008000   ; qtot 253.486226
12558         ho    468    ccc     H7  12558 0.49492100   1.008000   ; qtot 253.981147
12559         ho    468    ccc     H8  12559 0.51297200   1.008000   ; qtot 254.494119
12560         h1    468    ccc     H9  12560 0.05653400   1.008000   ; qtot 254.550653
12561         h1    468    ccc    H10  12561 0.05653400   1.008000   ; qtot 254.607187
12562         oh    468    ccc     O5  12562 -0.84113600  16.000000   ; qtot 253.766051
12563         ho    468    ccc    H11  12563 0.51201600   1.008000   ; qtot 254.278067
12564         os    468    ccc     O6  12564 -0.26013600  16.000000   ; qtot 254.017931
; residue  469 ccc rtp ccc q 0.0
12565         c3    469    ccc     C1  12565 -0.33178800  12.010000   ; qtot 253.686143
12566         c3    469    ccc     C2  12566 0.30606500  12.010000   ; qtot 253.992208
12567         h1    469    ccc     H1  12567 0.11662300   1.008000   ; qtot 254.108831
12568         h1    469    ccc     H2  12568 0.11526800   1.008000   ; qtot 254.224099
12569         c3    469    ccc     C3  12569 0.15592700  12.010000   ; qtot 254.380026
12570         c3    469    ccc     C4  12570 0.28383300  12.010000   ; qtot 254.663859
12571         c3    469    ccc     C5  12571 0.32403300  12.010000   ; qtot 254.987892
12572         h1    469    ccc     H3  12572 0.13386900   1.008000   ; qtot 255.121761
12573         h1    469    ccc     H4  12573 0.10146700   1.008000   ; qtot 255.223228
12574         h2    469    ccc     H5  12574 0.10960400   1.008000   ; qtot 255.332832
12575         os    469    ccc     O1  12575 -0.28650000  16.000000   ; qtot 255.046332
12576         oh    469    ccc     O2  12576 -0.86012500  16.000000   ; qtot 254.186207
12577         oh    469    ccc     O3  12577 -0.83772800  16.000000   ; qtot 253.348479
12578         oh    469    ccc     O4  12578 -0.77449700  16.000000   ; qtot 252.573982
12579         c3    469    ccc     C6  12579 0.37576500  12.010000   ; qtot 252.949747
12580         ho    469    ccc     H6  12580 0.53656000   1.008000   ; qtot 253.486307
12581         ho    469    ccc     H7  12581 0.49492100   1.008000   ; qtot 253.981228
12582         ho    469    ccc     H8  12582 0.51297200   1.008000   ; qtot 254.494200
12583         h1    469    ccc     H9  12583 0.05653400   1.008000   ; qtot 254.550734
12584         h1    469    ccc    H10  12584 0.05653400   1.008000   ; qtot 254.607268
12585         oh    469    ccc     O5  12585 -0.84113600  16.000000   ; qtot 253.766132
12586         ho    469    ccc    H11  12586 0.51201600   1.008000   ; qtot 254.278148
12587         os    469    ccc     O6  12587 -0.26013600  16.000000   ; qtot 254.018012
; residue  470 ccc rtp ccc q 0.0
12588         c3    470    ccc     C1  12588 -0.33178800  12.010000   ; qtot 253.686224
12589         c3    470    ccc     C2  12589 0.30606500  12.010000   ; qtot 253.992289
12590         h1    470    ccc     H1  12590 0.11662300   1.008000   ; qtot 254.108912
12591         h1    470    ccc     H2  12591 0.11526800   1.008000   ; qtot 254.224180
12592         c3    470    ccc     C3  12592 0.15592700  12.010000   ; qtot 254.380107
12593         c3    470    ccc     C4  12593 0.28383300  12.010000   ; qtot 254.663940
12594         c3    470    ccc     C5  12594 0.32403300  12.010000   ; qtot 254.987973
12595         h1    470    ccc     H3  12595 0.13386900   1.008000   ; qtot 255.121842
12596         h1    470    ccc     H4  12596 0.10146700   1.008000   ; qtot 255.223309
12597         h2    470    ccc     H5  12597 0.10960400   1.008000   ; qtot 255.332913
12598         os    470    ccc     O1  12598 -0.28650000  16.000000   ; qtot 255.046413
12599         oh    470    ccc     O2  12599 -0.86012500  16.000000   ; qtot 254.186288
12600         oh    470    ccc     O3  12600 -0.83772800  16.000000   ; qtot 253.348560
12601         oh    470    ccc     O4  12601 -0.77449700  16.000000   ; qtot 252.574063
12602         c3    470    ccc     C6  12602 0.37576500  12.010000   ; qtot 252.949828
12603         ho    470    ccc     H6  12603 0.53656000   1.008000   ; qtot 253.486388
12604         ho    470    ccc     H7  12604 0.49492100   1.008000   ; qtot 253.981309
12605         ho    470    ccc     H8  12605 0.51297200   1.008000   ; qtot 254.494281
12606         h1    470    ccc     H9  12606 0.05653400   1.008000   ; qtot 254.550815
12607         h1    470    ccc    H10  12607 0.05653400   1.008000   ; qtot 254.607349
12608         oh    470    ccc     O5  12608 -0.84113600  16.000000   ; qtot 253.766213
12609         ho    470    ccc    H11  12609 0.51201600   1.008000   ; qtot 254.278229
12610         os    470    ccc     O6  12610 -0.26013600  16.000000   ; qtot 254.018093
; residue  471 ccc rtp ccc q 0.0
12611         c3    471    ccc     C1  12611 -0.33178800  12.010000   ; qtot 253.686305
12612         c3    471    ccc     C2  12612 0.30606500  12.010000   ; qtot 253.992370
12613         h1    471    ccc     H1  12613 0.11662300   1.008000   ; qtot 254.108993
12614         h1    471    ccc     H2  12614 0.11526800   1.008000   ; qtot 254.224261
12615         c3    471    ccc     C3  12615 0.15592700  12.010000   ; qtot 254.380188
12616         c3    471    ccc     C4  12616 0.28383300  12.010000   ; qtot 254.664021
12617         c3    471    ccc     C5  12617 0.32403300  12.010000   ; qtot 254.988054
12618         h1    471    ccc     H3  12618 0.13386900   1.008000   ; qtot 255.121923
12619         h1    471    ccc     H4  12619 0.10146700   1.008000   ; qtot 255.223390
12620         h2    471    ccc     H5  12620 0.10960400   1.008000   ; qtot 255.332994
12621         os    471    ccc     O1  12621 -0.28650000  16.000000   ; qtot 255.046494
12622         oh    471    ccc     O2  12622 -0.86012500  16.000000   ; qtot 254.186369
12623         oh    471    ccc     O3  12623 -0.83772800  16.000000   ; qtot 253.348641
12624         oh    471    ccc     O4  12624 -0.77449700  16.000000   ; qtot 252.574144
12625         c3    471    ccc     C6  12625 0.37576500  12.010000   ; qtot 252.949909
12626         ho    471    ccc     H6  12626 0.53656000   1.008000   ; qtot 253.486469
12627         ho    471    ccc     H7  12627 0.49492100   1.008000   ; qtot 253.981390
12628         ho    471    ccc     H8  12628 0.51297200   1.008000   ; qtot 254.494362
12629         h1    471    ccc     H9  12629 0.05653400   1.008000   ; qtot 254.550896
12630         h1    471    ccc    H10  12630 0.05653400   1.008000   ; qtot 254.607430
12631         oh    471    ccc     O5  12631 -0.84113600  16.000000   ; qtot 253.766294
12632         ho    471    ccc    H11  12632 0.51201600   1.008000   ; qtot 254.278310
12633         os    471    ccc     O6  12633 -0.26013600  16.000000   ; qtot 254.018174
; residue  472 ccc rtp ccc q 0.0
12634         c3    472    ccc     C1  12634 -0.33178800  12.010000   ; qtot 253.686386
12635         c3    472    ccc     C2  12635 0.30606500  12.010000   ; qtot 253.992451
12636         h1    472    ccc     H1  12636 0.11662300   1.008000   ; qtot 254.109074
12637         h1    472    ccc     H2  12637 0.11526800   1.008000   ; qtot 254.224342
12638         c3    472    ccc     C3  12638 0.15592700  12.010000   ; qtot 254.380269
12639         c3    472    ccc     C4  12639 0.28383300  12.010000   ; qtot 254.664102
12640         c3    472    ccc     C5  12640 0.32403300  12.010000   ; qtot 254.988135
12641         h1    472    ccc     H3  12641 0.13386900   1.008000   ; qtot 255.122004
12642         h1    472    ccc     H4  12642 0.10146700   1.008000   ; qtot 255.223471
12643         h2    472    ccc     H5  12643 0.10960400   1.008000   ; qtot 255.333075
12644         os    472    ccc     O1  12644 -0.28650000  16.000000   ; qtot 255.046575
12645         oh    472    ccc     O2  12645 -0.86012500  16.000000   ; qtot 254.186450
12646         oh    472    ccc     O3  12646 -0.83772800  16.000000   ; qtot 253.348722
12647         oh    472    ccc     O4  12647 -0.77449700  16.000000   ; qtot 252.574225
12648         c3    472    ccc     C6  12648 0.37576500  12.010000   ; qtot 252.949990
12649         ho    472    ccc     H6  12649 0.53656000   1.008000   ; qtot 253.486550
12650         ho    472    ccc     H7  12650 0.49492100   1.008000   ; qtot 253.981471
12651         ho    472    ccc     H8  12651 0.51297200   1.008000   ; qtot 254.494443
12652         h1    472    ccc     H9  12652 0.05653400   1.008000   ; qtot 254.550977
12653         h1    472    ccc    H10  12653 0.05653400   1.008000   ; qtot 254.607511
12654         oh    472    ccc     O5  12654 -0.84113600  16.000000   ; qtot 253.766375
12655         ho    472    ccc    H11  12655 0.51201600   1.008000   ; qtot 254.278391
12656         os    472    ccc     O6  12656 -0.26013600  16.000000   ; qtot 254.018255
; residue  473 ccc rtp ccc q 0.0
12657         c3    473    ccc     C1  12657 -0.33178800  12.010000   ; qtot 253.686467
12658         c3    473    ccc     C2  12658 0.30606500  12.010000   ; qtot 253.992532
12659         h1    473    ccc     H1  12659 0.11662300   1.008000   ; qtot 254.109155
12660         h1    473    ccc     H2  12660 0.11526800   1.008000   ; qtot 254.224423
12661         c3    473    ccc     C3  12661 0.15592700  12.010000   ; qtot 254.380350
12662         c3    473    ccc     C4  12662 0.28383300  12.010000   ; qtot 254.664183
12663         c3    473    ccc     C5  12663 0.32403300  12.010000   ; qtot 254.988216
12664         h1    473    ccc     H3  12664 0.13386900   1.008000   ; qtot 255.122085
12665         h1    473    ccc     H4  12665 0.10146700   1.008000   ; qtot 255.223552
12666         h2    473    ccc     H5  12666 0.10960400   1.008000   ; qtot 255.333156
12667         os    473    ccc     O1  12667 -0.28650000  16.000000   ; qtot 255.046656
12668         oh    473    ccc     O2  12668 -0.86012500  16.000000   ; qtot 254.186531
12669         oh    473    ccc     O3  12669 -0.83772800  16.000000   ; qtot 253.348803
12670         oh    473    ccc     O4  12670 -0.77449700  16.000000   ; qtot 252.574306
12671         c3    473    ccc     C6  12671 0.37576500  12.010000   ; qtot 252.950071
12672         ho    473    ccc     H6  12672 0.53656000   1.008000   ; qtot 253.486631
12673         ho    473    ccc     H7  12673 0.49492100   1.008000   ; qtot 253.981552
12674         ho    473    ccc     H8  12674 0.51297200   1.008000   ; qtot 254.494524
12675         h1    473    ccc     H9  12675 0.05653400   1.008000   ; qtot 254.551058
12676         h1    473    ccc    H10  12676 0.05653400   1.008000   ; qtot 254.607592
12677         oh    473    ccc     O5  12677 -0.84113600  16.000000   ; qtot 253.766456
12678         ho    473    ccc    H11  12678 0.51201600   1.008000   ; qtot 254.278472
12679         os    473    ccc     O6  12679 -0.26013600  16.000000   ; qtot 254.018336
; residue  474 ccc rtp ccc q 0.0
12680         c3    474    ccc     C1  12680 -0.33178800  12.010000   ; qtot 253.686548
12681         c3    474    ccc     C2  12681 0.30606500  12.010000   ; qtot 253.992613
12682         h1    474    ccc     H1  12682 0.11662300   1.008000   ; qtot 254.109236
12683         h1    474    ccc     H2  12683 0.11526800   1.008000   ; qtot 254.224504
12684         c3    474    ccc     C3  12684 0.15592700  12.010000   ; qtot 254.380431
12685         c3    474    ccc     C4  12685 0.28383300  12.010000   ; qtot 254.664264
12686         c3    474    ccc     C5  12686 0.32403300  12.010000   ; qtot 254.988297
12687         h1    474    ccc     H3  12687 0.13386900   1.008000   ; qtot 255.122166
12688         h1    474    ccc     H4  12688 0.10146700   1.008000   ; qtot 255.223633
12689         h2    474    ccc     H5  12689 0.10960400   1.008000   ; qtot 255.333237
12690         os    474    ccc     O1  12690 -0.28650000  16.000000   ; qtot 255.046737
12691         oh    474    ccc     O2  12691 -0.86012500  16.000000   ; qtot 254.186612
12692         oh    474    ccc     O3  12692 -0.83772800  16.000000   ; qtot 253.348884
12693         oh    474    ccc     O4  12693 -0.77449700  16.000000   ; qtot 252.574387
12694         c3    474    ccc     C6  12694 0.37576500  12.010000   ; qtot 252.950152
12695         ho    474    ccc     H6  12695 0.53656000   1.008000   ; qtot 253.486712
12696         ho    474    ccc     H7  12696 0.49492100   1.008000   ; qtot 253.981633
12697         ho    474    ccc     H8  12697 0.51297200   1.008000   ; qtot 254.494605
12698         h1    474    ccc     H9  12698 0.05653400   1.008000   ; qtot 254.551139
12699         h1    474    ccc    H10  12699 0.05653400   1.008000   ; qtot 254.607673
12700         oh    474    ccc     O5  12700 -0.84113600  16.000000   ; qtot 253.766537
12701         ho    474    ccc    H11  12701 0.51201600   1.008000   ; qtot 254.278553
12702         os    474    ccc     O6  12702 -0.26013600  16.000000   ; qtot 254.018417
; residue  475 ccc rtp ccc q 0.0
12703         c3    475    ccc     C1  12703 -0.33178800  12.010000   ; qtot 253.686629
12704         c3    475    ccc     C2  12704 0.30606500  12.010000   ; qtot 253.992694
12705         h1    475    ccc     H1  12705 0.11662300   1.008000   ; qtot 254.109317
12706         h1    475    ccc     H2  12706 0.11526800   1.008000   ; qtot 254.224585
12707         c3    475    ccc     C3  12707 0.15592700  12.010000   ; qtot 254.380512
12708         c3    475    ccc     C4  12708 0.28383300  12.010000   ; qtot 254.664345
12709         c3    475    ccc     C5  12709 0.32403300  12.010000   ; qtot 254.988378
12710         h1    475    ccc     H3  12710 0.13386900   1.008000   ; qtot 255.122247
12711         h1    475    ccc     H4  12711 0.10146700   1.008000   ; qtot 255.223714
12712         h2    475    ccc     H5  12712 0.10960400   1.008000   ; qtot 255.333318
12713         os    475    ccc     O1  12713 -0.28650000  16.000000   ; qtot 255.046818
12714         oh    475    ccc     O2  12714 -0.86012500  16.000000   ; qtot 254.186693
12715         oh    475    ccc     O3  12715 -0.83772800  16.000000   ; qtot 253.348965
12716         oh    475    ccc     O4  12716 -0.77449700  16.000000   ; qtot 252.574468
12717         c3    475    ccc     C6  12717 0.37576500  12.010000   ; qtot 252.950233
12718         ho    475    ccc     H6  12718 0.53656000   1.008000   ; qtot 253.486793
12719         ho    475    ccc     H7  12719 0.49492100   1.008000   ; qtot 253.981714
12720         ho    475    ccc     H8  12720 0.51297200   1.008000   ; qtot 254.494686
12721         h1    475    ccc     H9  12721 0.05653400   1.008000   ; qtot 254.551220
12722         h1    475    ccc    H10  12722 0.05653400   1.008000   ; qtot 254.607754
12723         oh    475    ccc     O5  12723 -0.84113600  16.000000   ; qtot 253.766618
12724         ho    475    ccc    H11  12724 0.51201600   1.008000   ; qtot 254.278634
12725         os    475    ccc     O6  12725 -0.26013600  16.000000   ; qtot 254.018498
; residue  476 ccc rtp ccc q 0.0
12726         c3    476    ccc     C1  12726 -0.33178800  12.010000   ; qtot 253.686710
12727         c3    476    ccc     C2  12727 0.30606500  12.010000   ; qtot 253.992775
12728         h1    476    ccc     H1  12728 0.11662300   1.008000   ; qtot 254.109398
12729         h1    476    ccc     H2  12729 0.11526800   1.008000   ; qtot 254.224666
12730         c3    476    ccc     C3  12730 0.15592700  12.010000   ; qtot 254.380593
12731         c3    476    ccc     C4  12731 0.28383300  12.010000   ; qtot 254.664426
12732         c3    476    ccc     C5  12732 0.32403300  12.010000   ; qtot 254.988459
12733         h1    476    ccc     H3  12733 0.13386900   1.008000   ; qtot 255.122328
12734         h1    476    ccc     H4  12734 0.10146700   1.008000   ; qtot 255.223795
12735         h2    476    ccc     H5  12735 0.10960400   1.008000   ; qtot 255.333399
12736         os    476    ccc     O1  12736 -0.28650000  16.000000   ; qtot 255.046899
12737         oh    476    ccc     O2  12737 -0.86012500  16.000000   ; qtot 254.186774
12738         oh    476    ccc     O3  12738 -0.83772800  16.000000   ; qtot 253.349046
12739         oh    476    ccc     O4  12739 -0.77449700  16.000000   ; qtot 252.574549
12740         c3    476    ccc     C6  12740 0.37576500  12.010000   ; qtot 252.950314
12741         ho    476    ccc     H6  12741 0.53656000   1.008000   ; qtot 253.486874
12742         ho    476    ccc     H7  12742 0.49492100   1.008000   ; qtot 253.981795
12743         ho    476    ccc     H8  12743 0.51297200   1.008000   ; qtot 254.494767
12744         h1    476    ccc     H9  12744 0.05653400   1.008000   ; qtot 254.551301
12745         h1    476    ccc    H10  12745 0.05653400   1.008000   ; qtot 254.607835
12746         oh    476    ccc     O5  12746 -0.84113600  16.000000   ; qtot 253.766699
12747         ho    476    ccc    H11  12747 0.51201600   1.008000   ; qtot 254.278715
12748         os    476    ccc     O6  12748 -0.26013600  16.000000   ; qtot 254.018579
; residue  477 ccc rtp ccc q 0.0
12749         c3    477    ccc     C1  12749 -0.33178800  12.010000   ; qtot 253.686791
12750         c3    477    ccc     C2  12750 0.30606500  12.010000   ; qtot 253.992856
12751         h1    477    ccc     H1  12751 0.11662300   1.008000   ; qtot 254.109479
12752         h1    477    ccc     H2  12752 0.11526800   1.008000   ; qtot 254.224747
12753         c3    477    ccc     C3  12753 0.15592700  12.010000   ; qtot 254.380674
12754         c3    477    ccc     C4  12754 0.28383300  12.010000   ; qtot 254.664507
12755         c3    477    ccc     C5  12755 0.32403300  12.010000   ; qtot 254.988540
12756         h1    477    ccc     H3  12756 0.13386900   1.008000   ; qtot 255.122409
12757         h1    477    ccc     H4  12757 0.10146700   1.008000   ; qtot 255.223876
12758         h2    477    ccc     H5  12758 0.10960400   1.008000   ; qtot 255.333480
12759         os    477    ccc     O1  12759 -0.28650000  16.000000   ; qtot 255.046980
12760         oh    477    ccc     O2  12760 -0.86012500  16.000000   ; qtot 254.186855
12761         oh    477    ccc     O3  12761 -0.83772800  16.000000   ; qtot 253.349127
12762         oh    477    ccc     O4  12762 -0.77449700  16.000000   ; qtot 252.574630
12763         c3    477    ccc     C6  12763 0.37576500  12.010000   ; qtot 252.950395
12764         ho    477    ccc     H6  12764 0.53656000   1.008000   ; qtot 253.486955
12765         ho    477    ccc     H7  12765 0.49492100   1.008000   ; qtot 253.981876
12766         ho    477    ccc     H8  12766 0.51297200   1.008000   ; qtot 254.494848
12767         h1    477    ccc     H9  12767 0.05653400   1.008000   ; qtot 254.551382
12768         h1    477    ccc    H10  12768 0.05653400   1.008000   ; qtot 254.607916
12769         oh    477    ccc     O5  12769 -0.84113600  16.000000   ; qtot 253.766780
12770         ho    477    ccc    H11  12770 0.51201600   1.008000   ; qtot 254.278796
12771         os    477    ccc     O6  12771 -0.26013600  16.000000   ; qtot 254.018660
; residue  478 ccc rtp ccc q 0.0
12772         c3    478    ccc     C1  12772 -0.33178800  12.010000   ; qtot 253.686872
12773         c3    478    ccc     C2  12773 0.30606500  12.010000   ; qtot 253.992937
12774         h1    478    ccc     H1  12774 0.11662300   1.008000   ; qtot 254.109560
12775         h1    478    ccc     H2  12775 0.11526800   1.008000   ; qtot 254.224828
12776         c3    478    ccc     C3  12776 0.15592700  12.010000   ; qtot 254.380755
12777         c3    478    ccc     C4  12777 0.28383300  12.010000   ; qtot 254.664588
12778         c3    478    ccc     C5  12778 0.32403300  12.010000   ; qtot 254.988621
12779         h1    478    ccc     H3  12779 0.13386900   1.008000   ; qtot 255.122490
12780         h1    478    ccc     H4  12780 0.10146700   1.008000   ; qtot 255.223957
12781         h2    478    ccc     H5  12781 0.10960400   1.008000   ; qtot 255.333561
12782         os    478    ccc     O1  12782 -0.28650000  16.000000   ; qtot 255.047061
12783         oh    478    ccc     O2  12783 -0.86012500  16.000000   ; qtot 254.186936
12784         oh    478    ccc     O3  12784 -0.83772800  16.000000   ; qtot 253.349208
12785         oh    478    ccc     O4  12785 -0.77449700  16.000000   ; qtot 252.574711
12786         c3    478    ccc     C6  12786 0.37576500  12.010000   ; qtot 252.950476
12787         ho    478    ccc     H6  12787 0.53656000   1.008000   ; qtot 253.487036
12788         ho    478    ccc     H7  12788 0.49492100   1.008000   ; qtot 253.981957
12789         ho    478    ccc     H8  12789 0.51297200   1.008000   ; qtot 254.494929
12790         h1    478    ccc     H9  12790 0.05653400   1.008000   ; qtot 254.551463
12791         h1    478    ccc    H10  12791 0.05653400   1.008000   ; qtot 254.607997
12792         oh    478    ccc     O5  12792 -0.84113600  16.000000   ; qtot 253.766861
12793         ho    478    ccc    H11  12793 0.51201600   1.008000   ; qtot 254.278877
12794         os    478    ccc     O6  12794 -0.26013600  16.000000   ; qtot 254.018741
; residue  479 ccc rtp ccc q 0.0
12795         c3    479    ccc     C1  12795 -0.33178800  12.010000   ; qtot 253.686953
12796         c3    479    ccc     C2  12796 0.30606500  12.010000   ; qtot 253.993018
12797         h1    479    ccc     H1  12797 0.11662300   1.008000   ; qtot 254.109641
12798         h1    479    ccc     H2  12798 0.11526800   1.008000   ; qtot 254.224909
12799         c3    479    ccc     C3  12799 0.15592700  12.010000   ; qtot 254.380836
12800         c3    479    ccc     C4  12800 0.28383300  12.010000   ; qtot 254.664669
12801         c3    479    ccc     C5  12801 0.32403300  12.010000   ; qtot 254.988702
12802         h1    479    ccc     H3  12802 0.13386900   1.008000   ; qtot 255.122571
12803         h1    479    ccc     H4  12803 0.10146700   1.008000   ; qtot 255.224038
12804         h2    479    ccc     H5  12804 0.10960400   1.008000   ; qtot 255.333642
12805         os    479    ccc     O1  12805 -0.28650000  16.000000   ; qtot 255.047142
12806         oh    479    ccc     O2  12806 -0.86012500  16.000000   ; qtot 254.187017
12807         oh    479    ccc     O3  12807 -0.83772800  16.000000   ; qtot 253.349289
12808         oh    479    ccc     O4  12808 -0.77449700  16.000000   ; qtot 252.574792
12809         c3    479    ccc     C6  12809 0.37576500  12.010000   ; qtot 252.950557
12810         ho    479    ccc     H6  12810 0.53656000   1.008000   ; qtot 253.487117
12811         ho    479    ccc     H7  12811 0.49492100   1.008000   ; qtot 253.982038
12812         ho    479    ccc     H8  12812 0.51297200   1.008000   ; qtot 254.495010
12813         h1    479    ccc     H9  12813 0.05653400   1.008000   ; qtot 254.551544
12814         h1    479    ccc    H10  12814 0.05653400   1.008000   ; qtot 254.608078
12815         oh    479    ccc     O5  12815 -0.84113600  16.000000   ; qtot 253.766942
12816         ho    479    ccc    H11  12816 0.51201600   1.008000   ; qtot 254.278958
12817         os    479    ccc     O6  12817 -0.26013600  16.000000   ; qtot 254.018822
; residue  480 ccc rtp ccc q 0.0
12818         c3    480    ccc     C1  12818 -0.33178800  12.010000   ; qtot 253.687034
12819         c3    480    ccc     C2  12819 0.30606500  12.010000   ; qtot 253.993099
12820         h1    480    ccc     H1  12820 0.11662300   1.008000   ; qtot 254.109722
12821         h1    480    ccc     H2  12821 0.11526800   1.008000   ; qtot 254.224990
12822         c3    480    ccc     C3  12822 0.15592700  12.010000   ; qtot 254.380917
12823         c3    480    ccc     C4  12823 0.28383300  12.010000   ; qtot 254.664750
12824         c3    480    ccc     C5  12824 0.32403300  12.010000   ; qtot 254.988783
12825         h1    480    ccc     H3  12825 0.13386900   1.008000   ; qtot 255.122652
12826         h1    480    ccc     H4  12826 0.10146700   1.008000   ; qtot 255.224119
12827         h2    480    ccc     H5  12827 0.10960400   1.008000   ; qtot 255.333723
12828         os    480    ccc     O1  12828 -0.28650000  16.000000   ; qtot 255.047223
12829         oh    480    ccc     O2  12829 -0.86012500  16.000000   ; qtot 254.187098
12830         oh    480    ccc     O3  12830 -0.83772800  16.000000   ; qtot 253.349370
12831         oh    480    ccc     O4  12831 -0.77449700  16.000000   ; qtot 252.574873
12832         c3    480    ccc     C6  12832 0.37576500  12.010000   ; qtot 252.950638
12833         ho    480    ccc     H6  12833 0.53656000   1.008000   ; qtot 253.487198
12834         ho    480    ccc     H7  12834 0.49492100   1.008000   ; qtot 253.982119
12835         ho    480    ccc     H8  12835 0.51297200   1.008000   ; qtot 254.495091
12836         h1    480    ccc     H9  12836 0.05653400   1.008000   ; qtot 254.551625
12837         h1    480    ccc    H10  12837 0.05653400   1.008000   ; qtot 254.608159
12838         oh    480    ccc     O5  12838 -0.84113600  16.000000   ; qtot 253.767023
12839         ho    480    ccc    H11  12839 0.51201600   1.008000   ; qtot 254.279039
12840         os    480    ccc     O6  12840 -0.26013600  16.000000   ; qtot 254.018903
; residue  481 ccc rtp ccc q 0.0
12841         c3    481    ccc     C1  12841 -0.33178800  12.010000   ; qtot 253.687115
12842         c3    481    ccc     C2  12842 0.30606500  12.010000   ; qtot 253.993180
12843         h1    481    ccc     H1  12843 0.11662300   1.008000   ; qtot 254.109803
12844         h1    481    ccc     H2  12844 0.11526800   1.008000   ; qtot 254.225071
12845         c3    481    ccc     C3  12845 0.15592700  12.010000   ; qtot 254.380998
12846         c3    481    ccc     C4  12846 0.28383300  12.010000   ; qtot 254.664831
12847         c3    481    ccc     C5  12847 0.32403300  12.010000   ; qtot 254.988864
12848         h1    481    ccc     H3  12848 0.13386900   1.008000   ; qtot 255.122733
12849         h1    481    ccc     H4  12849 0.10146700   1.008000   ; qtot 255.224200
12850         h2    481    ccc     H5  12850 0.10960400   1.008000   ; qtot 255.333804
12851         os    481    ccc     O1  12851 -0.28650000  16.000000   ; qtot 255.047304
12852         oh    481    ccc     O2  12852 -0.86012500  16.000000   ; qtot 254.187179
12853         oh    481    ccc     O3  12853 -0.83772800  16.000000   ; qtot 253.349451
12854         oh    481    ccc     O4  12854 -0.77449700  16.000000   ; qtot 252.574954
12855         c3    481    ccc     C6  12855 0.37576500  12.010000   ; qtot 252.950719
12856         ho    481    ccc     H6  12856 0.53656000   1.008000   ; qtot 253.487279
12857         ho    481    ccc     H7  12857 0.49492100   1.008000   ; qtot 253.982200
12858         ho    481    ccc     H8  12858 0.51297200   1.008000   ; qtot 254.495172
12859         h1    481    ccc     H9  12859 0.05653400   1.008000   ; qtot 254.551706
12860         h1    481    ccc    H10  12860 0.05653400   1.008000   ; qtot 254.608240
12861         oh    481    ccc     O5  12861 -0.84113600  16.000000   ; qtot 253.767104
12862         ho    481    ccc    H11  12862 0.51201600   1.008000   ; qtot 254.279120
12863         os    481    ccc     O6  12863 -0.26013600  16.000000   ; qtot 254.018984
; residue  482 ccc rtp ccc q 0.0
12864         c3    482    ccc     C1  12864 -0.33178800  12.010000   ; qtot 253.687196
12865         c3    482    ccc     C2  12865 0.30606500  12.010000   ; qtot 253.993261
12866         h1    482    ccc     H1  12866 0.11662300   1.008000   ; qtot 254.109884
12867         h1    482    ccc     H2  12867 0.11526800   1.008000   ; qtot 254.225152
12868         c3    482    ccc     C3  12868 0.15592700  12.010000   ; qtot 254.381079
12869         c3    482    ccc     C4  12869 0.28383300  12.010000   ; qtot 254.664912
12870         c3    482    ccc     C5  12870 0.32403300  12.010000   ; qtot 254.988945
12871         h1    482    ccc     H3  12871 0.13386900   1.008000   ; qtot 255.122814
12872         h1    482    ccc     H4  12872 0.10146700   1.008000   ; qtot 255.224281
12873         h2    482    ccc     H5  12873 0.10960400   1.008000   ; qtot 255.333885
12874         os    482    ccc     O1  12874 -0.28650000  16.000000   ; qtot 255.047385
12875         oh    482    ccc     O2  12875 -0.86012500  16.000000   ; qtot 254.187260
12876         oh    482    ccc     O3  12876 -0.83772800  16.000000   ; qtot 253.349532
12877         oh    482    ccc     O4  12877 -0.77449700  16.000000   ; qtot 252.575035
12878         c3    482    ccc     C6  12878 0.37576500  12.010000   ; qtot 252.950800
12879         ho    482    ccc     H6  12879 0.53656000   1.008000   ; qtot 253.487360
12880         ho    482    ccc     H7  12880 0.49492100   1.008000   ; qtot 253.982281
12881         ho    482    ccc     H8  12881 0.51297200   1.008000   ; qtot 254.495253
12882         h1    482    ccc     H9  12882 0.05653400   1.008000   ; qtot 254.551787
12883         h1    482    ccc    H10  12883 0.05653400   1.008000   ; qtot 254.608321
12884         oh    482    ccc     O5  12884 -0.84113600  16.000000   ; qtot 253.767185
12885         ho    482    ccc    H11  12885 0.51201600   1.008000   ; qtot 254.279201
12886         os    482    ccc     O6  12886 -0.26013600  16.000000   ; qtot 254.019065
; residue  483 ccc rtp ccc q 0.0
12887         c3    483    ccc     C1  12887 -0.33178800  12.010000   ; qtot 253.687277
12888         c3    483    ccc     C2  12888 0.30606500  12.010000   ; qtot 253.993342
12889         h1    483    ccc     H1  12889 0.11662300   1.008000   ; qtot 254.109965
12890         h1    483    ccc     H2  12890 0.11526800   1.008000   ; qtot 254.225233
12891         c3    483    ccc     C3  12891 0.15592700  12.010000   ; qtot 254.381160
12892         c3    483    ccc     C4  12892 0.28383300  12.010000   ; qtot 254.664993
12893         c3    483    ccc     C5  12893 0.32403300  12.010000   ; qtot 254.989026
12894         h1    483    ccc     H3  12894 0.13386900   1.008000   ; qtot 255.122895
12895         h1    483    ccc     H4  12895 0.10146700   1.008000   ; qtot 255.224362
12896         h2    483    ccc     H5  12896 0.10960400   1.008000   ; qtot 255.333966
12897         os    483    ccc     O1  12897 -0.28650000  16.000000   ; qtot 255.047466
12898         oh    483    ccc     O2  12898 -0.86012500  16.000000   ; qtot 254.187341
12899         oh    483    ccc     O3  12899 -0.83772800  16.000000   ; qtot 253.349613
12900         oh    483    ccc     O4  12900 -0.77449700  16.000000   ; qtot 252.575116
12901         c3    483    ccc     C6  12901 0.37576500  12.010000   ; qtot 252.950881
12902         ho    483    ccc     H6  12902 0.53656000   1.008000   ; qtot 253.487441
12903         ho    483    ccc     H7  12903 0.49492100   1.008000   ; qtot 253.982362
12904         ho    483    ccc     H8  12904 0.51297200   1.008000   ; qtot 254.495334
12905         h1    483    ccc     H9  12905 0.05653400   1.008000   ; qtot 254.551868
12906         h1    483    ccc    H10  12906 0.05653400   1.008000   ; qtot 254.608402
12907         oh    483    ccc     O5  12907 -0.84113600  16.000000   ; qtot 253.767266
12908         ho    483    ccc    H11  12908 0.51201600   1.008000   ; qtot 254.279282
12909         os    483    ccc     O6  12909 -0.26013600  16.000000   ; qtot 254.019146
; residue  484 ccc rtp ccc q 0.0
12910         c3    484    ccc     C1  12910 -0.33178800  12.010000   ; qtot 253.687358
12911         c3    484    ccc     C2  12911 0.30606500  12.010000   ; qtot 253.993423
12912         h1    484    ccc     H1  12912 0.11662300   1.008000   ; qtot 254.110046
12913         h1    484    ccc     H2  12913 0.11526800   1.008000   ; qtot 254.225314
12914         c3    484    ccc     C3  12914 0.15592700  12.010000   ; qtot 254.381241
12915         c3    484    ccc     C4  12915 0.28383300  12.010000   ; qtot 254.665074
12916         c3    484    ccc     C5  12916 0.32403300  12.010000   ; qtot 254.989107
12917         h1    484    ccc     H3  12917 0.13386900   1.008000   ; qtot 255.122976
12918         h1    484    ccc     H4  12918 0.10146700   1.008000   ; qtot 255.224443
12919         h2    484    ccc     H5  12919 0.10960400   1.008000   ; qtot 255.334047
12920         os    484    ccc     O1  12920 -0.28650000  16.000000   ; qtot 255.047547
12921         oh    484    ccc     O2  12921 -0.86012500  16.000000   ; qtot 254.187422
12922         oh    484    ccc     O3  12922 -0.83772800  16.000000   ; qtot 253.349694
12923         oh    484    ccc     O4  12923 -0.77449700  16.000000   ; qtot 252.575197
12924         c3    484    ccc     C6  12924 0.37576500  12.010000   ; qtot 252.950962
12925         ho    484    ccc     H6  12925 0.53656000   1.008000   ; qtot 253.487522
12926         ho    484    ccc     H7  12926 0.49492100   1.008000   ; qtot 253.982443
12927         ho    484    ccc     H8  12927 0.51297200   1.008000   ; qtot 254.495415
12928         h1    484    ccc     H9  12928 0.05653400   1.008000   ; qtot 254.551949
12929         h1    484    ccc    H10  12929 0.05653400   1.008000   ; qtot 254.608483
12930         oh    484    ccc     O5  12930 -0.84113600  16.000000   ; qtot 253.767347
12931         ho    484    ccc    H11  12931 0.51201600   1.008000   ; qtot 254.279363
12932         os    484    ccc     O6  12932 -0.26013600  16.000000   ; qtot 254.019227
; residue  485 ccc rtp ccc q 0.0
12933         c3    485    ccc     C1  12933 -0.33178800  12.010000   ; qtot 253.687439
12934         c3    485    ccc     C2  12934 0.30606500  12.010000   ; qtot 253.993504
12935         h1    485    ccc     H1  12935 0.11662300   1.008000   ; qtot 254.110127
12936         h1    485    ccc     H2  12936 0.11526800   1.008000   ; qtot 254.225395
12937         c3    485    ccc     C3  12937 0.15592700  12.010000   ; qtot 254.381322
12938         c3    485    ccc     C4  12938 0.28383300  12.010000   ; qtot 254.665155
12939         c3    485    ccc     C5  12939 0.32403300  12.010000   ; qtot 254.989188
12940         h1    485    ccc     H3  12940 0.13386900   1.008000   ; qtot 255.123057
12941         h1    485    ccc     H4  12941 0.10146700   1.008000   ; qtot 255.224524
12942         h2    485    ccc     H5  12942 0.10960400   1.008000   ; qtot 255.334128
12943         os    485    ccc     O1  12943 -0.28650000  16.000000   ; qtot 255.047628
12944         oh    485    ccc     O2  12944 -0.86012500  16.000000   ; qtot 254.187503
12945         oh    485    ccc     O3  12945 -0.83772800  16.000000   ; qtot 253.349775
12946         oh    485    ccc     O4  12946 -0.77449700  16.000000   ; qtot 252.575278
12947         c3    485    ccc     C6  12947 0.37576500  12.010000   ; qtot 252.951043
12948         ho    485    ccc     H6  12948 0.53656000   1.008000   ; qtot 253.487603
12949         ho    485    ccc     H7  12949 0.49492100   1.008000   ; qtot 253.982524
12950         ho    485    ccc     H8  12950 0.51297200   1.008000   ; qtot 254.495496
12951         h1    485    ccc     H9  12951 0.05653400   1.008000   ; qtot 254.552030
12952         h1    485    ccc    H10  12952 0.05653400   1.008000   ; qtot 254.608564
12953         oh    485    ccc     O5  12953 -0.84113600  16.000000   ; qtot 253.767428
12954         ho    485    ccc    H11  12954 0.51201600   1.008000   ; qtot 254.279444
12955         os    485    ccc     O6  12955 -0.26013600  16.000000   ; qtot 254.019308
; residue  486 ccc rtp ccc q 0.0
12956         c3    486    ccc     C1  12956 -0.33178800  12.010000   ; qtot 253.687520
12957         c3    486    ccc     C2  12957 0.30606500  12.010000   ; qtot 253.993585
12958         h1    486    ccc     H1  12958 0.11662300   1.008000   ; qtot 254.110208
12959         h1    486    ccc     H2  12959 0.11526800   1.008000   ; qtot 254.225476
12960         c3    486    ccc     C3  12960 0.15592700  12.010000   ; qtot 254.381403
12961         c3    486    ccc     C4  12961 0.28383300  12.010000   ; qtot 254.665236
12962         c3    486    ccc     C5  12962 0.32403300  12.010000   ; qtot 254.989269
12963         h1    486    ccc     H3  12963 0.13386900   1.008000   ; qtot 255.123138
12964         h1    486    ccc     H4  12964 0.10146700   1.008000   ; qtot 255.224605
12965         h2    486    ccc     H5  12965 0.10960400   1.008000   ; qtot 255.334209
12966         os    486    ccc     O1  12966 -0.28650000  16.000000   ; qtot 255.047709
12967         oh    486    ccc     O2  12967 -0.86012500  16.000000   ; qtot 254.187584
12968         oh    486    ccc     O3  12968 -0.83772800  16.000000   ; qtot 253.349856
12969         oh    486    ccc     O4  12969 -0.77449700  16.000000   ; qtot 252.575359
12970         c3    486    ccc     C6  12970 0.37576500  12.010000   ; qtot 252.951124
12971         ho    486    ccc     H6  12971 0.53656000   1.008000   ; qtot 253.487684
12972         ho    486    ccc     H7  12972 0.49492100   1.008000   ; qtot 253.982605
12973         ho    486    ccc     H8  12973 0.51297200   1.008000   ; qtot 254.495577
12974         h1    486    ccc     H9  12974 0.05653400   1.008000   ; qtot 254.552111
12975         h1    486    ccc    H10  12975 0.05653400   1.008000   ; qtot 254.608645
12976         oh    486    ccc     O5  12976 -0.84113600  16.000000   ; qtot 253.767509
12977         ho    486    ccc    H11  12977 0.51201600   1.008000   ; qtot 254.279525
12978         os    486    ccc     O6  12978 -0.26013600  16.000000   ; qtot 254.019389
; residue  487 ccc rtp ccc q 0.0
12979         c3    487    ccc     C1  12979 -0.33178800  12.010000   ; qtot 253.687601
12980         c3    487    ccc     C2  12980 0.30606500  12.010000   ; qtot 253.993666
12981         h1    487    ccc     H1  12981 0.11662300   1.008000   ; qtot 254.110289
12982         h1    487    ccc     H2  12982 0.11526800   1.008000   ; qtot 254.225557
12983         c3    487    ccc     C3  12983 0.15592700  12.010000   ; qtot 254.381484
12984         c3    487    ccc     C4  12984 0.28383300  12.010000   ; qtot 254.665317
12985         c3    487    ccc     C5  12985 0.32403300  12.010000   ; qtot 254.989350
12986         h1    487    ccc     H3  12986 0.13386900   1.008000   ; qtot 255.123219
12987         h1    487    ccc     H4  12987 0.10146700   1.008000   ; qtot 255.224686
12988         h2    487    ccc     H5  12988 0.10960400   1.008000   ; qtot 255.334290
12989         os    487    ccc     O1  12989 -0.28650000  16.000000   ; qtot 255.047790
12990         oh    487    ccc     O2  12990 -0.86012500  16.000000   ; qtot 254.187665
12991         oh    487    ccc     O3  12991 -0.83772800  16.000000   ; qtot 253.349937
12992         oh    487    ccc     O4  12992 -0.77449700  16.000000   ; qtot 252.575440
12993         c3    487    ccc     C6  12993 0.37576500  12.010000   ; qtot 252.951205
12994         ho    487    ccc     H6  12994 0.53656000   1.008000   ; qtot 253.487765
12995         ho    487    ccc     H7  12995 0.49492100   1.008000   ; qtot 253.982686
12996         ho    487    ccc     H8  12996 0.51297200   1.008000   ; qtot 254.495658
12997         h1    487    ccc     H9  12997 0.05653400   1.008000   ; qtot 254.552192
12998         h1    487    ccc    H10  12998 0.05653400   1.008000   ; qtot 254.608726
12999         oh    487    ccc     O5  12999 -0.84113600  16.000000   ; qtot 253.767590
13000         ho    487    ccc    H11  13000 0.51201600   1.008000   ; qtot 254.279606
13001         os    487    ccc     O6  13001 -0.26013600  16.000000   ; qtot 254.019470
; residue  488 ccc rtp ccc q 0.0
13002         c3    488    ccc     C1  13002 -0.33178800  12.010000   ; qtot 253.687682
13003         c3    488    ccc     C2  13003 0.30606500  12.010000   ; qtot 253.993747
13004         h1    488    ccc     H1  13004 0.11662300   1.008000   ; qtot 254.110370
13005         h1    488    ccc     H2  13005 0.11526800   1.008000   ; qtot 254.225638
13006         c3    488    ccc     C3  13006 0.15592700  12.010000   ; qtot 254.381565
13007         c3    488    ccc     C4  13007 0.28383300  12.010000   ; qtot 254.665398
13008         c3    488    ccc     C5  13008 0.32403300  12.010000   ; qtot 254.989431
13009         h1    488    ccc     H3  13009 0.13386900   1.008000   ; qtot 255.123300
13010         h1    488    ccc     H4  13010 0.10146700   1.008000   ; qtot 255.224767
13011         h2    488    ccc     H5  13011 0.10960400   1.008000   ; qtot 255.334371
13012         os    488    ccc     O1  13012 -0.28650000  16.000000   ; qtot 255.047871
13013         oh    488    ccc     O2  13013 -0.86012500  16.000000   ; qtot 254.187746
13014         oh    488    ccc     O3  13014 -0.83772800  16.000000   ; qtot 253.350018
13015         oh    488    ccc     O4  13015 -0.77449700  16.000000   ; qtot 252.575521
13016         c3    488    ccc     C6  13016 0.37576500  12.010000   ; qtot 252.951286
13017         ho    488    ccc     H6  13017 0.53656000   1.008000   ; qtot 253.487846
13018         ho    488    ccc     H7  13018 0.49492100   1.008000   ; qtot 253.982767
13019         ho    488    ccc     H8  13019 0.51297200   1.008000   ; qtot 254.495739
13020         h1    488    ccc     H9  13020 0.05653400   1.008000   ; qtot 254.552273
13021         h1    488    ccc    H10  13021 0.05653400   1.008000   ; qtot 254.608807
13022         oh    488    ccc     O5  13022 -0.84113600  16.000000   ; qtot 253.767671
13023         ho    488    ccc    H11  13023 0.51201600   1.008000   ; qtot 254.279687
13024         os    488    ccc     O6  13024 -0.26013600  16.000000   ; qtot 254.019551
; residue  489 ccc rtp ccc q 0.0
13025         c3    489    ccc     C1  13025 -0.33178800  12.010000   ; qtot 253.687763
13026         c3    489    ccc     C2  13026 0.30606500  12.010000   ; qtot 253.993828
13027         h1    489    ccc     H1  13027 0.11662300   1.008000   ; qtot 254.110451
13028         h1    489    ccc     H2  13028 0.11526800   1.008000   ; qtot 254.225719
13029         c3    489    ccc     C3  13029 0.15592700  12.010000   ; qtot 254.381646
13030         c3    489    ccc     C4  13030 0.28383300  12.010000   ; qtot 254.665479
13031         c3    489    ccc     C5  13031 0.32403300  12.010000   ; qtot 254.989512
13032         h1    489    ccc     H3  13032 0.13386900   1.008000   ; qtot 255.123381
13033         h1    489    ccc     H4  13033 0.10146700   1.008000   ; qtot 255.224848
13034         h2    489    ccc     H5  13034 0.10960400   1.008000   ; qtot 255.334452
13035         os    489    ccc     O1  13035 -0.28650000  16.000000   ; qtot 255.047952
13036         oh    489    ccc     O2  13036 -0.86012500  16.000000   ; qtot 254.187827
13037         oh    489    ccc     O3  13037 -0.83772800  16.000000   ; qtot 253.350099
13038         oh    489    ccc     O4  13038 -0.77449700  16.000000   ; qtot 252.575602
13039         c3    489    ccc     C6  13039 0.37576500  12.010000   ; qtot 252.951367
13040         ho    489    ccc     H6  13040 0.53656000   1.008000   ; qtot 253.487927
13041         ho    489    ccc     H7  13041 0.49492100   1.008000   ; qtot 253.982848
13042         ho    489    ccc     H8  13042 0.51297200   1.008000   ; qtot 254.495820
13043         h1    489    ccc     H9  13043 0.05653400   1.008000   ; qtot 254.552354
13044         h1    489    ccc    H10  13044 0.05653400   1.008000   ; qtot 254.608888
13045         oh    489    ccc     O5  13045 -0.84113600  16.000000   ; qtot 253.767752
13046         ho    489    ccc    H11  13046 0.51201600   1.008000   ; qtot 254.279768
13047         os    489    ccc     O6  13047 -0.26013600  16.000000   ; qtot 254.019632
; residue  490 ccc rtp ccc q 0.0
13048         c3    490    ccc     C1  13048 -0.33178800  12.010000   ; qtot 253.687844
13049         c3    490    ccc     C2  13049 0.30606500  12.010000   ; qtot 253.993909
13050         h1    490    ccc     H1  13050 0.11662300   1.008000   ; qtot 254.110532
13051         h1    490    ccc     H2  13051 0.11526800   1.008000   ; qtot 254.225800
13052         c3    490    ccc     C3  13052 0.15592700  12.010000   ; qtot 254.381727
13053         c3    490    ccc     C4  13053 0.28383300  12.010000   ; qtot 254.665560
13054         c3    490    ccc     C5  13054 0.32403300  12.010000   ; qtot 254.989593
13055         h1    490    ccc     H3  13055 0.13386900   1.008000   ; qtot 255.123462
13056         h1    490    ccc     H4  13056 0.10146700   1.008000   ; qtot 255.224929
13057         h2    490    ccc     H5  13057 0.10960400   1.008000   ; qtot 255.334533
13058         os    490    ccc     O1  13058 -0.28650000  16.000000   ; qtot 255.048033
13059         oh    490    ccc     O2  13059 -0.86012500  16.000000   ; qtot 254.187908
13060         oh    490    ccc     O3  13060 -0.83772800  16.000000   ; qtot 253.350180
13061         oh    490    ccc     O4  13061 -0.77449700  16.000000   ; qtot 252.575683
13062         c3    490    ccc     C6  13062 0.37576500  12.010000   ; qtot 252.951448
13063         ho    490    ccc     H6  13063 0.53656000   1.008000   ; qtot 253.488008
13064         ho    490    ccc     H7  13064 0.49492100   1.008000   ; qtot 253.982929
13065         ho    490    ccc     H8  13065 0.51297200   1.008000   ; qtot 254.495901
13066         h1    490    ccc     H9  13066 0.05653400   1.008000   ; qtot 254.552435
13067         h1    490    ccc    H10  13067 0.05653400   1.008000   ; qtot 254.608969
13068         oh    490    ccc     O5  13068 -0.84113600  16.000000   ; qtot 253.767833
13069         ho    490    ccc    H11  13069 0.51201600   1.008000   ; qtot 254.279849
13070         os    490    ccc     O6  13070 -0.26013600  16.000000   ; qtot 254.019713
; residue  491 ccc rtp ccc q 0.0
13071         c3    491    ccc     C1  13071 -0.33178800  12.010000   ; qtot 253.687925
13072         c3    491    ccc     C2  13072 0.30606500  12.010000   ; qtot 253.993990
13073         h1    491    ccc     H1  13073 0.11662300   1.008000   ; qtot 254.110613
13074         h1    491    ccc     H2  13074 0.11526800   1.008000   ; qtot 254.225881
13075         c3    491    ccc     C3  13075 0.15592700  12.010000   ; qtot 254.381808
13076         c3    491    ccc     C4  13076 0.28383300  12.010000   ; qtot 254.665641
13077         c3    491    ccc     C5  13077 0.32403300  12.010000   ; qtot 254.989674
13078         h1    491    ccc     H3  13078 0.13386900   1.008000   ; qtot 255.123543
13079         h1    491    ccc     H4  13079 0.10146700   1.008000   ; qtot 255.225010
13080         h2    491    ccc     H5  13080 0.10960400   1.008000   ; qtot 255.334614
13081         os    491    ccc     O1  13081 -0.28650000  16.000000   ; qtot 255.048114
13082         oh    491    ccc     O2  13082 -0.86012500  16.000000   ; qtot 254.187989
13083         oh    491    ccc     O3  13083 -0.83772800  16.000000   ; qtot 253.350261
13084         oh    491    ccc     O4  13084 -0.77449700  16.000000   ; qtot 252.575764
13085         c3    491    ccc     C6  13085 0.37576500  12.010000   ; qtot 252.951529
13086         ho    491    ccc     H6  13086 0.53656000   1.008000   ; qtot 253.488089
13087         ho    491    ccc     H7  13087 0.49492100   1.008000   ; qtot 253.983010
13088         ho    491    ccc     H8  13088 0.51297200   1.008000   ; qtot 254.495982
13089         h1    491    ccc     H9  13089 0.05653400   1.008000   ; qtot 254.552516
13090         h1    491    ccc    H10  13090 0.05653400   1.008000   ; qtot 254.609050
13091         oh    491    ccc     O5  13091 -0.84113600  16.000000   ; qtot 253.767914
13092         ho    491    ccc    H11  13092 0.51201600   1.008000   ; qtot 254.279930
13093         os    491    ccc     O6  13093 -0.26013600  16.000000   ; qtot 254.019794
; residue  492 ccc rtp ccc q 0.0
13094         c3    492    ccc     C1  13094 -0.33178800  12.010000   ; qtot 253.688006
13095         c3    492    ccc     C2  13095 0.30606500  12.010000   ; qtot 253.994071
13096         h1    492    ccc     H1  13096 0.11662300   1.008000   ; qtot 254.110694
13097         h1    492    ccc     H2  13097 0.11526800   1.008000   ; qtot 254.225962
13098         c3    492    ccc     C3  13098 0.15592700  12.010000   ; qtot 254.381889
13099         c3    492    ccc     C4  13099 0.28383300  12.010000   ; qtot 254.665722
13100         c3    492    ccc     C5  13100 0.32403300  12.010000   ; qtot 254.989755
13101         h1    492    ccc     H3  13101 0.13386900   1.008000   ; qtot 255.123624
13102         h1    492    ccc     H4  13102 0.10146700   1.008000   ; qtot 255.225091
13103         h2    492    ccc     H5  13103 0.10960400   1.008000   ; qtot 255.334695
13104         os    492    ccc     O1  13104 -0.28650000  16.000000   ; qtot 255.048195
13105         oh    492    ccc     O2  13105 -0.86012500  16.000000   ; qtot 254.188070
13106         oh    492    ccc     O3  13106 -0.83772800  16.000000   ; qtot 253.350342
13107         oh    492    ccc     O4  13107 -0.77449700  16.000000   ; qtot 252.575845
13108         c3    492    ccc     C6  13108 0.37576500  12.010000   ; qtot 252.951610
13109         ho    492    ccc     H6  13109 0.53656000   1.008000   ; qtot 253.488170
13110         ho    492    ccc     H7  13110 0.49492100   1.008000   ; qtot 253.983091
13111         ho    492    ccc     H8  13111 0.51297200   1.008000   ; qtot 254.496063
13112         h1    492    ccc     H9  13112 0.05653400   1.008000   ; qtot 254.552597
13113         h1    492    ccc    H10  13113 0.05653400   1.008000   ; qtot 254.609131
13114         oh    492    ccc     O5  13114 -0.84113600  16.000000   ; qtot 253.767995
13115         ho    492    ccc    H11  13115 0.51201600   1.008000   ; qtot 254.280011
13116         os    492    ccc     O6  13116 -0.26013600  16.000000   ; qtot 254.019875
; residue  493 ccc rtp ccc q 0.0
13117         c3    493    ccc     C1  13117 -0.33178800  12.010000   ; qtot 253.688087
13118         c3    493    ccc     C2  13118 0.30606500  12.010000   ; qtot 253.994152
13119         h1    493    ccc     H1  13119 0.11662300   1.008000   ; qtot 254.110775
13120         h1    493    ccc     H2  13120 0.11526800   1.008000   ; qtot 254.226043
13121         c3    493    ccc     C3  13121 0.15592700  12.010000   ; qtot 254.381970
13122         c3    493    ccc     C4  13122 0.28383300  12.010000   ; qtot 254.665803
13123         c3    493    ccc     C5  13123 0.32403300  12.010000   ; qtot 254.989836
13124         h1    493    ccc     H3  13124 0.13386900   1.008000   ; qtot 255.123705
13125         h1    493    ccc     H4  13125 0.10146700   1.008000   ; qtot 255.225172
13126         h2    493    ccc     H5  13126 0.10960400   1.008000   ; qtot 255.334776
13127         os    493    ccc     O1  13127 -0.28650000  16.000000   ; qtot 255.048276
13128         oh    493    ccc     O2  13128 -0.86012500  16.000000   ; qtot 254.188151
13129         oh    493    ccc     O3  13129 -0.83772800  16.000000   ; qtot 253.350423
13130         oh    493    ccc     O4  13130 -0.77449700  16.000000   ; qtot 252.575926
13131         c3    493    ccc     C6  13131 0.37576500  12.010000   ; qtot 252.951691
13132         ho    493    ccc     H6  13132 0.53656000   1.008000   ; qtot 253.488251
13133         ho    493    ccc     H7  13133 0.49492100   1.008000   ; qtot 253.983172
13134         ho    493    ccc     H8  13134 0.51297200   1.008000   ; qtot 254.496144
13135         h1    493    ccc     H9  13135 0.05653400   1.008000   ; qtot 254.552678
13136         h1    493    ccc    H10  13136 0.05653400   1.008000   ; qtot 254.609212
13137         oh    493    ccc     O5  13137 -0.84113600  16.000000   ; qtot 253.768076
13138         ho    493    ccc    H11  13138 0.51201600   1.008000   ; qtot 254.280092
13139         os    493    ccc     O6  13139 -0.26013600  16.000000   ; qtot 254.019956
; residue  494 ccc rtp ccc q 0.0
13140         c3    494    ccc     C1  13140 -0.33178800  12.010000   ; qtot 253.688168
13141         c3    494    ccc     C2  13141 0.30606500  12.010000   ; qtot 253.994233
13142         h1    494    ccc     H1  13142 0.11662300   1.008000   ; qtot 254.110856
13143         h1    494    ccc     H2  13143 0.11526800   1.008000   ; qtot 254.226124
13144         c3    494    ccc     C3  13144 0.15592700  12.010000   ; qtot 254.382051
13145         c3    494    ccc     C4  13145 0.28383300  12.010000   ; qtot 254.665884
13146         c3    494    ccc     C5  13146 0.32403300  12.010000   ; qtot 254.989917
13147         h1    494    ccc     H3  13147 0.13386900   1.008000   ; qtot 255.123786
13148         h1    494    ccc     H4  13148 0.10146700   1.008000   ; qtot 255.225253
13149         h2    494    ccc     H5  13149 0.10960400   1.008000   ; qtot 255.334857
13150         os    494    ccc     O1  13150 -0.28650000  16.000000   ; qtot 255.048357
13151         oh    494    ccc     O2  13151 -0.86012500  16.000000   ; qtot 254.188232
13152         oh    494    ccc     O3  13152 -0.83772800  16.000000   ; qtot 253.350504
13153         oh    494    ccc     O4  13153 -0.77449700  16.000000   ; qtot 252.576007
13154         c3    494    ccc     C6  13154 0.37576500  12.010000   ; qtot 252.951772
13155         ho    494    ccc     H6  13155 0.53656000   1.008000   ; qtot 253.488332
13156         ho    494    ccc     H7  13156 0.49492100   1.008000   ; qtot 253.983253
13157         ho    494    ccc     H8  13157 0.51297200   1.008000   ; qtot 254.496225
13158         h1    494    ccc     H9  13158 0.05653400   1.008000   ; qtot 254.552759
13159         h1    494    ccc    H10  13159 0.05653400   1.008000   ; qtot 254.609293
13160         oh    494    ccc     O5  13160 -0.84113600  16.000000   ; qtot 253.768157
13161         ho    494    ccc    H11  13161 0.51201600   1.008000   ; qtot 254.280173
13162         os    494    ccc     O6  13162 -0.26013600  16.000000   ; qtot 254.020037
; residue  495 ccc rtp ccc q 0.0
13163         c3    495    ccc     C1  13163 -0.33178800  12.010000   ; qtot 253.688249
13164         c3    495    ccc     C2  13164 0.30606500  12.010000   ; qtot 253.994314
13165         h1    495    ccc     H1  13165 0.11662300   1.008000   ; qtot 254.110937
13166         h1    495    ccc     H2  13166 0.11526800   1.008000   ; qtot 254.226205
13167         c3    495    ccc     C3  13167 0.15592700  12.010000   ; qtot 254.382132
13168         c3    495    ccc     C4  13168 0.28383300  12.010000   ; qtot 254.665965
13169         c3    495    ccc     C5  13169 0.32403300  12.010000   ; qtot 254.989998
13170         h1    495    ccc     H3  13170 0.13386900   1.008000   ; qtot 255.123867
13171         h1    495    ccc     H4  13171 0.10146700   1.008000   ; qtot 255.225334
13172         h2    495    ccc     H5  13172 0.10960400   1.008000   ; qtot 255.334938
13173         os    495    ccc     O1  13173 -0.28650000  16.000000   ; qtot 255.048438
13174         oh    495    ccc     O2  13174 -0.86012500  16.000000   ; qtot 254.188313
13175         oh    495    ccc     O3  13175 -0.83772800  16.000000   ; qtot 253.350585
13176         oh    495    ccc     O4  13176 -0.77449700  16.000000   ; qtot 252.576088
13177         c3    495    ccc     C6  13177 0.37576500  12.010000   ; qtot 252.951853
13178         ho    495    ccc     H6  13178 0.53656000   1.008000   ; qtot 253.488413
13179         ho    495    ccc     H7  13179 0.49492100   1.008000   ; qtot 253.983334
13180         ho    495    ccc     H8  13180 0.51297200   1.008000   ; qtot 254.496306
13181         h1    495    ccc     H9  13181 0.05653400   1.008000   ; qtot 254.552840
13182         h1    495    ccc    H10  13182 0.05653400   1.008000   ; qtot 254.609374
13183         oh    495    ccc     O5  13183 -0.84113600  16.000000   ; qtot 253.768238
13184         ho    495    ccc    H11  13184 0.51201600   1.008000   ; qtot 254.280254
13185         os    495    ccc     O6  13185 -0.26013600  16.000000   ; qtot 254.020118
; residue  496 ccc rtp ccc q 0.0
13186         c3    496    ccc     C1  13186 -0.33178800  12.010000   ; qtot 253.688330
13187         c3    496    ccc     C2  13187 0.30606500  12.010000   ; qtot 253.994395
13188         h1    496    ccc     H1  13188 0.11662300   1.008000   ; qtot 254.111018
13189         h1    496    ccc     H2  13189 0.11526800   1.008000   ; qtot 254.226286
13190         c3    496    ccc     C3  13190 0.15592700  12.010000   ; qtot 254.382213
13191         c3    496    ccc     C4  13191 0.28383300  12.010000   ; qtot 254.666046
13192         c3    496    ccc     C5  13192 0.32403300  12.010000   ; qtot 254.990079
13193         h1    496    ccc     H3  13193 0.13386900   1.008000   ; qtot 255.123948
13194         h1    496    ccc     H4  13194 0.10146700   1.008000   ; qtot 255.225415
13195         h2    496    ccc     H5  13195 0.10960400   1.008000   ; qtot 255.335019
13196         os    496    ccc     O1  13196 -0.28650000  16.000000   ; qtot 255.048519
13197         oh    496    ccc     O2  13197 -0.86012500  16.000000   ; qtot 254.188394
13198         oh    496    ccc     O3  13198 -0.83772800  16.000000   ; qtot 253.350666
13199         oh    496    ccc     O4  13199 -0.77449700  16.000000   ; qtot 252.576169
13200         c3    496    ccc     C6  13200 0.37576500  12.010000   ; qtot 252.951934
13201         ho    496    ccc     H6  13201 0.53656000   1.008000   ; qtot 253.488494
13202         ho    496    ccc     H7  13202 0.49492100   1.008000   ; qtot 253.983415
13203         ho    496    ccc     H8  13203 0.51297200   1.008000   ; qtot 254.496387
13204         h1    496    ccc     H9  13204 0.05653400   1.008000   ; qtot 254.552921
13205         h1    496    ccc    H10  13205 0.05653400   1.008000   ; qtot 254.609455
13206         oh    496    ccc     O5  13206 -0.84113600  16.000000   ; qtot 253.768319
13207         ho    496    ccc    H11  13207 0.51201600   1.008000   ; qtot 254.280335
13208         os    496    ccc     O6  13208 -0.26013600  16.000000   ; qtot 254.020199
; residue  497 ccc rtp ccc q 0.0
13209         c3    497    ccc     C1  13209 -0.33178800  12.010000   ; qtot 253.688411
13210         c3    497    ccc     C2  13210 0.30606500  12.010000   ; qtot 253.994476
13211         h1    497    ccc     H1  13211 0.11662300   1.008000   ; qtot 254.111099
13212         h1    497    ccc     H2  13212 0.11526800   1.008000   ; qtot 254.226367
13213         c3    497    ccc     C3  13213 0.15592700  12.010000   ; qtot 254.382294
13214         c3    497    ccc     C4  13214 0.28383300  12.010000   ; qtot 254.666127
13215         c3    497    ccc     C5  13215 0.32403300  12.010000   ; qtot 254.990160
13216         h1    497    ccc     H3  13216 0.13386900   1.008000   ; qtot 255.124029
13217         h1    497    ccc     H4  13217 0.10146700   1.008000   ; qtot 255.225496
13218         h2    497    ccc     H5  13218 0.10960400   1.008000   ; qtot 255.335100
13219         os    497    ccc     O1  13219 -0.28650000  16.000000   ; qtot 255.048600
13220         oh    497    ccc     O2  13220 -0.86012500  16.000000   ; qtot 254.188475
13221         oh    497    ccc     O3  13221 -0.83772800  16.000000   ; qtot 253.350747
13222         oh    497    ccc     O4  13222 -0.77449700  16.000000   ; qtot 252.576250
13223         c3    497    ccc     C6  13223 0.37576500  12.010000   ; qtot 252.952015
13224         ho    497    ccc     H6  13224 0.53656000   1.008000   ; qtot 253.488575
13225         ho    497    ccc     H7  13225 0.49492100   1.008000   ; qtot 253.983496
13226         ho    497    ccc     H8  13226 0.51297200   1.008000   ; qtot 254.496468
13227         h1    497    ccc     H9  13227 0.05653400   1.008000   ; qtot 254.553002
13228         h1    497    ccc    H10  13228 0.05653400   1.008000   ; qtot 254.609536
13229         oh    497    ccc     O5  13229 -0.84113600  16.000000   ; qtot 253.768400
13230         ho    497    ccc    H11  13230 0.51201600   1.008000   ; qtot 254.280416
13231         os    497    ccc     O6  13231 -0.26013600  16.000000   ; qtot 254.020280
; residue  498 ccc rtp ccc q 0.0
13232         c3    498    ccc     C1  13232 -0.33178800  12.010000   ; qtot 253.688492
13233         c3    498    ccc     C2  13233 0.30606500  12.010000   ; qtot 253.994557
13234         h1    498    ccc     H1  13234 0.11662300   1.008000   ; qtot 254.111180
13235         h1    498    ccc     H2  13235 0.11526800   1.008000   ; qtot 254.226448
13236         c3    498    ccc     C3  13236 0.15592700  12.010000   ; qtot 254.382375
13237         c3    498    ccc     C4  13237 0.28383300  12.010000   ; qtot 254.666208
13238         c3    498    ccc     C5  13238 0.32403300  12.010000   ; qtot 254.990241
13239         h1    498    ccc     H3  13239 0.13386900   1.008000   ; qtot 255.124110
13240         h1    498    ccc     H4  13240 0.10146700   1.008000   ; qtot 255.225577
13241         h2    498    ccc     H5  13241 0.10960400   1.008000   ; qtot 255.335181
13242         os    498    ccc     O1  13242 -0.28650000  16.000000   ; qtot 255.048681
13243         oh    498    ccc     O2  13243 -0.86012500  16.000000   ; qtot 254.188556
13244         oh    498    ccc     O3  13244 -0.83772800  16.000000   ; qtot 253.350828
13245         oh    498    ccc     O4  13245 -0.77449700  16.000000   ; qtot 252.576331
13246         c3    498    ccc     C6  13246 0.37576500  12.010000   ; qtot 252.952096
13247         ho    498    ccc     H6  13247 0.53656000   1.008000   ; qtot 253.488656
13248         ho    498    ccc     H7  13248 0.49492100   1.008000   ; qtot 253.983577
13249         ho    498    ccc     H8  13249 0.51297200   1.008000   ; qtot 254.496549
13250         h1    498    ccc     H9  13250 0.05653400   1.008000   ; qtot 254.553083
13251         h1    498    ccc    H10  13251 0.05653400   1.008000   ; qtot 254.609617
13252         oh    498    ccc     O5  13252 -0.84113600  16.000000   ; qtot 253.768481
13253         ho    498    ccc    H11  13253 0.51201600   1.008000   ; qtot 254.280497
13254         os    498    ccc     O6  13254 -0.26013600  16.000000   ; qtot 254.020361
; residue  499 ccc rtp ccc q 0.0
13255         c3    499    ccc     C1  13255 -0.33178800  12.010000   ; qtot 253.688573
13256         c3    499    ccc     C2  13256 0.30606500  12.010000   ; qtot 253.994638
13257         h1    499    ccc     H1  13257 0.11662300   1.008000   ; qtot 254.111261
13258         h1    499    ccc     H2  13258 0.11526800   1.008000   ; qtot 254.226529
13259         c3    499    ccc     C3  13259 0.15592700  12.010000   ; qtot 254.382456
13260         c3    499    ccc     C4  13260 0.28383300  12.010000   ; qtot 254.666289
13261         c3    499    ccc     C5  13261 0.32403300  12.010000   ; qtot 254.990322
13262         h1    499    ccc     H3  13262 0.13386900   1.008000   ; qtot 255.124191
13263         h1    499    ccc     H4  13263 0.10146700   1.008000   ; qtot 255.225658
13264         h2    499    ccc     H5  13264 0.10960400   1.008000   ; qtot 255.335262
13265         os    499    ccc     O1  13265 -0.28650000  16.000000   ; qtot 255.048762
13266         oh    499    ccc     O2  13266 -0.86012500  16.000000   ; qtot 254.188637
13267         oh    499    ccc     O3  13267 -0.83772800  16.000000   ; qtot 253.350909
13268         oh    499    ccc     O4  13268 -0.77449700  16.000000   ; qtot 252.576412
13269         c3    499    ccc     C6  13269 0.37576500  12.010000   ; qtot 252.952177
13270         ho    499    ccc     H6  13270 0.53656000   1.008000   ; qtot 253.488737
13271         ho    499    ccc     H7  13271 0.49492100   1.008000   ; qtot 253.983658
13272         ho    499    ccc     H8  13272 0.51297200   1.008000   ; qtot 254.496630
13273         h1    499    ccc     H9  13273 0.05653400   1.008000   ; qtot 254.553164
13274         h1    499    ccc    H10  13274 0.05653400   1.008000   ; qtot 254.609698
13275         oh    499    ccc     O5  13275 -0.84113600  16.000000   ; qtot 253.768562
13276         ho    499    ccc    H11  13276 0.51201600   1.008000   ; qtot 254.280578
13277         os    499    ccc     O6  13277 -0.26013600  16.000000   ; qtot 254.020442
; residue  500 ccc rtp ccc q 0.0
13278         c3    500    ccc     C1  13278 -0.33178800  12.010000   ; qtot 253.688654
13279         c3    500    ccc     C2  13279 0.30606500  12.010000   ; qtot 253.994719
13280         h1    500    ccc     H1  13280 0.11662300   1.008000   ; qtot 254.111342
13281         h1    500    ccc     H2  13281 0.11526800   1.008000   ; qtot 254.226610
13282         c3    500    ccc     C3  13282 0.15592700  12.010000   ; qtot 254.382537
13283         c3    500    ccc     C4  13283 0.28383300  12.010000   ; qtot 254.666370
13284         c3    500    ccc     C5  13284 0.32403300  12.010000   ; qtot 254.990403
13285         h1    500    ccc     H3  13285 0.13386900   1.008000   ; qtot 255.124272
13286         h1    500    ccc     H4  13286 0.10146700   1.008000   ; qtot 255.225739
13287         h2    500    ccc     H5  13287 0.10960400   1.008000   ; qtot 255.335343
13288         os    500    ccc     O1  13288 -0.28650000  16.000000   ; qtot 255.048843
13289         oh    500    ccc     O2  13289 -0.86012500  16.000000   ; qtot 254.188718
13290         oh    500    ccc     O3  13290 -0.83772800  16.000000   ; qtot 253.350990
13291         oh    500    ccc     O4  13291 -0.77449700  16.000000   ; qtot 252.576493
13292         c3    500    ccc     C6  13292 0.37576500  12.010000   ; qtot 252.952258
13293         ho    500    ccc     H6  13293 0.53656000   1.008000   ; qtot 253.488818
13294         ho    500    ccc     H7  13294 0.49492100   1.008000   ; qtot 253.983739
13295         ho    500    ccc     H8  13295 0.51297200   1.008000   ; qtot 254.496711
13296         h1    500    ccc     H9  13296 0.05653400   1.008000   ; qtot 254.553245
13297         h1    500    ccc    H10  13297 0.05653400   1.008000   ; qtot 254.609779
13298         oh    500    ccc     O5  13298 -0.84113600  16.000000   ; qtot 253.768643
13299         ho    500    ccc    H11  13299 0.51201600   1.008000   ; qtot 254.280659
13300         os    500    ccc     O6  13300 -0.26013600  16.000000   ; qtot 254.020523
; residue  501 ccc rtp ccc q 0.0
13301         c3    501    ccc     C1  13301 -0.33178800  12.010000   ; qtot 253.688735
13302         c3    501    ccc     C2  13302 0.30606500  12.010000   ; qtot 253.994800
13303         h1    501    ccc     H1  13303 0.11662300   1.008000   ; qtot 254.111423
13304         h1    501    ccc     H2  13304 0.11526800   1.008000   ; qtot 254.226691
13305         c3    501    ccc     C3  13305 0.15592700  12.010000   ; qtot 254.382618
13306         c3    501    ccc     C4  13306 0.28383300  12.010000   ; qtot 254.666451
13307         c3    501    ccc     C5  13307 0.32403300  12.010000   ; qtot 254.990484
13308         h1    501    ccc     H3  13308 0.13386900   1.008000   ; qtot 255.124353
13309         h1    501    ccc     H4  13309 0.10146700   1.008000   ; qtot 255.225820
13310         h2    501    ccc     H5  13310 0.10960400   1.008000   ; qtot 255.335424
13311         os    501    ccc     O1  13311 -0.28650000  16.000000   ; qtot 255.048924
13312         oh    501    ccc     O2  13312 -0.86012500  16.000000   ; qtot 254.188799
13313         oh    501    ccc     O3  13313 -0.83772800  16.000000   ; qtot 253.351071
13314         oh    501    ccc     O4  13314 -0.77449700  16.000000   ; qtot 252.576574
13315         c3    501    ccc     C6  13315 0.37576500  12.010000   ; qtot 252.952339
13316         ho    501    ccc     H6  13316 0.53656000   1.008000   ; qtot 253.488899
13317         ho    501    ccc     H7  13317 0.49492100   1.008000   ; qtot 253.983820
13318         ho    501    ccc     H8  13318 0.51297200   1.008000   ; qtot 254.496792
13319         h1    501    ccc     H9  13319 0.05653400   1.008000   ; qtot 254.553326
13320         h1    501    ccc    H10  13320 0.05653400   1.008000   ; qtot 254.609860
13321         oh    501    ccc     O5  13321 -0.84113600  16.000000   ; qtot 253.768724
13322         ho    501    ccc    H11  13322 0.51201600   1.008000   ; qtot 254.280740
13323         os    501    ccc     O6  13323 -0.26013600  16.000000   ; qtot 254.020604
; residue  502 ccc rtp ccc q 0.0
13324         c3    502    ccc     C1  13324 -0.33178800  12.010000   ; qtot 253.688816
13325         c3    502    ccc     C2  13325 0.30606500  12.010000   ; qtot 253.994881
13326         h1    502    ccc     H1  13326 0.11662300   1.008000   ; qtot 254.111504
13327         h1    502    ccc     H2  13327 0.11526800   1.008000   ; qtot 254.226772
13328         c3    502    ccc     C3  13328 0.15592700  12.010000   ; qtot 254.382699
13329         c3    502    ccc     C4  13329 0.28383300  12.010000   ; qtot 254.666532
13330         c3    502    ccc     C5  13330 0.32403300  12.010000   ; qtot 254.990565
13331         h1    502    ccc     H3  13331 0.13386900   1.008000   ; qtot 255.124434
13332         h1    502    ccc     H4  13332 0.10146700   1.008000   ; qtot 255.225901
13333         h2    502    ccc     H5  13333 0.10960400   1.008000   ; qtot 255.335505
13334         os    502    ccc     O1  13334 -0.28650000  16.000000   ; qtot 255.049005
13335         oh    502    ccc     O2  13335 -0.86012500  16.000000   ; qtot 254.188880
13336         oh    502    ccc     O3  13336 -0.83772800  16.000000   ; qtot 253.351152
13337         oh    502    ccc     O4  13337 -0.77449700  16.000000   ; qtot 252.576655
13338         c3    502    ccc     C6  13338 0.37576500  12.010000   ; qtot 252.952420
13339         ho    502    ccc     H6  13339 0.53656000   1.008000   ; qtot 253.488980
13340         ho    502    ccc     H7  13340 0.49492100   1.008000   ; qtot 253.983901
13341         ho    502    ccc     H8  13341 0.51297200   1.008000   ; qtot 254.496873
13342         h1    502    ccc     H9  13342 0.05653400   1.008000   ; qtot 254.553407
13343         h1    502    ccc    H10  13343 0.05653400   1.008000   ; qtot 254.609941
13344         oh    502    ccc     O5  13344 -0.84113600  16.000000   ; qtot 253.768805
13345         ho    502    ccc    H11  13345 0.51201600   1.008000   ; qtot 254.280821
13346         os    502    ccc     O6  13346 -0.26013600  16.000000   ; qtot 254.020685
; residue  503 ccc rtp ccc q 0.0
13347         c3    503    ccc     C1  13347 -0.33178800  12.010000   ; qtot 253.688897
13348         c3    503    ccc     C2  13348 0.30606500  12.010000   ; qtot 253.994962
13349         h1    503    ccc     H1  13349 0.11662300   1.008000   ; qtot 254.111585
13350         h1    503    ccc     H2  13350 0.11526800   1.008000   ; qtot 254.226853
13351         c3    503    ccc     C3  13351 0.15592700  12.010000   ; qtot 254.382780
13352         c3    503    ccc     C4  13352 0.28383300  12.010000   ; qtot 254.666613
13353         c3    503    ccc     C5  13353 0.32403300  12.010000   ; qtot 254.990646
13354         h1    503    ccc     H3  13354 0.13386900   1.008000   ; qtot 255.124515
13355         h1    503    ccc     H4  13355 0.10146700   1.008000   ; qtot 255.225982
13356         h2    503    ccc     H5  13356 0.10960400   1.008000   ; qtot 255.335586
13357         os    503    ccc     O1  13357 -0.28650000  16.000000   ; qtot 255.049086
13358         oh    503    ccc     O2  13358 -0.86012500  16.000000   ; qtot 254.188961
13359         oh    503    ccc     O3  13359 -0.83772800  16.000000   ; qtot 253.351233
13360         oh    503    ccc     O4  13360 -0.77449700  16.000000   ; qtot 252.576736
13361         c3    503    ccc     C6  13361 0.37576500  12.010000   ; qtot 252.952501
13362         ho    503    ccc     H6  13362 0.53656000   1.008000   ; qtot 253.489061
13363         ho    503    ccc     H7  13363 0.49492100   1.008000   ; qtot 253.983982
13364         ho    503    ccc     H8  13364 0.51297200   1.008000   ; qtot 254.496954
13365         h1    503    ccc     H9  13365 0.05653400   1.008000   ; qtot 254.553488
13366         h1    503    ccc    H10  13366 0.05653400   1.008000   ; qtot 254.610022
13367         oh    503    ccc     O5  13367 -0.84113600  16.000000   ; qtot 253.768886
13368         ho    503    ccc    H11  13368 0.51201600   1.008000   ; qtot 254.280902
13369         os    503    ccc     O6  13369 -0.26013600  16.000000   ; qtot 254.020766
; residue  504 ccc rtp ccc q 0.0
13370         c3    504    ccc     C1  13370 -0.33178800  12.010000   ; qtot 253.688978
13371         c3    504    ccc     C2  13371 0.30606500  12.010000   ; qtot 253.995043
13372         h1    504    ccc     H1  13372 0.11662300   1.008000   ; qtot 254.111666
13373         h1    504    ccc     H2  13373 0.11526800   1.008000   ; qtot 254.226934
13374         c3    504    ccc     C3  13374 0.15592700  12.010000   ; qtot 254.382861
13375         c3    504    ccc     C4  13375 0.28383300  12.010000   ; qtot 254.666694
13376         c3    504    ccc     C5  13376 0.32403300  12.010000   ; qtot 254.990727
13377         h1    504    ccc     H3  13377 0.13386900   1.008000   ; qtot 255.124596
13378         h1    504    ccc     H4  13378 0.10146700   1.008000   ; qtot 255.226063
13379         h2    504    ccc     H5  13379 0.10960400   1.008000   ; qtot 255.335667
13380         os    504    ccc     O1  13380 -0.28650000  16.000000   ; qtot 255.049167
13381         oh    504    ccc     O2  13381 -0.86012500  16.000000   ; qtot 254.189042
13382         oh    504    ccc     O3  13382 -0.83772800  16.000000   ; qtot 253.351314
13383         oh    504    ccc     O4  13383 -0.77449700  16.000000   ; qtot 252.576817
13384         c3    504    ccc     C6  13384 0.37576500  12.010000   ; qtot 252.952582
13385         ho    504    ccc     H6  13385 0.53656000   1.008000   ; qtot 253.489142
13386         ho    504    ccc     H7  13386 0.49492100   1.008000   ; qtot 253.984063
13387         ho    504    ccc     H8  13387 0.51297200   1.008000   ; qtot 254.497035
13388         h1    504    ccc     H9  13388 0.05653400   1.008000   ; qtot 254.553569
13389         h1    504    ccc    H10  13389 0.05653400   1.008000   ; qtot 254.610103
13390         oh    504    ccc     O5  13390 -0.84113600  16.000000   ; qtot 253.768967
13391         ho    504    ccc    H11  13391 0.51201600   1.008000   ; qtot 254.280983
13392         os    504    ccc     O6  13392 -0.26013600  16.000000   ; qtot 254.020847
; residue  505 ccc rtp ccc q 0.0
13393         c3    505    ccc     C1  13393 -0.33178800  12.010000   ; qtot 253.689059
13394         c3    505    ccc     C2  13394 0.30606500  12.010000   ; qtot 253.995124
13395         h1    505    ccc     H1  13395 0.11662300   1.008000   ; qtot 254.111747
13396         h1    505    ccc     H2  13396 0.11526800   1.008000   ; qtot 254.227015
13397         c3    505    ccc     C3  13397 0.15592700  12.010000   ; qtot 254.382942
13398         c3    505    ccc     C4  13398 0.28383300  12.010000   ; qtot 254.666775
13399         c3    505    ccc     C5  13399 0.32403300  12.010000   ; qtot 254.990808
13400         h1    505    ccc     H3  13400 0.13386900   1.008000   ; qtot 255.124677
13401         h1    505    ccc     H4  13401 0.10146700   1.008000   ; qtot 255.226144
13402         h2    505    ccc     H5  13402 0.10960400   1.008000   ; qtot 255.335748
13403         os    505    ccc     O1  13403 -0.28650000  16.000000   ; qtot 255.049248
13404         oh    505    ccc     O2  13404 -0.86012500  16.000000   ; qtot 254.189123
13405         oh    505    ccc     O3  13405 -0.83772800  16.000000   ; qtot 253.351395
13406         oh    505    ccc     O4  13406 -0.77449700  16.000000   ; qtot 252.576898
13407         c3    505    ccc     C6  13407 0.37576500  12.010000   ; qtot 252.952663
13408         ho    505    ccc     H6  13408 0.53656000   1.008000   ; qtot 253.489223
13409         ho    505    ccc     H7  13409 0.49492100   1.008000   ; qtot 253.984144
13410         ho    505    ccc     H8  13410 0.51297200   1.008000   ; qtot 254.497116
13411         h1    505    ccc     H9  13411 0.05653400   1.008000   ; qtot 254.553650
13412         h1    505    ccc    H10  13412 0.05653400   1.008000   ; qtot 254.610184
13413         oh    505    ccc     O5  13413 -0.84113600  16.000000   ; qtot 253.769048
13414         ho    505    ccc    H11  13414 0.51201600   1.008000   ; qtot 254.281064
13415         os    505    ccc     O6  13415 -0.26013600  16.000000   ; qtot 254.020928
; residue  506 ccc rtp ccc q 0.0
13416         c3    506    ccc     C1  13416 -0.33178800  12.010000   ; qtot 253.689140
13417         c3    506    ccc     C2  13417 0.30606500  12.010000   ; qtot 253.995205
13418         h1    506    ccc     H1  13418 0.11662300   1.008000   ; qtot 254.111828
13419         h1    506    ccc     H2  13419 0.11526800   1.008000   ; qtot 254.227096
13420         c3    506    ccc     C3  13420 0.15592700  12.010000   ; qtot 254.383023
13421         c3    506    ccc     C4  13421 0.28383300  12.010000   ; qtot 254.666856
13422         c3    506    ccc     C5  13422 0.32403300  12.010000   ; qtot 254.990889
13423         h1    506    ccc     H3  13423 0.13386900   1.008000   ; qtot 255.124758
13424         h1    506    ccc     H4  13424 0.10146700   1.008000   ; qtot 255.226225
13425         h2    506    ccc     H5  13425 0.10960400   1.008000   ; qtot 255.335829
13426         os    506    ccc     O1  13426 -0.28650000  16.000000   ; qtot 255.049329
13427         oh    506    ccc     O2  13427 -0.86012500  16.000000   ; qtot 254.189204
13428         oh    506    ccc     O3  13428 -0.83772800  16.000000   ; qtot 253.351476
13429         oh    506    ccc     O4  13429 -0.77449700  16.000000   ; qtot 252.576979
13430         c3    506    ccc     C6  13430 0.37576500  12.010000   ; qtot 252.952744
13431         ho    506    ccc     H6  13431 0.53656000   1.008000   ; qtot 253.489304
13432         ho    506    ccc     H7  13432 0.49492100   1.008000   ; qtot 253.984225
13433         ho    506    ccc     H8  13433 0.51297200   1.008000   ; qtot 254.497197
13434         h1    506    ccc     H9  13434 0.05653400   1.008000   ; qtot 254.553731
13435         h1    506    ccc    H10  13435 0.05653400   1.008000   ; qtot 254.610265
13436         oh    506    ccc     O5  13436 -0.84113600  16.000000   ; qtot 253.769129
13437         ho    506    ccc    H11  13437 0.51201600   1.008000   ; qtot 254.281145
13438         os    506    ccc     O6  13438 -0.26013600  16.000000   ; qtot 254.021009
; residue  507 ccc rtp ccc q 0.0
13439         c3    507    ccc     C1  13439 -0.33178800  12.010000   ; qtot 253.689221
13440         c3    507    ccc     C2  13440 0.30606500  12.010000   ; qtot 253.995286
13441         h1    507    ccc     H1  13441 0.11662300   1.008000   ; qtot 254.111909
13442         h1    507    ccc     H2  13442 0.11526800   1.008000   ; qtot 254.227177
13443         c3    507    ccc     C3  13443 0.15592700  12.010000   ; qtot 254.383104
13444         c3    507    ccc     C4  13444 0.28383300  12.010000   ; qtot 254.666937
13445         c3    507    ccc     C5  13445 0.32403300  12.010000   ; qtot 254.990970
13446         h1    507    ccc     H3  13446 0.13386900   1.008000   ; qtot 255.124839
13447         h1    507    ccc     H4  13447 0.10146700   1.008000   ; qtot 255.226306
13448         h2    507    ccc     H5  13448 0.10960400   1.008000   ; qtot 255.335910
13449         os    507    ccc     O1  13449 -0.28650000  16.000000   ; qtot 255.049410
13450         oh    507    ccc     O2  13450 -0.86012500  16.000000   ; qtot 254.189285
13451         oh    507    ccc     O3  13451 -0.83772800  16.000000   ; qtot 253.351557
13452         oh    507    ccc     O4  13452 -0.77449700  16.000000   ; qtot 252.577060
13453         c3    507    ccc     C6  13453 0.37576500  12.010000   ; qtot 252.952825
13454         ho    507    ccc     H6  13454 0.53656000   1.008000   ; qtot 253.489385
13455         ho    507    ccc     H7  13455 0.49492100   1.008000   ; qtot 253.984306
13456         ho    507    ccc     H8  13456 0.51297200   1.008000   ; qtot 254.497278
13457         h1    507    ccc     H9  13457 0.05653400   1.008000   ; qtot 254.553812
13458         h1    507    ccc    H10  13458 0.05653400   1.008000   ; qtot 254.610346
13459         oh    507    ccc     O5  13459 -0.84113600  16.000000   ; qtot 253.769210
13460         ho    507    ccc    H11  13460 0.51201600   1.008000   ; qtot 254.281226
13461         os    507    ccc     O6  13461 -0.26013600  16.000000   ; qtot 254.021090
; residue  508 ccc rtp ccc q 0.0
13462         c3    508    ccc     C1  13462 -0.33178800  12.010000   ; qtot 253.689302
13463         c3    508    ccc     C2  13463 0.30606500  12.010000   ; qtot 253.995367
13464         h1    508    ccc     H1  13464 0.11662300   1.008000   ; qtot 254.111990
13465         h1    508    ccc     H2  13465 0.11526800   1.008000   ; qtot 254.227258
13466         c3    508    ccc     C3  13466 0.15592700  12.010000   ; qtot 254.383185
13467         c3    508    ccc     C4  13467 0.28383300  12.010000   ; qtot 254.667018
13468         c3    508    ccc     C5  13468 0.32403300  12.010000   ; qtot 254.991051
13469         h1    508    ccc     H3  13469 0.13386900   1.008000   ; qtot 255.124920
13470         h1    508    ccc     H4  13470 0.10146700   1.008000   ; qtot 255.226387
13471         h2    508    ccc     H5  13471 0.10960400   1.008000   ; qtot 255.335991
13472         os    508    ccc     O1  13472 -0.28650000  16.000000   ; qtot 255.049491
13473         oh    508    ccc     O2  13473 -0.86012500  16.000000   ; qtot 254.189366
13474         oh    508    ccc     O3  13474 -0.83772800  16.000000   ; qtot 253.351638
13475         oh    508    ccc     O4  13475 -0.77449700  16.000000   ; qtot 252.577141
13476         c3    508    ccc     C6  13476 0.37576500  12.010000   ; qtot 252.952906
13477         ho    508    ccc     H6  13477 0.53656000   1.008000   ; qtot 253.489466
13478         ho    508    ccc     H7  13478 0.49492100   1.008000   ; qtot 253.984387
13479         ho    508    ccc     H8  13479 0.51297200   1.008000   ; qtot 254.497359
13480         h1    508    ccc     H9  13480 0.05653400   1.008000   ; qtot 254.553893
13481         h1    508    ccc    H10  13481 0.05653400   1.008000   ; qtot 254.610427
13482         oh    508    ccc     O5  13482 -0.84113600  16.000000   ; qtot 253.769291
13483         ho    508    ccc    H11  13483 0.51201600   1.008000   ; qtot 254.281307
13484         os    508    ccc     O6  13484 -0.26013600  16.000000   ; qtot 254.021171
; residue  509 ccc rtp ccc q 0.0
13485         c3    509    ccc     C1  13485 -0.33178800  12.010000   ; qtot 253.689383
13486         c3    509    ccc     C2  13486 0.30606500  12.010000   ; qtot 253.995448
13487         h1    509    ccc     H1  13487 0.11662300   1.008000   ; qtot 254.112071
13488         h1    509    ccc     H2  13488 0.11526800   1.008000   ; qtot 254.227339
13489         c3    509    ccc     C3  13489 0.15592700  12.010000   ; qtot 254.383266
13490         c3    509    ccc     C4  13490 0.28383300  12.010000   ; qtot 254.667099
13491         c3    509    ccc     C5  13491 0.32403300  12.010000   ; qtot 254.991132
13492         h1    509    ccc     H3  13492 0.13386900   1.008000   ; qtot 255.125001
13493         h1    509    ccc     H4  13493 0.10146700   1.008000   ; qtot 255.226468
13494         h2    509    ccc     H5  13494 0.10960400   1.008000   ; qtot 255.336072
13495         os    509    ccc     O1  13495 -0.28650000  16.000000   ; qtot 255.049572
13496         oh    509    ccc     O2  13496 -0.86012500  16.000000   ; qtot 254.189447
13497         oh    509    ccc     O3  13497 -0.83772800  16.000000   ; qtot 253.351719
13498         oh    509    ccc     O4  13498 -0.77449700  16.000000   ; qtot 252.577222
13499         c3    509    ccc     C6  13499 0.37576500  12.010000   ; qtot 252.952987
13500         ho    509    ccc     H6  13500 0.53656000   1.008000   ; qtot 253.489547
13501         ho    509    ccc     H7  13501 0.49492100   1.008000   ; qtot 253.984468
13502         ho    509    ccc     H8  13502 0.51297200   1.008000   ; qtot 254.497440
13503         h1    509    ccc     H9  13503 0.05653400   1.008000   ; qtot 254.553974
13504         h1    509    ccc    H10  13504 0.05653400   1.008000   ; qtot 254.610508
13505         oh    509    ccc     O5  13505 -0.84113600  16.000000   ; qtot 253.769372
13506         ho    509    ccc    H11  13506 0.51201600   1.008000   ; qtot 254.281388
13507         os    509    ccc     O6  13507 -0.26013600  16.000000   ; qtot 254.021252

[ bonds ]
;    ai     aj funct         c0         c1         c2         c3
      1      2     1   0.14316 258236.480000
      1      5     1   0.14316 258236.480000
      2      8     1   0.15375 251793.120000
      5     11     1   0.15375 251793.120000
      8     14     1   0.15375 251793.120000
     11     17     1   0.15375 251793.120000
     14     20     1   0.15110 237065.440000
     17     21     1   0.15110 237065.440000
     20     28     1   0.15110 237065.440000
     20     31     1   0.15110 237065.440000
     21     22     1   0.15110 237065.440000
     21     25     1   0.15110 237065.440000
     22     34     1   0.15375 251793.120000
     25     37     1   0.15375 251793.120000
     28     40     1   0.15375 251793.120000
     31     43     1   0.15375 251793.120000
     34     55     1   0.15375 251793.120000
     37     52     1   0.15375 251793.120000
     40     49     1   0.15375 251793.120000
     43     46     1   0.15375 251793.120000
     46     88     1   0.14316 258236.480000
     49    118     1   0.14316 258236.480000
     52    148     1   0.14316 258236.480000
     55    178     1   0.14316 258236.480000
     60     61     1   0.15110 237065.440000
     60     64     1   0.15110 237065.440000
     60     67     1   0.15110 237065.440000
     61     73     1   0.15375 251793.120000
     64     76     1   0.15375 251793.120000
     67     70     1   0.15375 251793.120000
     70     79     1   0.15375 251793.120000
     73     85     1   0.15375 251793.120000
     76     82     1   0.15375 251793.120000
     79     88     1   0.14316 258236.480000
     82    208     1   0.14316 258236.480000
     85    238     1   0.14316 258236.480000
     90     91     1   0.15110 237065.440000
     90     94     1   0.15110 237065.440000
     90     97     1   0.15110 237065.440000
     91    103     1   0.15375 251793.120000
     94    106     1   0.15375 251793.120000
     97    100     1   0.15375 251793.120000
    100    109     1   0.15375 251793.120000
    103    115     1   0.15375 251793.120000
    106    112     1   0.15375 251793.120000
    109    118     1   0.14316 258236.480000
    112    268     1   0.14316 258236.480000
    115    298     1   0.14316 258236.480000
    120    121     1   0.15110 237065.440000
    120    124     1   0.15110 237065.440000
    120    127     1   0.15110 237065.440000
    121    133     1   0.15375 251793.120000
    124    136     1   0.15375 251793.120000
    127    130     1   0.15375 251793.120000
    130    139     1   0.15375 251793.120000
    133    145     1   0.15375 251793.120000
    136    142     1   0.15375 251793.120000
    139    148     1   0.14316 258236.480000
    142    328     1   0.14316 258236.480000
    145    358     1   0.14316 258236.480000
    150    151     1   0.15110 237065.440000
    150    154     1   0.15110 237065.440000
    150    157     1   0.15110 237065.440000
    151    163     1   0.15375 251793.120000
    154    166     1   0.15375 251793.120000
    157    160     1   0.15375 251793.120000
    160    169     1   0.15375 251793.120000
    163    175     1   0.15375 251793.120000
    166    172     1   0.15375 251793.120000
    169    178     1   0.14316 258236.480000
    172    388     1   0.14316 258236.480000
    175    418     1   0.14316 258236.480000
    180    181     1   0.15110 237065.440000
    180    184     1   0.15110 237065.440000
    180    187     1   0.15110 237065.440000
    181    193     1   0.15375 251793.120000
    184    196     1   0.15375 251793.120000
    187    190     1   0.15375 251793.120000
    190    199     1   0.15375 251793.120000
    193    205     1   0.15375 251793.120000
    196    202     1   0.15375 251793.120000
    199    208     1   0.14316 258236.480000
    202    448     1   0.14316 258236.480000
    205    478     1   0.14316 258236.480000
    210    211     1   0.15110 237065.440000
    210    214     1   0.15110 237065.440000
    210    217     1   0.15110 237065.440000
    211    223     1   0.15375 251793.120000
    214    226     1   0.15375 251793.120000
    217    220     1   0.15375 251793.120000
    220    229     1   0.15375 251793.120000
    223    235     1   0.15375 251793.120000
    226    232     1   0.15375 251793.120000
    229    238     1   0.14316 258236.480000
    232    508     1   0.14316 258236.480000
    235    538     1   0.14316 258236.480000
    240    241     1   0.15110 237065.440000
    240    244     1   0.15110 237065.440000
    240    247     1   0.15110 237065.440000
    241    253     1   0.15375 251793.120000
    244    256     1   0.15375 251793.120000
    247    250     1   0.15375 251793.120000
    250    259     1   0.15375 251793.120000
    253    265     1   0.15375 251793.120000
    256    262     1   0.15375 251793.120000
    259    268     1   0.14316 258236.480000
    262    568     1   0.14316 258236.480000
    265    598     1   0.14316 258236.480000
    270    271     1   0.15110 237065.440000
    270    274     1   0.15110 237065.440000
    270    277     1   0.15110 237065.440000
    271    283     1   0.15375 251793.120000
    274    286     1   0.15375 251793.120000
    277    280     1   0.15375 251793.120000
    280    289     1   0.15375 251793.120000
    283    295     1   0.15375 251793.120000
    286    292     1   0.15375 251793.120000
    289    298     1   0.14316 258236.480000
    292    628     1   0.14316 258236.480000
    295    658     1   0.14316 258236.480000
    300    301     1   0.15110 237065.440000
    300    304     1   0.15110 237065.440000
    300    307     1   0.15110 237065.440000
    301    313     1   0.15375 251793.120000
    304    316     1   0.15375 251793.120000
    307    310     1   0.15375 251793.120000
    310    319     1   0.15375 251793.120000
    313    325     1   0.15375 251793.120000
    316    322     1   0.15375 251793.120000
    319    328     1   0.14316 258236.480000
    322    688     1   0.14316 258236.480000
    325    718     1   0.14316 258236.480000
    330    331     1   0.15110 237065.440000
    330    334     1   0.15110 237065.440000
    330    337     1   0.15110 237065.440000
    331    343     1   0.15375 251793.120000
    334    346     1   0.15375 251793.120000
    337    340     1   0.15375 251793.120000
    340    349     1   0.15375 251793.120000
    343    355     1   0.15375 251793.120000
    346    352     1   0.15375 251793.120000
    349    358     1   0.14316 258236.480000
    352    748     1   0.14316 258236.480000
    355    778     1   0.14316 258236.480000
    360    361     1   0.15110 237065.440000
    360    364     1   0.15110 237065.440000
    360    367     1   0.15110 237065.440000
    361    373     1   0.15375 251793.120000
    364    376     1   0.15375 251793.120000
    367    370     1   0.15375 251793.120000
    370    379     1   0.15375 251793.120000
    373    385     1   0.15375 251793.120000
    376    382     1   0.15375 251793.120000
    379    388     1   0.14316 258236.480000
    382    808     1   0.14316 258236.480000
    385    838     1   0.14316 258236.480000
    390    391     1   0.15110 237065.440000
    390    394     1   0.15110 237065.440000
    390    397     1   0.15110 237065.440000
    391    403     1   0.15375 251793.120000
    394    406     1   0.15375 251793.120000
    397    400     1   0.15375 251793.120000
    400    409     1   0.15375 251793.120000
    403    415     1   0.15375 251793.120000
    406    412     1   0.15375 251793.120000
    409    418     1   0.14316 258236.480000
    412    868     1   0.14316 258236.480000
    415    898     1   0.14316 258236.480000
    420    421     1   0.15110 237065.440000
    420    424     1   0.15110 237065.440000
    420    427     1   0.15110 237065.440000
    421    433     1   0.15375 251793.120000
    424    436     1   0.15375 251793.120000
    427    430     1   0.15375 251793.120000
    430    439     1   0.15375 251793.120000
    433    445     1   0.15375 251793.120000
    436    442     1   0.15375 251793.120000
    439    448     1   0.14316 258236.480000
    442    928     1   0.14316 258236.480000
    445    958     1   0.14316 258236.480000
    450    451     1   0.15110 237065.440000
    450    454     1   0.15110 237065.440000
    450    457     1   0.15110 237065.440000
    451    463     1   0.15375 251793.120000
    454    466     1   0.15375 251793.120000
    457    460     1   0.15375 251793.120000
    460    469     1   0.15375 251793.120000
    463    475     1   0.15375 251793.120000
    466    472     1   0.15375 251793.120000
    469    478     1   0.14316 258236.480000
    472    988     1   0.14316 258236.480000
    475   1018     1   0.14316 258236.480000
    480    481     1   0.15110 237065.440000
    480    484     1   0.15110 237065.440000
    480    487     1   0.15110 237065.440000
    481    493     1   0.15375 251793.120000
    484    496     1   0.15375 251793.120000
    487    490     1   0.15375 251793.120000
    490    499     1   0.15375 251793.120000
    493    505     1   0.15375 251793.120000
    496    502     1   0.15375 251793.120000
    499    508     1   0.14316 258236.480000
    502   1048     1   0.14316 258236.480000
    505   1078     1   0.14316 258236.480000
    510    511     1   0.15110 237065.440000
    510    514     1   0.15110 237065.440000
    510    517     1   0.15110 237065.440000
    511    523     1   0.15375 251793.120000
    514    526     1   0.15375 251793.120000
    517    520     1   0.15375 251793.120000
    520    529     1   0.15375 251793.120000
    523    535     1   0.15375 251793.120000
    526    532     1   0.15375 251793.120000
    529    538     1   0.14316 258236.480000
    532   1108     1   0.14316 258236.480000
    535   1138     1   0.14316 258236.480000
    540    541     1   0.15110 237065.440000
    540    544     1   0.15110 237065.440000
    540    547     1   0.15110 237065.440000
    541    553     1   0.15375 251793.120000
    544    556     1   0.15375 251793.120000
    547    550     1   0.15375 251793.120000
    550    559     1   0.15375 251793.120000
    553    565     1   0.15375 251793.120000
    556    562     1   0.15375 251793.120000
    559    568     1   0.14316 258236.480000
    562   1168     1   0.14316 258236.480000
    565   1198     1   0.14316 258236.480000
    570    571     1   0.15110 237065.440000
    570    574     1   0.15110 237065.440000
    570    577     1   0.15110 237065.440000
    571    583     1   0.15375 251793.120000
    574    586     1   0.15375 251793.120000
    577    580     1   0.15375 251793.120000
    580    589     1   0.15375 251793.120000
    583    595     1   0.15375 251793.120000
    586    592     1   0.15375 251793.120000
    589    598     1   0.14316 258236.480000
    592   1228     1   0.14316 258236.480000
    595   1258     1   0.14316 258236.480000
    600    601     1   0.15110 237065.440000
    600    604     1   0.15110 237065.440000
    600    607     1   0.15110 237065.440000
    601    613     1   0.15375 251793.120000
    604    616     1   0.15375 251793.120000
    607    610     1   0.15375 251793.120000
    610    619     1   0.15375 251793.120000
    613    625     1   0.15375 251793.120000
    616    622     1   0.15375 251793.120000
    619    628     1   0.14316 258236.480000
    622   1288     1   0.14316 258236.480000
    625   1318     1   0.14316 258236.480000
    630    631     1   0.15110 237065.440000
    630    634     1   0.15110 237065.440000
    630    637     1   0.15110 237065.440000
    631    643     1   0.15375 251793.120000
    634    646     1   0.15375 251793.120000
    637    640     1   0.15375 251793.120000
    640    649     1   0.15375 251793.120000
    643    655     1   0.15375 251793.120000
    646    652     1   0.15375 251793.120000
    649    658     1   0.14316 258236.480000
    652   1348     1   0.14316 258236.480000
    655   1378     1   0.14316 258236.480000
    660    661     1   0.15110 237065.440000
    660    664     1   0.15110 237065.440000
    660    667     1   0.15110 237065.440000
    661    673     1   0.15375 251793.120000
    664    676     1   0.15375 251793.120000
    667    670     1   0.15375 251793.120000
    670    679     1   0.15375 251793.120000
    673    685     1   0.15375 251793.120000
    676    682     1   0.15375 251793.120000
    679    688     1   0.14316 258236.480000
    682   1408     1   0.14316 258236.480000
    685   1438     1   0.14316 258236.480000
    690    691     1   0.15110 237065.440000
    690    694     1   0.15110 237065.440000
    690    697     1   0.15110 237065.440000
    691    703     1   0.15375 251793.120000
    694    706     1   0.15375 251793.120000
    697    700     1   0.15375 251793.120000
    700    709     1   0.15375 251793.120000
    703    715     1   0.15375 251793.120000
    706    712     1   0.15375 251793.120000
    709    718     1   0.14316 258236.480000
    712   1468     1   0.14316 258236.480000
    715   1498     1   0.14316 258236.480000
    720    721     1   0.15110 237065.440000
    720    724     1   0.15110 237065.440000
    720    727     1   0.15110 237065.440000
    721    733     1   0.15375 251793.120000
    724    736     1   0.15375 251793.120000
    727    730     1   0.15375 251793.120000
    730    739     1   0.15375 251793.120000
    733    745     1   0.15375 251793.120000
    736    742     1   0.15375 251793.120000
    739    748     1   0.14316 258236.480000
    742   1528     1   0.14316 258236.480000
    745   1558     1   0.14316 258236.480000
    750    751     1   0.15110 237065.440000
    750    754     1   0.15110 237065.440000
    750    757     1   0.15110 237065.440000
    751    763     1   0.15375 251793.120000
    754    766     1   0.15375 251793.120000
    757    760     1   0.15375 251793.120000
    760    769     1   0.15375 251793.120000
    763    775     1   0.15375 251793.120000
    766    772     1   0.15375 251793.120000
    769    778     1   0.14316 258236.480000
    772   1588     1   0.14316 258236.480000
    775   1618     1   0.14316 258236.480000
    780    781     1   0.15110 237065.440000
    780    784     1   0.15110 237065.440000
    780    787     1   0.15110 237065.440000
    781    793     1   0.15375 251793.120000
    784    796     1   0.15375 251793.120000
    787    790     1   0.15375 251793.120000
    790    799     1   0.15375 251793.120000
    793    805     1   0.15375 251793.120000
    796    802     1   0.15375 251793.120000
    799    808     1   0.14316 258236.480000
    802   1648     1   0.14316 258236.480000
    805   1678     1   0.14316 258236.480000
    810    811     1   0.15110 237065.440000
    810    814     1   0.15110 237065.440000
    810    817     1   0.15110 237065.440000
    811    823     1   0.15375 251793.120000
    814    826     1   0.15375 251793.120000
    817    820     1   0.15375 251793.120000
    820    829     1   0.15375 251793.120000
    823    835     1   0.15375 251793.120000
    826    832     1   0.15375 251793.120000
    829    838     1   0.14316 258236.480000
    832   1708     1   0.14316 258236.480000
    835   1738     1   0.14316 258236.480000
    840    841     1   0.15110 237065.440000
    840    844     1   0.15110 237065.440000
    840    847     1   0.15110 237065.440000
    841    853     1   0.15375 251793.120000
    844    856     1   0.15375 251793.120000
    847    850     1   0.15375 251793.120000
    850    859     1   0.15375 251793.120000
    853    865     1   0.15375 251793.120000
    856    862     1   0.15375 251793.120000
    859    868     1   0.14316 258236.480000
    862   1768     1   0.14316 258236.480000
    865   1798     1   0.14316 258236.480000
    870    871     1   0.15110 237065.440000
    870    874     1   0.15110 237065.440000
    870    877     1   0.15110 237065.440000
    871    883     1   0.15375 251793.120000
    874    886     1   0.15375 251793.120000
    877    880     1   0.15375 251793.120000
    880    889     1   0.15375 251793.120000
    883    895     1   0.15375 251793.120000
    886    892     1   0.15375 251793.120000
    889    898     1   0.14316 258236.480000
    892   1828     1   0.14316 258236.480000
    895   1858     1   0.14316 258236.480000
    900    901     1   0.15110 237065.440000
    900    904     1   0.15110 237065.440000
    900    907     1   0.15110 237065.440000
    901    913     1   0.15375 251793.120000
    904    916     1   0.15375 251793.120000
    907    910     1   0.15375 251793.120000
    910    919     1   0.15375 251793.120000
    913    925     1   0.15375 251793.120000
    916    922     1   0.15375 251793.120000
    919    928     1   0.14316 258236.480000
    922   1888     1   0.14316 258236.480000
    925   1918     1   0.14316 258236.480000
    930    931     1   0.15110 237065.440000
    930    934     1   0.15110 237065.440000
    930    937     1   0.15110 237065.440000
    931    943     1   0.15375 251793.120000
    934    946     1   0.15375 251793.120000
    937    940     1   0.15375 251793.120000
    940    949     1   0.15375 251793.120000
    943    955     1   0.15375 251793.120000
    946    952     1   0.15375 251793.120000
    949    958     1   0.14316 258236.480000
    952   1948     1   0.14316 258236.480000
    955   1978     1   0.14316 258236.480000
    960    961     1   0.15110 237065.440000
    960    964     1   0.15110 237065.440000
    960    967     1   0.15110 237065.440000
    961    973     1   0.15375 251793.120000
    964    976     1   0.15375 251793.120000
    967    970     1   0.15375 251793.120000
    970    979     1   0.15375 251793.120000
    973    985     1   0.15375 251793.120000
    976    982     1   0.15375 251793.120000
    979    988     1   0.14316 258236.480000
    982   2008     1   0.14316 258236.480000
    985   2038     1   0.14316 258236.480000
    990    991     1   0.15110 237065.440000
    990    994     1   0.15110 237065.440000
    990    997     1   0.15110 237065.440000
    991   1003     1   0.15375 251793.120000
    994   1006     1   0.15375 251793.120000
    997   1000     1   0.15375 251793.120000
   1000   1009     1   0.15375 251793.120000
   1003   1015     1   0.15375 251793.120000
   1006   1012     1   0.15375 251793.120000
   1009   1018     1   0.14316 258236.480000
   1012   2068     1   0.14316 258236.480000
   1015   2098     1   0.14316 258236.480000
   1020   1021     1   0.15110 237065.440000
   1020   1024     1   0.15110 237065.440000
   1020   1027     1   0.15110 237065.440000
   1021   1033     1   0.15375 251793.120000
   1024   1036     1   0.15375 251793.120000
   1027   1030     1   0.15375 251793.120000
   1030   1039     1   0.15375 251793.120000
   1033   1045     1   0.15375 251793.120000
   1036   1042     1   0.15375 251793.120000
   1039   1048     1   0.14316 258236.480000
   1042   2128     1   0.14316 258236.480000
   1045   2158     1   0.14316 258236.480000
   1050   1051     1   0.15110 237065.440000
   1050   1054     1   0.15110 237065.440000
   1050   1057     1   0.15110 237065.440000
   1051   1063     1   0.15375 251793.120000
   1054   1066     1   0.15375 251793.120000
   1057   1060     1   0.15375 251793.120000
   1060   1069     1   0.15375 251793.120000
   1063   1075     1   0.15375 251793.120000
   1066   1072     1   0.15375 251793.120000
   1069   1078     1   0.14316 258236.480000
   1072   2188     1   0.14316 258236.480000
   1075   2218     1   0.14316 258236.480000
   1080   1081     1   0.15110 237065.440000
   1080   1084     1   0.15110 237065.440000
   1080   1087     1   0.15110 237065.440000
   1081   1093     1   0.15375 251793.120000
   1084   1096     1   0.15375 251793.120000
   1087   1090     1   0.15375 251793.120000
   1090   1099     1   0.15375 251793.120000
   1093   1105     1   0.15375 251793.120000
   1096   1102     1   0.15375 251793.120000
   1099   1108     1   0.14316 258236.480000
   1102   2248     1   0.14316 258236.480000
   1105   2278     1   0.14316 258236.480000
   1110   1111     1   0.15110 237065.440000
   1110   1114     1   0.15110 237065.440000
   1110   1117     1   0.15110 237065.440000
   1111   1123     1   0.15375 251793.120000
   1114   1126     1   0.15375 251793.120000
   1117   1120     1   0.15375 251793.120000
   1120   1129     1   0.15375 251793.120000
   1123   1135     1   0.15375 251793.120000
   1126   1132     1   0.15375 251793.120000
   1129   1138     1   0.14316 258236.480000
   1132   2308     1   0.14316 258236.480000
   1135   2338     1   0.14316 258236.480000
   1140   1141     1   0.15110 237065.440000
   1140   1144     1   0.15110 237065.440000
   1140   1147     1   0.15110 237065.440000
   1141   1153     1   0.15375 251793.120000
   1144   1156     1   0.15375 251793.120000
   1147   1150     1   0.15375 251793.120000
   1150   1159     1   0.15375 251793.120000
   1153   1165     1   0.15375 251793.120000
   1156   1162     1   0.15375 251793.120000
   1159   1168     1   0.14316 258236.480000
   1162   2368     1   0.14316 258236.480000
   1165   2398     1   0.14316 258236.480000
   1170   1171     1   0.15110 237065.440000
   1170   1174     1   0.15110 237065.440000
   1170   1177     1   0.15110 237065.440000
   1171   1183     1   0.15375 251793.120000
   1174   1186     1   0.15375 251793.120000
   1177   1180     1   0.15375 251793.120000
   1180   1189     1   0.15375 251793.120000
   1183   1195     1   0.15375 251793.120000
   1186   1192     1   0.15375 251793.120000
   1189   1198     1   0.14316 258236.480000
   1192   2428     1   0.14316 258236.480000
   1195   2458     1   0.14316 258236.480000
   1200   1201     1   0.15110 237065.440000
   1200   1204     1   0.15110 237065.440000
   1200   1207     1   0.15110 237065.440000
   1201   1213     1   0.15375 251793.120000
   1204   1216     1   0.15375 251793.120000
   1207   1210     1   0.15375 251793.120000
   1210   1219     1   0.15375 251793.120000
   1213   1225     1   0.15375 251793.120000
   1216   1222     1   0.15375 251793.120000
   1219   1228     1   0.14316 258236.480000
   1222   2488     1   0.14316 258236.480000
   1225   2518     1   0.14316 258236.480000
   1230   1231     1   0.15110 237065.440000
   1230   1234     1   0.15110 237065.440000
   1230   1237     1   0.15110 237065.440000
   1231   1243     1   0.15375 251793.120000
   1234   1246     1   0.15375 251793.120000
   1237   1240     1   0.15375 251793.120000
   1240   1249     1   0.15375 251793.120000
   1243   1255     1   0.15375 251793.120000
   1246   1252     1   0.15375 251793.120000
   1249   1258     1   0.14316 258236.480000
   1252   2548     1   0.14316 258236.480000
   1255   2578     1   0.14316 258236.480000
   1260   1261     1   0.15110 237065.440000
   1260   1264     1   0.15110 237065.440000
   1260   1267     1   0.15110 237065.440000
   1261   1273     1   0.15375 251793.120000
   1264   1276     1   0.15375 251793.120000
   1267   1270     1   0.15375 251793.120000
   1270   1279     1   0.15375 251793.120000
   1273   1285     1   0.15375 251793.120000
   1276   1282     1   0.15375 251793.120000
   1279   1288     1   0.14316 258236.480000
   1282   2608     1   0.14316 258236.480000
   1285   2638     1   0.14316 258236.480000
   1290   1291     1   0.15110 237065.440000
   1290   1294     1   0.15110 237065.440000
   1290   1297     1   0.15110 237065.440000
   1291   1303     1   0.15375 251793.120000
   1294   1306     1   0.15375 251793.120000
   1297   1300     1   0.15375 251793.120000
   1300   1309     1   0.15375 251793.120000
   1303   1315     1   0.15375 251793.120000
   1306   1312     1   0.15375 251793.120000
   1309   1318     1   0.14316 258236.480000
   1312   2668     1   0.14316 258236.480000
   1315   2698     1   0.14316 258236.480000
   1320   1321     1   0.15110 237065.440000
   1320   1324     1   0.15110 237065.440000
   1320   1327     1   0.15110 237065.440000
   1321   1333     1   0.15375 251793.120000
   1324   1336     1   0.15375 251793.120000
   1327   1330     1   0.15375 251793.120000
   1330   1339     1   0.15375 251793.120000
   1333   1345     1   0.15375 251793.120000
   1336   1342     1   0.15375 251793.120000
   1339   1348     1   0.14316 258236.480000
   1342   2728     1   0.14316 258236.480000
   1345   2758     1   0.14316 258236.480000
   1350   1351     1   0.15110 237065.440000
   1350   1354     1   0.15110 237065.440000
   1350   1357     1   0.15110 237065.440000
   1351   1363     1   0.15375 251793.120000
   1354   1366     1   0.15375 251793.120000
   1357   1360     1   0.15375 251793.120000
   1360   1369     1   0.15375 251793.120000
   1363   1375     1   0.15375 251793.120000
   1366   1372     1   0.15375 251793.120000
   1369   1378     1   0.14316 258236.480000
   1372   2788     1   0.14316 258236.480000
   1375   2818     1   0.14316 258236.480000
   1380   1381     1   0.15110 237065.440000
   1380   1384     1   0.15110 237065.440000
   1380   1387     1   0.15110 237065.440000
   1381   1393     1   0.15375 251793.120000
   1384   1396     1   0.15375 251793.120000
   1387   1390     1   0.15375 251793.120000
   1390   1399     1   0.15375 251793.120000
   1393   1405     1   0.15375 251793.120000
   1396   1402     1   0.15375 251793.120000
   1399   1408     1   0.14316 258236.480000
   1402   2848     1   0.14316 258236.480000
   1405   2878     1   0.14316 258236.480000
   1410   1411     1   0.15110 237065.440000
   1410   1414     1   0.15110 237065.440000
   1410   1417     1   0.15110 237065.440000
   1411   1423     1   0.15375 251793.120000
   1414   1426     1   0.15375 251793.120000
   1417   1420     1   0.15375 251793.120000
   1420   1429     1   0.15375 251793.120000
   1423   1435     1   0.15375 251793.120000
   1426   1432     1   0.15375 251793.120000
   1429   1438     1   0.14316 258236.480000
   1432   2908     1   0.14316 258236.480000
   1435   2938     1   0.14316 258236.480000
   1440   1441     1   0.15110 237065.440000
   1440   1444     1   0.15110 237065.440000
   1440   1447     1   0.15110 237065.440000
   1441   1453     1   0.15375 251793.120000
   1444   1456     1   0.15375 251793.120000
   1447   1450     1   0.15375 251793.120000
   1450   1459     1   0.15375 251793.120000
   1453   1465     1   0.15375 251793.120000
   1456   1462     1   0.15375 251793.120000
   1459   1468     1   0.14316 258236.480000
   1462   2968     1   0.14316 258236.480000
   1465   2998     1   0.14316 258236.480000
   1470   1471     1   0.15110 237065.440000
   1470   1474     1   0.15110 237065.440000
   1470   1477     1   0.15110 237065.440000
   1471   1483     1   0.15375 251793.120000
   1474   1486     1   0.15375 251793.120000
   1477   1480     1   0.15375 251793.120000
   1480   1489     1   0.15375 251793.120000
   1483   1495     1   0.15375 251793.120000
   1486   1492     1   0.15375 251793.120000
   1489   1498     1   0.14316 258236.480000
   1492   3028     1   0.14316 258236.480000
   1495   3058     1   0.14316 258236.480000
   1500   1501     1   0.15110 237065.440000
   1500   1504     1   0.15110 237065.440000
   1500   1507     1   0.15110 237065.440000
   1501   1513     1   0.15375 251793.120000
   1504   1516     1   0.15375 251793.120000
   1507   1510     1   0.15375 251793.120000
   1510   1519     1   0.15375 251793.120000
   1513   1525     1   0.15375 251793.120000
   1516   1522     1   0.15375 251793.120000
   1519   1528     1   0.14316 258236.480000
   1522   3088     1   0.14316 258236.480000
   1525   3118     1   0.14316 258236.480000
   1530   1531     1   0.15110 237065.440000
   1530   1534     1   0.15110 237065.440000
   1530   1537     1   0.15110 237065.440000
   1531   1543     1   0.15375 251793.120000
   1534   1546     1   0.15375 251793.120000
   1537   1540     1   0.15375 251793.120000
   1540   1549     1   0.15375 251793.120000
   1543   1555     1   0.15375 251793.120000
   1546   1552     1   0.15375 251793.120000
   1549   1558     1   0.14316 258236.480000
   1552   3148     1   0.14316 258236.480000
   1555   3178     1   0.14316 258236.480000
   1560   1561     1   0.15110 237065.440000
   1560   1564     1   0.15110 237065.440000
   1560   1567     1   0.15110 237065.440000
   1561   1573     1   0.15375 251793.120000
   1564   1576     1   0.15375 251793.120000
   1567   1570     1   0.15375 251793.120000
   1570   1579     1   0.15375 251793.120000
   1573   1585     1   0.15375 251793.120000
   1576   1582     1   0.15375 251793.120000
   1579   1588     1   0.14316 258236.480000
   1582   3208     1   0.14316 258236.480000
   1585   3238     1   0.14316 258236.480000
   1590   1591     1   0.15110 237065.440000
   1590   1594     1   0.15110 237065.440000
   1590   1597     1   0.15110 237065.440000
   1591   1603     1   0.15375 251793.120000
   1594   1606     1   0.15375 251793.120000
   1597   1600     1   0.15375 251793.120000
   1600   1609     1   0.15375 251793.120000
   1603   1615     1   0.15375 251793.120000
   1606   1612     1   0.15375 251793.120000
   1609   1618     1   0.14316 258236.480000
   1612   3268     1   0.14316 258236.480000
   1615   3298     1   0.14316 258236.480000
   1620   1621     1   0.15110 237065.440000
   1620   1624     1   0.15110 237065.440000
   1620   1627     1   0.15110 237065.440000
   1621   1633     1   0.15375 251793.120000
   1624   1636     1   0.15375 251793.120000
   1627   1630     1   0.15375 251793.120000
   1630   1639     1   0.15375 251793.120000
   1633   1645     1   0.15375 251793.120000
   1636   1642     1   0.15375 251793.120000
   1639   1648     1   0.14316 258236.480000
   1642   3328     1   0.14316 258236.480000
   1645   3358     1   0.14316 258236.480000
   1650   1651     1   0.15110 237065.440000
   1650   1654     1   0.15110 237065.440000
   1650   1657     1   0.15110 237065.440000
   1651   1663     1   0.15375 251793.120000
   1654   1666     1   0.15375 251793.120000
   1657   1660     1   0.15375 251793.120000
   1660   1669     1   0.15375 251793.120000
   1663   1675     1   0.15375 251793.120000
   1666   1672     1   0.15375 251793.120000
   1669   1678     1   0.14316 258236.480000
   1672   3388     1   0.14316 258236.480000
   1675   3418     1   0.14316 258236.480000
   1680   1681     1   0.15110 237065.440000
   1680   1684     1   0.15110 237065.440000
   1680   1687     1   0.15110 237065.440000
   1681   1693     1   0.15375 251793.120000
   1684   1696     1   0.15375 251793.120000
   1687   1690     1   0.15375 251793.120000
   1690   1699     1   0.15375 251793.120000
   1693   1705     1   0.15375 251793.120000
   1696   1702     1   0.15375 251793.120000
   1699   1708     1   0.14316 258236.480000
   1702   3448     1   0.14316 258236.480000
   1705   3478     1   0.14316 258236.480000
   1710   1711     1   0.15110 237065.440000
   1710   1714     1   0.15110 237065.440000
   1710   1717     1   0.15110 237065.440000
   1711   1723     1   0.15375 251793.120000
   1714   1726     1   0.15375 251793.120000
   1717   1720     1   0.15375 251793.120000
   1720   1729     1   0.15375 251793.120000
   1723   1735     1   0.15375 251793.120000
   1726   1732     1   0.15375 251793.120000
   1729   1738     1   0.14316 258236.480000
   1732   3508     1   0.14316 258236.480000
   1735   3538     1   0.14316 258236.480000
   1740   1741     1   0.15110 237065.440000
   1740   1744     1   0.15110 237065.440000
   1740   1747     1   0.15110 237065.440000
   1741   1753     1   0.15375 251793.120000
   1744   1756     1   0.15375 251793.120000
   1747   1750     1   0.15375 251793.120000
   1750   1759     1   0.15375 251793.120000
   1753   1765     1   0.15375 251793.120000
   1756   1762     1   0.15375 251793.120000
   1759   1768     1   0.14316 258236.480000
   1762   3568     1   0.14316 258236.480000
   1765   3598     1   0.14316 258236.480000
   1770   1771     1   0.15110 237065.440000
   1770   1774     1   0.15110 237065.440000
   1770   1777     1   0.15110 237065.440000
   1771   1783     1   0.15375 251793.120000
   1774   1786     1   0.15375 251793.120000
   1777   1780     1   0.15375 251793.120000
   1780   1789     1   0.15375 251793.120000
   1783   1795     1   0.15375 251793.120000
   1786   1792     1   0.15375 251793.120000
   1789   1798     1   0.14316 258236.480000
   1792   3628     1   0.14316 258236.480000
   1795   3658     1   0.14316 258236.480000
   1800   1801     1   0.15110 237065.440000
   1800   1804     1   0.15110 237065.440000
   1800   1807     1   0.15110 237065.440000
   1801   1813     1   0.15375 251793.120000
   1804   1816     1   0.15375 251793.120000
   1807   1810     1   0.15375 251793.120000
   1810   1819     1   0.15375 251793.120000
   1813   1825     1   0.15375 251793.120000
   1816   1822     1   0.15375 251793.120000
   1819   1828     1   0.14316 258236.480000
   1822   3688     1   0.14316 258236.480000
   1825   3718     1   0.14316 258236.480000
   1830   1831     1   0.15110 237065.440000
   1830   1834     1   0.15110 237065.440000
   1830   1837     1   0.15110 237065.440000
   1831   1843     1   0.15375 251793.120000
   1834   1846     1   0.15375 251793.120000
   1837   1840     1   0.15375 251793.120000
   1840   1849     1   0.15375 251793.120000
   1843   1855     1   0.15375 251793.120000
   1846   1852     1   0.15375 251793.120000
   1849   1858     1   0.14316 258236.480000
   1852   3748     1   0.14316 258236.480000
   1855   3778     1   0.14316 258236.480000
   1860   1861     1   0.15110 237065.440000
   1860   1864     1   0.15110 237065.440000
   1860   1867     1   0.15110 237065.440000
   1861   1873     1   0.15375 251793.120000
   1864   1876     1   0.15375 251793.120000
   1867   1870     1   0.15375 251793.120000
   1870   1879     1   0.15375 251793.120000
   1873   1885     1   0.15375 251793.120000
   1876   1882     1   0.15375 251793.120000
   1879   1888     1   0.14316 258236.480000
   1882   3808     1   0.14316 258236.480000
   1885   3838     1   0.14316 258236.480000
   1890   1891     1   0.15110 237065.440000
   1890   1894     1   0.15110 237065.440000
   1890   1897     1   0.15110 237065.440000
   1891   1903     1   0.15375 251793.120000
   1894   1906     1   0.15375 251793.120000
   1897   1900     1   0.15375 251793.120000
   1900   1909     1   0.15375 251793.120000
   1903   1915     1   0.15375 251793.120000
   1906   1912     1   0.15375 251793.120000
   1909   1918     1   0.14316 258236.480000
   1912   3868     1   0.14316 258236.480000
   1915   3898     1   0.14316 258236.480000
   1920   1921     1   0.15110 237065.440000
   1920   1924     1   0.15110 237065.440000
   1920   1927     1   0.15110 237065.440000
   1921   1933     1   0.15375 251793.120000
   1924   1936     1   0.15375 251793.120000
   1927   1930     1   0.15375 251793.120000
   1930   1939     1   0.15375 251793.120000
   1933   1945     1   0.15375 251793.120000
   1936   1942     1   0.15375 251793.120000
   1939   1948     1   0.14316 258236.480000
   1942   3928     1   0.14316 258236.480000
   1945   3958     1   0.14316 258236.480000
   1950   1951     1   0.15110 237065.440000
   1950   1954     1   0.15110 237065.440000
   1950   1957     1   0.15110 237065.440000
   1951   1963     1   0.15375 251793.120000
   1954   1966     1   0.15375 251793.120000
   1957   1960     1   0.15375 251793.120000
   1960   1969     1   0.15375 251793.120000
   1963   1975     1   0.15375 251793.120000
   1966   1972     1   0.15375 251793.120000
   1969   1978     1   0.14316 258236.480000
   1972   3988     1   0.14316 258236.480000
   1975   4018     1   0.14316 258236.480000
   1980   1981     1   0.15110 237065.440000
   1980   1984     1   0.15110 237065.440000
   1980   1987     1   0.15110 237065.440000
   1981   1993     1   0.15375 251793.120000
   1984   1996     1   0.15375 251793.120000
   1987   1990     1   0.15375 251793.120000
   1990   1999     1   0.15375 251793.120000
   1993   2005     1   0.15375 251793.120000
   1996   2002     1   0.15375 251793.120000
   1999   2008     1   0.14316 258236.480000
   2002   4048     1   0.14316 258236.480000
   2005   4078     1   0.14316 258236.480000
   2010   2011     1   0.15110 237065.440000
   2010   2014     1   0.15110 237065.440000
   2010   2017     1   0.15110 237065.440000
   2011   2023     1   0.15375 251793.120000
   2014   2026     1   0.15375 251793.120000
   2017   2020     1   0.15375 251793.120000
   2020   2029     1   0.15375 251793.120000
   2023   2035     1   0.15375 251793.120000
   2026   2032     1   0.15375 251793.120000
   2029   2038     1   0.14316 258236.480000
   2032   4108     1   0.14316 258236.480000
   2035   4138     1   0.14316 258236.480000
   2040   2041     1   0.15110 237065.440000
   2040   2044     1   0.15110 237065.440000
   2040   2047     1   0.15110 237065.440000
   2041   2053     1   0.15375 251793.120000
   2044   2056     1   0.15375 251793.120000
   2047   2050     1   0.15375 251793.120000
   2050   2059     1   0.15375 251793.120000
   2053   2065     1   0.15375 251793.120000
   2056   2062     1   0.15375 251793.120000
   2059   2068     1   0.14316 258236.480000
   2062   4168     1   0.14316 258236.480000
   2065   4198     1   0.14316 258236.480000
   2070   2071     1   0.15110 237065.440000
   2070   2074     1   0.15110 237065.440000
   2070   2077     1   0.15110 237065.440000
   2071   2083     1   0.15375 251793.120000
   2074   2086     1   0.15375 251793.120000
   2077   2080     1   0.15375 251793.120000
   2080   2089     1   0.15375 251793.120000
   2083   2095     1   0.15375 251793.120000
   2086   2092     1   0.15375 251793.120000
   2089   2098     1   0.14316 258236.480000
   2092   4228     1   0.14316 258236.480000
   2095   4258     1   0.14316 258236.480000
   2100   2101     1   0.15110 237065.440000
   2100   2104     1   0.15110 237065.440000
   2100   2107     1   0.15110 237065.440000
   2101   2113     1   0.15375 251793.120000
   2104   2116     1   0.15375 251793.120000
   2107   2110     1   0.15375 251793.120000
   2110   2119     1   0.15375 251793.120000
   2113   2125     1   0.15375 251793.120000
   2116   2122     1   0.15375 251793.120000
   2119   2128     1   0.14316 258236.480000
   2122   4288     1   0.14316 258236.480000
   2125   4318     1   0.14316 258236.480000
   2130   2131     1   0.15110 237065.440000
   2130   2134     1   0.15110 237065.440000
   2130   2137     1   0.15110 237065.440000
   2131   2143     1   0.15375 251793.120000
   2134   2146     1   0.15375 251793.120000
   2137   2140     1   0.15375 251793.120000
   2140   2149     1   0.15375 251793.120000
   2143   2155     1   0.15375 251793.120000
   2146   2152     1   0.15375 251793.120000
   2149   2158     1   0.14316 258236.480000
   2152   4348     1   0.14316 258236.480000
   2155   4378     1   0.14316 258236.480000
   2160   2161     1   0.15110 237065.440000
   2160   2164     1   0.15110 237065.440000
   2160   2167     1   0.15110 237065.440000
   2161   2173     1   0.15375 251793.120000
   2164   2176     1   0.15375 251793.120000
   2167   2170     1   0.15375 251793.120000
   2170   2179     1   0.15375 251793.120000
   2173   2185     1   0.15375 251793.120000
   2176   2182     1   0.15375 251793.120000
   2179   2188     1   0.14316 258236.480000
   2182   4408     1   0.14316 258236.480000
   2185   4438     1   0.14316 258236.480000
   2190   2191     1   0.15110 237065.440000
   2190   2194     1   0.15110 237065.440000
   2190   2197     1   0.15110 237065.440000
   2191   2203     1   0.15375 251793.120000
   2194   2206     1   0.15375 251793.120000
   2197   2200     1   0.15375 251793.120000
   2200   2209     1   0.15375 251793.120000
   2203   2215     1   0.15375 251793.120000
   2206   2212     1   0.15375 251793.120000
   2209   2218     1   0.14316 258236.480000
   2212   4468     1   0.14316 258236.480000
   2215   4498     1   0.14316 258236.480000
   2220   2221     1   0.15110 237065.440000
   2220   2224     1   0.15110 237065.440000
   2220   2227     1   0.15110 237065.440000
   2221   2233     1   0.15375 251793.120000
   2224   2236     1   0.15375 251793.120000
   2227   2230     1   0.15375 251793.120000
   2230   2239     1   0.15375 251793.120000
   2233   2245     1   0.15375 251793.120000
   2236   2242     1   0.15375 251793.120000
   2239   2248     1   0.14316 258236.480000
   2242   4528     1   0.14316 258236.480000
   2245   4558     1   0.14316 258236.480000
   2250   2251     1   0.15110 237065.440000
   2250   2254     1   0.15110 237065.440000
   2250   2257     1   0.15110 237065.440000
   2251   2263     1   0.15375 251793.120000
   2254   2266     1   0.15375 251793.120000
   2257   2260     1   0.15375 251793.120000
   2260   2269     1   0.15375 251793.120000
   2263   2275     1   0.15375 251793.120000
   2266   2272     1   0.15375 251793.120000
   2269   2278     1   0.14316 258236.480000
   2272   4588     1   0.14316 258236.480000
   2275   4618     1   0.14316 258236.480000
   2280   2281     1   0.15110 237065.440000
   2280   2284     1   0.15110 237065.440000
   2280   2287     1   0.15110 237065.440000
   2281   2293     1   0.15375 251793.120000
   2284   2296     1   0.15375 251793.120000
   2287   2290     1   0.15375 251793.120000
   2290   2299     1   0.15375 251793.120000
   2293   2305     1   0.15375 251793.120000
   2296   2302     1   0.15375 251793.120000
   2299   2308     1   0.14316 258236.480000
   2302   4648     1   0.14316 258236.480000
   2305   4678     1   0.14316 258236.480000
   2310   2311     1   0.15110 237065.440000
   2310   2314     1   0.15110 237065.440000
   2310   2317     1   0.15110 237065.440000
   2311   2323     1   0.15375 251793.120000
   2314   2326     1   0.15375 251793.120000
   2317   2320     1   0.15375 251793.120000
   2320   2329     1   0.15375 251793.120000
   2323   2335     1   0.15375 251793.120000
   2326   2332     1   0.15375 251793.120000
   2329   2338     1   0.14316 258236.480000
   2332   4708     1   0.14316 258236.480000
   2335   4738     1   0.14316 258236.480000
   2340   2341     1   0.15110 237065.440000
   2340   2344     1   0.15110 237065.440000
   2340   2347     1   0.15110 237065.440000
   2341   2353     1   0.15375 251793.120000
   2344   2356     1   0.15375 251793.120000
   2347   2350     1   0.15375 251793.120000
   2350   2359     1   0.15375 251793.120000
   2353   2365     1   0.15375 251793.120000
   2356   2362     1   0.15375 251793.120000
   2359   2368     1   0.14316 258236.480000
   2362   4768     1   0.14316 258236.480000
   2365   4798     1   0.14316 258236.480000
   2370   2371     1   0.15110 237065.440000
   2370   2374     1   0.15110 237065.440000
   2370   2377     1   0.15110 237065.440000
   2371   2383     1   0.15375 251793.120000
   2374   2386     1   0.15375 251793.120000
   2377   2380     1   0.15375 251793.120000
   2380   2389     1   0.15375 251793.120000
   2383   2395     1   0.15375 251793.120000
   2386   2392     1   0.15375 251793.120000
   2389   2398     1   0.14316 258236.480000
   2392   4828     1   0.14316 258236.480000
   2395   4858     1   0.14316 258236.480000
   2400   2401     1   0.15110 237065.440000
   2400   2404     1   0.15110 237065.440000
   2400   2407     1   0.15110 237065.440000
   2401   2413     1   0.15375 251793.120000
   2404   2416     1   0.15375 251793.120000
   2407   2410     1   0.15375 251793.120000
   2410   2419     1   0.15375 251793.120000
   2413   2425     1   0.15375 251793.120000
   2416   2422     1   0.15375 251793.120000
   2419   2428     1   0.14316 258236.480000
   2422   4888     1   0.14316 258236.480000
   2425   4918     1   0.14316 258236.480000
   2430   2431     1   0.15110 237065.440000
   2430   2434     1   0.15110 237065.440000
   2430   2437     1   0.15110 237065.440000
   2431   2443     1   0.15375 251793.120000
   2434   2446     1   0.15375 251793.120000
   2437   2440     1   0.15375 251793.120000
   2440   2449     1   0.15375 251793.120000
   2443   2455     1   0.15375 251793.120000
   2446   2452     1   0.15375 251793.120000
   2449   2458     1   0.14316 258236.480000
   2452   4948     1   0.14316 258236.480000
   2455   4978     1   0.14316 258236.480000
   2460   2461     1   0.15110 237065.440000
   2460   2464     1   0.15110 237065.440000
   2460   2467     1   0.15110 237065.440000
   2461   2473     1   0.15375 251793.120000
   2464   2476     1   0.15375 251793.120000
   2467   2470     1   0.15375 251793.120000
   2470   2479     1   0.15375 251793.120000
   2473   2485     1   0.15375 251793.120000
   2476   2482     1   0.15375 251793.120000
   2479   2488     1   0.14316 258236.480000
   2482   5008     1   0.14316 258236.480000
   2485   5038     1   0.14316 258236.480000
   2490   2491     1   0.15110 237065.440000
   2490   2494     1   0.15110 237065.440000
   2490   2497     1   0.15110 237065.440000
   2491   2503     1   0.15375 251793.120000
   2494   2506     1   0.15375 251793.120000
   2497   2500     1   0.15375 251793.120000
   2500   2509     1   0.15375 251793.120000
   2503   2515     1   0.15375 251793.120000
   2506   2512     1   0.15375 251793.120000
   2509   2518     1   0.14316 258236.480000
   2512   5068     1   0.14316 258236.480000
   2515   5098     1   0.14316 258236.480000
   2520   2521     1   0.15110 237065.440000
   2520   2524     1   0.15110 237065.440000
   2520   2527     1   0.15110 237065.440000
   2521   2533     1   0.15375 251793.120000
   2524   2536     1   0.15375 251793.120000
   2527   2530     1   0.15375 251793.120000
   2530   2539     1   0.15375 251793.120000
   2533   2545     1   0.15375 251793.120000
   2536   2542     1   0.15375 251793.120000
   2539   2548     1   0.14316 258236.480000
   2542   5128     1   0.14316 258236.480000
   2545   5158     1   0.14316 258236.480000
   2550   2551     1   0.15110 237065.440000
   2550   2554     1   0.15110 237065.440000
   2550   2557     1   0.15110 237065.440000
   2551   2563     1   0.15375 251793.120000
   2554   2566     1   0.15375 251793.120000
   2557   2560     1   0.15375 251793.120000
   2560   2569     1   0.15375 251793.120000
   2563   2575     1   0.15375 251793.120000
   2566   2572     1   0.15375 251793.120000
   2569   2578     1   0.14316 258236.480000
   2572   5188     1   0.14316 258236.480000
   2575   5218     1   0.14316 258236.480000
   2580   2581     1   0.15110 237065.440000
   2580   2584     1   0.15110 237065.440000
   2580   2587     1   0.15110 237065.440000
   2581   2593     1   0.15375 251793.120000
   2584   2596     1   0.15375 251793.120000
   2587   2590     1   0.15375 251793.120000
   2590   2599     1   0.15375 251793.120000
   2593   2605     1   0.15375 251793.120000
   2596   2602     1   0.15375 251793.120000
   2599   2608     1   0.14316 258236.480000
   2602   5248     1   0.14316 258236.480000
   2605   5278     1   0.14316 258236.480000
   2610   2611     1   0.15110 237065.440000
   2610   2614     1   0.15110 237065.440000
   2610   2617     1   0.15110 237065.440000
   2611   2623     1   0.15375 251793.120000
   2614   2626     1   0.15375 251793.120000
   2617   2620     1   0.15375 251793.120000
   2620   2629     1   0.15375 251793.120000
   2623   2635     1   0.15375 251793.120000
   2626   2632     1   0.15375 251793.120000
   2629   2638     1   0.14316 258236.480000
   2632   5308     1   0.14316 258236.480000
   2635   5338     1   0.14316 258236.480000
   2640   2641     1   0.15110 237065.440000
   2640   2644     1   0.15110 237065.440000
   2640   2647     1   0.15110 237065.440000
   2641   2653     1   0.15375 251793.120000
   2644   2656     1   0.15375 251793.120000
   2647   2650     1   0.15375 251793.120000
   2650   2659     1   0.15375 251793.120000
   2653   2665     1   0.15375 251793.120000
   2656   2662     1   0.15375 251793.120000
   2659   2668     1   0.14316 258236.480000
   2662   5368     1   0.14316 258236.480000
   2665   5398     1   0.14316 258236.480000
   2670   2671     1   0.15110 237065.440000
   2670   2674     1   0.15110 237065.440000
   2670   2677     1   0.15110 237065.440000
   2671   2683     1   0.15375 251793.120000
   2674   2686     1   0.15375 251793.120000
   2677   2680     1   0.15375 251793.120000
   2680   2689     1   0.15375 251793.120000
   2683   2695     1   0.15375 251793.120000
   2686   2692     1   0.15375 251793.120000
   2689   2698     1   0.14316 258236.480000
   2692   5428     1   0.14316 258236.480000
   2695   5458     1   0.14316 258236.480000
   2700   2701     1   0.15110 237065.440000
   2700   2704     1   0.15110 237065.440000
   2700   2707     1   0.15110 237065.440000
   2701   2713     1   0.15375 251793.120000
   2704   2716     1   0.15375 251793.120000
   2707   2710     1   0.15375 251793.120000
   2710   2719     1   0.15375 251793.120000
   2713   2725     1   0.15375 251793.120000
   2716   2722     1   0.15375 251793.120000
   2719   2728     1   0.14316 258236.480000
   2722   5488     1   0.14316 258236.480000
   2725   5518     1   0.14316 258236.480000
   2730   2731     1   0.15110 237065.440000
   2730   2734     1   0.15110 237065.440000
   2730   2737     1   0.15110 237065.440000
   2731   2743     1   0.15375 251793.120000
   2734   2746     1   0.15375 251793.120000
   2737   2740     1   0.15375 251793.120000
   2740   2749     1   0.15375 251793.120000
   2743   2755     1   0.15375 251793.120000
   2746   2752     1   0.15375 251793.120000
   2749   2758     1   0.14316 258236.480000
   2752   5548     1   0.14316 258236.480000
   2755   5578     1   0.14316 258236.480000
   2760   2761     1   0.15110 237065.440000
   2760   2764     1   0.15110 237065.440000
   2760   2767     1   0.15110 237065.440000
   2761   2773     1   0.15375 251793.120000
   2764   2776     1   0.15375 251793.120000
   2767   2770     1   0.15375 251793.120000
   2770   2779     1   0.15375 251793.120000
   2773   2785     1   0.15375 251793.120000
   2776   2782     1   0.15375 251793.120000
   2779   2788     1   0.14316 258236.480000
   2782   5608     1   0.14316 258236.480000
   2785   5638     1   0.14316 258236.480000
   2790   2791     1   0.15110 237065.440000
   2790   2794     1   0.15110 237065.440000
   2790   2797     1   0.15110 237065.440000
   2791   2803     1   0.15375 251793.120000
   2794   2806     1   0.15375 251793.120000
   2797   2800     1   0.15375 251793.120000
   2800   2809     1   0.15375 251793.120000
   2803   2815     1   0.15375 251793.120000
   2806   2812     1   0.15375 251793.120000
   2809   2818     1   0.14316 258236.480000
   2812   5668     1   0.14316 258236.480000
   2815   5698     1   0.14316 258236.480000
   2820   2821     1   0.15110 237065.440000
   2820   2824     1   0.15110 237065.440000
   2820   2827     1   0.15110 237065.440000
   2821   2833     1   0.15375 251793.120000
   2824   2836     1   0.15375 251793.120000
   2827   2830     1   0.15375 251793.120000
   2830   2839     1   0.15375 251793.120000
   2833   2845     1   0.15375 251793.120000
   2836   2842     1   0.15375 251793.120000
   2839   2848     1   0.14316 258236.480000
   2842   5728     1   0.14316 258236.480000
   2845   5758     1   0.14316 258236.480000
   2850   2851     1   0.15110 237065.440000
   2850   2854     1   0.15110 237065.440000
   2850   2857     1   0.15110 237065.440000
   2851   2863     1   0.15375 251793.120000
   2854   2866     1   0.15375 251793.120000
   2857   2860     1   0.15375 251793.120000
   2860   2869     1   0.15375 251793.120000
   2863   2875     1   0.15375 251793.120000
   2866   2872     1   0.15375 251793.120000
   2869   2878     1   0.14316 258236.480000
   2872   5788     1   0.14316 258236.480000
   2875   5818     1   0.14316 258236.480000
   2880   2881     1   0.15110 237065.440000
   2880   2884     1   0.15110 237065.440000
   2880   2887     1   0.15110 237065.440000
   2881   2893     1   0.15375 251793.120000
   2884   2896     1   0.15375 251793.120000
   2887   2890     1   0.15375 251793.120000
   2890   2899     1   0.15375 251793.120000
   2893   2905     1   0.15375 251793.120000
   2896   2902     1   0.15375 251793.120000
   2899   2908     1   0.14316 258236.480000
   2902   5848     1   0.14316 258236.480000
   2905   5878     1   0.14316 258236.480000
   2910   2911     1   0.15110 237065.440000
   2910   2914     1   0.15110 237065.440000
   2910   2917     1   0.15110 237065.440000
   2911   2923     1   0.15375 251793.120000
   2914   2926     1   0.15375 251793.120000
   2917   2920     1   0.15375 251793.120000
   2920   2929     1   0.15375 251793.120000
   2923   2935     1   0.15375 251793.120000
   2926   2932     1   0.15375 251793.120000
   2929   2938     1   0.14316 258236.480000
   2932   5908     1   0.14316 258236.480000
   2935   5938     1   0.14316 258236.480000
   2940   2941     1   0.15110 237065.440000
   2940   2944     1   0.15110 237065.440000
   2940   2947     1   0.15110 237065.440000
   2941   2953     1   0.15375 251793.120000
   2944   2956     1   0.15375 251793.120000
   2947   2950     1   0.15375 251793.120000
   2950   2959     1   0.15375 251793.120000
   2953   2965     1   0.15375 251793.120000
   2956   2962     1   0.15375 251793.120000
   2959   2968     1   0.14316 258236.480000
   2962   5968     1   0.14316 258236.480000
   2965   5998     1   0.14316 258236.480000
   2970   2971     1   0.15110 237065.440000
   2970   2974     1   0.15110 237065.440000
   2970   2977     1   0.15110 237065.440000
   2971   2983     1   0.15375 251793.120000
   2974   2986     1   0.15375 251793.120000
   2977   2980     1   0.15375 251793.120000
   2980   2989     1   0.15375 251793.120000
   2983   2995     1   0.15375 251793.120000
   2986   2992     1   0.15375 251793.120000
   2989   2998     1   0.14316 258236.480000
   2992   6028     1   0.14316 258236.480000
   2995   6058     1   0.14316 258236.480000
   3000   3001     1   0.15110 237065.440000
   3000   3004     1   0.15110 237065.440000
   3000   3007     1   0.15110 237065.440000
   3001   3013     1   0.15375 251793.120000
   3004   3016     1   0.15375 251793.120000
   3007   3010     1   0.15375 251793.120000
   3010   3019     1   0.15375 251793.120000
   3013   3025     1   0.15375 251793.120000
   3016   3022     1   0.15375 251793.120000
   3019   3028     1   0.14316 258236.480000
   3022   6088     1   0.14316 258236.480000
   3025   6118     1   0.14316 258236.480000
   3030   3031     1   0.15110 237065.440000
   3030   3034     1   0.15110 237065.440000
   3030   3037     1   0.15110 237065.440000
   3031   3043     1   0.15375 251793.120000
   3034   3046     1   0.15375 251793.120000
   3037   3040     1   0.15375 251793.120000
   3040   3049     1   0.15375 251793.120000
   3043   3055     1   0.15375 251793.120000
   3046   3052     1   0.15375 251793.120000
   3049   3058     1   0.14316 258236.480000
   3052   6148     1   0.14316 258236.480000
   3055   6178     1   0.14316 258236.480000
   3060   3061     1   0.15110 237065.440000
   3060   3064     1   0.15110 237065.440000
   3060   3067     1   0.15110 237065.440000
   3061   3073     1   0.15375 251793.120000
   3064   3076     1   0.15375 251793.120000
   3067   3070     1   0.15375 251793.120000
   3070   3079     1   0.15375 251793.120000
   3073   3085     1   0.15375 251793.120000
   3076   3082     1   0.15375 251793.120000
   3079   3088     1   0.14316 258236.480000
   3082   6208     1   0.14316 258236.480000
   3085   6238     1   0.14316 258236.480000
   3090   3091     1   0.15110 237065.440000
   3090   3094     1   0.15110 237065.440000
   3090   3097     1   0.15110 237065.440000
   3091   3103     1   0.15375 251793.120000
   3094   3106     1   0.15375 251793.120000
   3097   3100     1   0.15375 251793.120000
   3100   3109     1   0.15375 251793.120000
   3103   3115     1   0.15375 251793.120000
   3106   3112     1   0.15375 251793.120000
   3109   3118     1   0.14316 258236.480000
   3112   6268     1   0.14316 258236.480000
   3115   6298     1   0.14316 258236.480000
   3120   3121     1   0.15110 237065.440000
   3120   3124     1   0.15110 237065.440000
   3120   3127     1   0.15110 237065.440000
   3121   3133     1   0.15375 251793.120000
   3124   3136     1   0.15375 251793.120000
   3127   3130     1   0.15375 251793.120000
   3130   3139     1   0.15375 251793.120000
   3133   3145     1   0.15375 251793.120000
   3136   3142     1   0.15375 251793.120000
   3139   3148     1   0.14316 258236.480000
   3142   6328     1   0.14316 258236.480000
   3145   6358     1   0.14316 258236.480000
   3150   3151     1   0.15110 237065.440000
   3150   3154     1   0.15110 237065.440000
   3150   3157     1   0.15110 237065.440000
   3151   3163     1   0.15375 251793.120000
   3154   3166     1   0.15375 251793.120000
   3157   3160     1   0.15375 251793.120000
   3160   3169     1   0.15375 251793.120000
   3163   3175     1   0.15375 251793.120000
   3166   3172     1   0.15375 251793.120000
   3169   3178     1   0.14316 258236.480000
   3172   6388     1   0.14316 258236.480000
   3175   6418     1   0.14316 258236.480000
   3180   3181     1   0.15110 237065.440000
   3180   3184     1   0.15110 237065.440000
   3180   3187     1   0.15110 237065.440000
   3181   3193     1   0.15375 251793.120000
   3184   3196     1   0.15375 251793.120000
   3187   3190     1   0.15375 251793.120000
   3190   3199     1   0.15375 251793.120000
   3193   3205     1   0.15375 251793.120000
   3196   3202     1   0.15375 251793.120000
   3199   3208     1   0.14316 258236.480000
   3202   6448     1   0.14316 258236.480000
   3205   6478     1   0.14316 258236.480000
   3210   3211     1   0.15110 237065.440000
   3210   3214     1   0.15110 237065.440000
   3210   3217     1   0.15110 237065.440000
   3211   3223     1   0.15375 251793.120000
   3214   3226     1   0.15375 251793.120000
   3217   3220     1   0.15375 251793.120000
   3220   3229     1   0.15375 251793.120000
   3223   3235     1   0.15375 251793.120000
   3226   3232     1   0.15375 251793.120000
   3229   3238     1   0.14316 258236.480000
   3232   6508     1   0.14316 258236.480000
   3235   6538     1   0.14316 258236.480000
   3240   3241     1   0.15110 237065.440000
   3240   3244     1   0.15110 237065.440000
   3240   3247     1   0.15110 237065.440000
   3241   3253     1   0.15375 251793.120000
   3244   3256     1   0.15375 251793.120000
   3247   3250     1   0.15375 251793.120000
   3250   3259     1   0.15375 251793.120000
   3253   3265     1   0.15375 251793.120000
   3256   3262     1   0.15375 251793.120000
   3259   3268     1   0.14316 258236.480000
   3262   6568     1   0.14316 258236.480000
   3265   6598     1   0.14316 258236.480000
   3270   3271     1   0.15110 237065.440000
   3270   3274     1   0.15110 237065.440000
   3270   3277     1   0.15110 237065.440000
   3271   3283     1   0.15375 251793.120000
   3274   3286     1   0.15375 251793.120000
   3277   3280     1   0.15375 251793.120000
   3280   3289     1   0.15375 251793.120000
   3283   3295     1   0.15375 251793.120000
   3286   3292     1   0.15375 251793.120000
   3289   3298     1   0.14316 258236.480000
   3292   6628     1   0.14316 258236.480000
   3295   6658     1   0.14316 258236.480000
   3300   3301     1   0.15110 237065.440000
   3300   3304     1   0.15110 237065.440000
   3300   3307     1   0.15110 237065.440000
   3301   3313     1   0.15375 251793.120000
   3304   3316     1   0.15375 251793.120000
   3307   3310     1   0.15375 251793.120000
   3310   3319     1   0.15375 251793.120000
   3313   3325     1   0.15375 251793.120000
   3316   3322     1   0.15375 251793.120000
   3319   3328     1   0.14316 258236.480000
   3322   6688     1   0.14316 258236.480000
   3325   6718     1   0.14316 258236.480000
   3330   3331     1   0.15110 237065.440000
   3330   3334     1   0.15110 237065.440000
   3330   3337     1   0.15110 237065.440000
   3331   3343     1   0.15375 251793.120000
   3334   3346     1   0.15375 251793.120000
   3337   3340     1   0.15375 251793.120000
   3340   3349     1   0.15375 251793.120000
   3343   3355     1   0.15375 251793.120000
   3346   3352     1   0.15375 251793.120000
   3349   3358     1   0.14316 258236.480000
   3352   6748     1   0.14316 258236.480000
   3355   6778     1   0.14316 258236.480000
   3360   3361     1   0.15110 237065.440000
   3360   3364     1   0.15110 237065.440000
   3360   3367     1   0.15110 237065.440000
   3361   3373     1   0.15375 251793.120000
   3364   3376     1   0.15375 251793.120000
   3367   3370     1   0.15375 251793.120000
   3370   3379     1   0.15375 251793.120000
   3373   3385     1   0.15375 251793.120000
   3376   3382     1   0.15375 251793.120000
   3379   3388     1   0.14316 258236.480000
   3382   6808     1   0.14316 258236.480000
   3385   6838     1   0.14316 258236.480000
   3390   3391     1   0.15110 237065.440000
   3390   3394     1   0.15110 237065.440000
   3390   3397     1   0.15110 237065.440000
   3391   3403     1   0.15375 251793.120000
   3394   3406     1   0.15375 251793.120000
   3397   3400     1   0.15375 251793.120000
   3400   3409     1   0.15375 251793.120000
   3403   3415     1   0.15375 251793.120000
   3406   3412     1   0.15375 251793.120000
   3409   3418     1   0.14316 258236.480000
   3412   6868     1   0.14316 258236.480000
   3415   6898     1   0.14316 258236.480000
   3420   3421     1   0.15110 237065.440000
   3420   3424     1   0.15110 237065.440000
   3420   3427     1   0.15110 237065.440000
   3421   3433     1   0.15375 251793.120000
   3424   3436     1   0.15375 251793.120000
   3427   3430     1   0.15375 251793.120000
   3430   3439     1   0.15375 251793.120000
   3433   3445     1   0.15375 251793.120000
   3436   3442     1   0.15375 251793.120000
   3439   3448     1   0.14316 258236.480000
   3442   6928     1   0.14316 258236.480000
   3445   6958     1   0.14316 258236.480000
   3450   3451     1   0.15110 237065.440000
   3450   3454     1   0.15110 237065.440000
   3450   3457     1   0.15110 237065.440000
   3451   3463     1   0.15375 251793.120000
   3454   3466     1   0.15375 251793.120000
   3457   3460     1   0.15375 251793.120000
   3460   3469     1   0.15375 251793.120000
   3463   3475     1   0.15375 251793.120000
   3466   3472     1   0.15375 251793.120000
   3469   3478     1   0.14316 258236.480000
   3472   6988     1   0.14316 258236.480000
   3475   7018     1   0.14316 258236.480000
   3480   3481     1   0.15110 237065.440000
   3480   3484     1   0.15110 237065.440000
   3480   3487     1   0.15110 237065.440000
   3481   3493     1   0.15375 251793.120000
   3484   3496     1   0.15375 251793.120000
   3487   3490     1   0.15375 251793.120000
   3490   3499     1   0.15375 251793.120000
   3493   3505     1   0.15375 251793.120000
   3496   3502     1   0.15375 251793.120000
   3499   3508     1   0.14316 258236.480000
   3502   7048     1   0.14316 258236.480000
   3505   7078     1   0.14316 258236.480000
   3510   3511     1   0.15110 237065.440000
   3510   3514     1   0.15110 237065.440000
   3510   3517     1   0.15110 237065.440000
   3511   3523     1   0.15375 251793.120000
   3514   3526     1   0.15375 251793.120000
   3517   3520     1   0.15375 251793.120000
   3520   3529     1   0.15375 251793.120000
   3523   3535     1   0.15375 251793.120000
   3526   3532     1   0.15375 251793.120000
   3529   3538     1   0.14316 258236.480000
   3532   7108     1   0.14316 258236.480000
   3535   7138     1   0.14316 258236.480000
   3540   3541     1   0.15110 237065.440000
   3540   3544     1   0.15110 237065.440000
   3540   3547     1   0.15110 237065.440000
   3541   3553     1   0.15375 251793.120000
   3544   3556     1   0.15375 251793.120000
   3547   3550     1   0.15375 251793.120000
   3550   3559     1   0.15375 251793.120000
   3553   3565     1   0.15375 251793.120000
   3556   3562     1   0.15375 251793.120000
   3559   3568     1   0.14316 258236.480000
   3562   7168     1   0.14316 258236.480000
   3565   7198     1   0.14316 258236.480000
   3570   3571     1   0.15110 237065.440000
   3570   3574     1   0.15110 237065.440000
   3570   3577     1   0.15110 237065.440000
   3571   3583     1   0.15375 251793.120000
   3574   3586     1   0.15375 251793.120000
   3577   3580     1   0.15375 251793.120000
   3580   3589     1   0.15375 251793.120000
   3583   3595     1   0.15375 251793.120000
   3586   3592     1   0.15375 251793.120000
   3589   3598     1   0.14316 258236.480000
   3592   7228     1   0.14316 258236.480000
   3595   7258     1   0.14316 258236.480000
   3600   3601     1   0.15110 237065.440000
   3600   3604     1   0.15110 237065.440000
   3600   3607     1   0.15110 237065.440000
   3601   3613     1   0.15375 251793.120000
   3604   3616     1   0.15375 251793.120000
   3607   3610     1   0.15375 251793.120000
   3610   3619     1   0.15375 251793.120000
   3613   3625     1   0.15375 251793.120000
   3616   3622     1   0.15375 251793.120000
   3619   3628     1   0.14316 258236.480000
   3622   7288     1   0.14316 258236.480000
   3625   7318     1   0.14316 258236.480000
   3630   3631     1   0.15110 237065.440000
   3630   3634     1   0.15110 237065.440000
   3630   3637     1   0.15110 237065.440000
   3631   3643     1   0.15375 251793.120000
   3634   3646     1   0.15375 251793.120000
   3637   3640     1   0.15375 251793.120000
   3640   3649     1   0.15375 251793.120000
   3643   3655     1   0.15375 251793.120000
   3646   3652     1   0.15375 251793.120000
   3649   3658     1   0.14316 258236.480000
   3652   7348     1   0.14316 258236.480000
   3655   7378     1   0.14316 258236.480000
   3660   3661     1   0.15110 237065.440000
   3660   3664     1   0.15110 237065.440000
   3660   3667     1   0.15110 237065.440000
   3661   3673     1   0.15375 251793.120000
   3664   3676     1   0.15375 251793.120000
   3667   3670     1   0.15375 251793.120000
   3670   3679     1   0.15375 251793.120000
   3673   3685     1   0.15375 251793.120000
   3676   3682     1   0.15375 251793.120000
   3679   3688     1   0.14316 258236.480000
   3682   7408     1   0.14316 258236.480000
   3685   7438     1   0.14316 258236.480000
   3690   3691     1   0.15110 237065.440000
   3690   3694     1   0.15110 237065.440000
   3690   3697     1   0.15110 237065.440000
   3691   3703     1   0.15375 251793.120000
   3694   3706     1   0.15375 251793.120000
   3697   3700     1   0.15375 251793.120000
   3700   3709     1   0.15375 251793.120000
   3703   3715     1   0.15375 251793.120000
   3706   3712     1   0.15375 251793.120000
   3709   3718     1   0.14316 258236.480000
   3712   7468     1   0.14316 258236.480000
   3715   7498     1   0.14316 258236.480000
   3720   3721     1   0.15110 237065.440000
   3720   3724     1   0.15110 237065.440000
   3720   3727     1   0.15110 237065.440000
   3721   3733     1   0.15375 251793.120000
   3724   3736     1   0.15375 251793.120000
   3727   3730     1   0.15375 251793.120000
   3730   3739     1   0.15375 251793.120000
   3733   3745     1   0.15375 251793.120000
   3736   3742     1   0.15375 251793.120000
   3739   3748     1   0.14316 258236.480000
   3742   7528     1   0.14316 258236.480000
   3745   7558     1   0.14316 258236.480000
   3750   3751     1   0.15110 237065.440000
   3750   3754     1   0.15110 237065.440000
   3750   3757     1   0.15110 237065.440000
   3751   3763     1   0.15375 251793.120000
   3754   3766     1   0.15375 251793.120000
   3757   3760     1   0.15375 251793.120000
   3760   3769     1   0.15375 251793.120000
   3763   3775     1   0.15375 251793.120000
   3766   3772     1   0.15375 251793.120000
   3769   3778     1   0.14316 258236.480000
   3772   7588     1   0.14316 258236.480000
   3775   7618     1   0.14316 258236.480000
   3780   3781     1   0.15110 237065.440000
   3780   3784     1   0.15110 237065.440000
   3780   3787     1   0.15110 237065.440000
   3781   3793     1   0.15375 251793.120000
   3784   3796     1   0.15375 251793.120000
   3787   3790     1   0.15375 251793.120000
   3790   3799     1   0.15375 251793.120000
   3793   3805     1   0.15375 251793.120000
   3796   3802     1   0.15375 251793.120000
   3799   3808     1   0.14316 258236.480000
   3802   7630     1   0.14316 258236.480000
   3805   7653     1   0.14316 258236.480000
   3810   3811     1   0.15110 237065.440000
   3810   3814     1   0.15110 237065.440000
   3810   3817     1   0.15110 237065.440000
   3811   3823     1   0.15375 251793.120000
   3814   3826     1   0.15375 251793.120000
   3817   3820     1   0.15375 251793.120000
   3820   3829     1   0.15375 251793.120000
   3823   3835     1   0.15375 251793.120000
   3826   3832     1   0.15375 251793.120000
   3829   3838     1   0.14316 258236.480000
   3832   7676     1   0.14316 258236.480000
   3835   7699     1   0.14316 258236.480000
   3840   3841     1   0.15110 237065.440000
   3840   3844     1   0.15110 237065.440000
   3840   3847     1   0.15110 237065.440000
   3841   3853     1   0.15375 251793.120000
   3844   3856     1   0.15375 251793.120000
   3847   3850     1   0.15375 251793.120000
   3850   3859     1   0.15375 251793.120000
   3853   3865     1   0.15375 251793.120000
   3856   3862     1   0.15375 251793.120000
   3859   3868     1   0.14316 258236.480000
   3862   7722     1   0.14316 258236.480000
   3865   7745     1   0.14316 258236.480000
   3870   3871     1   0.15110 237065.440000
   3870   3874     1   0.15110 237065.440000
   3870   3877     1   0.15110 237065.440000
   3871   3883     1   0.15375 251793.120000
   3874   3886     1   0.15375 251793.120000
   3877   3880     1   0.15375 251793.120000
   3880   3889     1   0.15375 251793.120000
   3883   3895     1   0.15375 251793.120000
   3886   3892     1   0.15375 251793.120000
   3889   3898     1   0.14316 258236.480000
   3892   7768     1   0.14316 258236.480000
   3895   7791     1   0.14316 258236.480000
   3900   3901     1   0.15110 237065.440000
   3900   3904     1   0.15110 237065.440000
   3900   3907     1   0.15110 237065.440000
   3901   3913     1   0.15375 251793.120000
   3904   3916     1   0.15375 251793.120000
   3907   3910     1   0.15375 251793.120000
   3910   3919     1   0.15375 251793.120000
   3913   3925     1   0.15375 251793.120000
   3916   3922     1   0.15375 251793.120000
   3919   3928     1   0.14316 258236.480000
   3922   7814     1   0.14316 258236.480000
   3925   7837     1   0.14316 258236.480000
   3930   3931     1   0.15110 237065.440000
   3930   3934     1   0.15110 237065.440000
   3930   3937     1   0.15110 237065.440000
   3931   3943     1   0.15375 251793.120000
   3934   3946     1   0.15375 251793.120000
   3937   3940     1   0.15375 251793.120000
   3940   3949     1   0.15375 251793.120000
   3943   3955     1   0.15375 251793.120000
   3946   3952     1   0.15375 251793.120000
   3949   3958     1   0.14316 258236.480000
   3952   7860     1   0.14316 258236.480000
   3955   7883     1   0.14316 258236.480000
   3960   3961     1   0.15110 237065.440000
   3960   3964     1   0.15110 237065.440000
   3960   3967     1   0.15110 237065.440000
   3961   3973     1   0.15375 251793.120000
   3964   3976     1   0.15375 251793.120000
   3967   3970     1   0.15375 251793.120000
   3970   3979     1   0.15375 251793.120000
   3973   3985     1   0.15375 251793.120000
   3976   3982     1   0.15375 251793.120000
   3979   3988     1   0.14316 258236.480000
   3982   7906     1   0.14316 258236.480000
   3985   7929     1   0.14316 258236.480000
   3990   3991     1   0.15110 237065.440000
   3990   3994     1   0.15110 237065.440000
   3990   3997     1   0.15110 237065.440000
   3991   4003     1   0.15375 251793.120000
   3994   4006     1   0.15375 251793.120000
   3997   4000     1   0.15375 251793.120000
   4000   4009     1   0.15375 251793.120000
   4003   4015     1   0.15375 251793.120000
   4006   4012     1   0.15375 251793.120000
   4009   4018     1   0.14316 258236.480000
   4012   7952     1   0.14316 258236.480000
   4015   7975     1   0.14316 258236.480000
   4020   4021     1   0.15110 237065.440000
   4020   4024     1   0.15110 237065.440000
   4020   4027     1   0.15110 237065.440000
   4021   4033     1   0.15375 251793.120000
   4024   4036     1   0.15375 251793.120000
   4027   4030     1   0.15375 251793.120000
   4030   4039     1   0.15375 251793.120000
   4033   4045     1   0.15375 251793.120000
   4036   4042     1   0.15375 251793.120000
   4039   4048     1   0.14316 258236.480000
   4042   7998     1   0.14316 258236.480000
   4045   8021     1   0.14316 258236.480000
   4050   4051     1   0.15110 237065.440000
   4050   4054     1   0.15110 237065.440000
   4050   4057     1   0.15110 237065.440000
   4051   4063     1   0.15375 251793.120000
   4054   4066     1   0.15375 251793.120000
   4057   4060     1   0.15375 251793.120000
   4060   4069     1   0.15375 251793.120000
   4063   4075     1   0.15375 251793.120000
   4066   4072     1   0.15375 251793.120000
   4069   4078     1   0.14316 258236.480000
   4072   8044     1   0.14316 258236.480000
   4075   8067     1   0.14316 258236.480000
   4080   4081     1   0.15110 237065.440000
   4080   4084     1   0.15110 237065.440000
   4080   4087     1   0.15110 237065.440000
   4081   4093     1   0.15375 251793.120000
   4084   4096     1   0.15375 251793.120000
   4087   4090     1   0.15375 251793.120000
   4090   4099     1   0.15375 251793.120000
   4093   4105     1   0.15375 251793.120000
   4096   4102     1   0.15375 251793.120000
   4099   4108     1   0.14316 258236.480000
   4102   8090     1   0.14316 258236.480000
   4105   8113     1   0.14316 258236.480000
   4110   4111     1   0.15110 237065.440000
   4110   4114     1   0.15110 237065.440000
   4110   4117     1   0.15110 237065.440000
   4111   4123     1   0.15375 251793.120000
   4114   4126     1   0.15375 251793.120000
   4117   4120     1   0.15375 251793.120000
   4120   4129     1   0.15375 251793.120000
   4123   4135     1   0.15375 251793.120000
   4126   4132     1   0.15375 251793.120000
   4129   4138     1   0.14316 258236.480000
   4132   8136     1   0.14316 258236.480000
   4135   8159     1   0.14316 258236.480000
   4140   4141     1   0.15110 237065.440000
   4140   4144     1   0.15110 237065.440000
   4140   4147     1   0.15110 237065.440000
   4141   4153     1   0.15375 251793.120000
   4144   4156     1   0.15375 251793.120000
   4147   4150     1   0.15375 251793.120000
   4150   4159     1   0.15375 251793.120000
   4153   4165     1   0.15375 251793.120000
   4156   4162     1   0.15375 251793.120000
   4159   4168     1   0.14316 258236.480000
   4162   8182     1   0.14316 258236.480000
   4165   8205     1   0.14316 258236.480000
   4170   4171     1   0.15110 237065.440000
   4170   4174     1   0.15110 237065.440000
   4170   4177     1   0.15110 237065.440000
   4171   4183     1   0.15375 251793.120000
   4174   4186     1   0.15375 251793.120000
   4177   4180     1   0.15375 251793.120000
   4180   4189     1   0.15375 251793.120000
   4183   4195     1   0.15375 251793.120000
   4186   4192     1   0.15375 251793.120000
   4189   4198     1   0.14316 258236.480000
   4192   8228     1   0.14316 258236.480000
   4195   8251     1   0.14316 258236.480000
   4200   4201     1   0.15110 237065.440000
   4200   4204     1   0.15110 237065.440000
   4200   4207     1   0.15110 237065.440000
   4201   4213     1   0.15375 251793.120000
   4204   4216     1   0.15375 251793.120000
   4207   4210     1   0.15375 251793.120000
   4210   4219     1   0.15375 251793.120000
   4213   4225     1   0.15375 251793.120000
   4216   4222     1   0.15375 251793.120000
   4219   4228     1   0.14316 258236.480000
   4222   8274     1   0.14316 258236.480000
   4225   8297     1   0.14316 258236.480000
   4230   4231     1   0.15110 237065.440000
   4230   4234     1   0.15110 237065.440000
   4230   4237     1   0.15110 237065.440000
   4231   4243     1   0.15375 251793.120000
   4234   4246     1   0.15375 251793.120000
   4237   4240     1   0.15375 251793.120000
   4240   4249     1   0.15375 251793.120000
   4243   4255     1   0.15375 251793.120000
   4246   4252     1   0.15375 251793.120000
   4249   4258     1   0.14316 258236.480000
   4252   8320     1   0.14316 258236.480000
   4255   8343     1   0.14316 258236.480000
   4260   4261     1   0.15110 237065.440000
   4260   4264     1   0.15110 237065.440000
   4260   4267     1   0.15110 237065.440000
   4261   4273     1   0.15375 251793.120000
   4264   4276     1   0.15375 251793.120000
   4267   4270     1   0.15375 251793.120000
   4270   4279     1   0.15375 251793.120000
   4273   4285     1   0.15375 251793.120000
   4276   4282     1   0.15375 251793.120000
   4279   4288     1   0.14316 258236.480000
   4282   8366     1   0.14316 258236.480000
   4285   8389     1   0.14316 258236.480000
   4290   4291     1   0.15110 237065.440000
   4290   4294     1   0.15110 237065.440000
   4290   4297     1   0.15110 237065.440000
   4291   4303     1   0.15375 251793.120000
   4294   4306     1   0.15375 251793.120000
   4297   4300     1   0.15375 251793.120000
   4300   4309     1   0.15375 251793.120000
   4303   4315     1   0.15375 251793.120000
   4306   4312     1   0.15375 251793.120000
   4309   4318     1   0.14316 258236.480000
   4312   8412     1   0.14316 258236.480000
   4315   8435     1   0.14316 258236.480000
   4320   4321     1   0.15110 237065.440000
   4320   4324     1   0.15110 237065.440000
   4320   4327     1   0.15110 237065.440000
   4321   4333     1   0.15375 251793.120000
   4324   4336     1   0.15375 251793.120000
   4327   4330     1   0.15375 251793.120000
   4330   4339     1   0.15375 251793.120000
   4333   4345     1   0.15375 251793.120000
   4336   4342     1   0.15375 251793.120000
   4339   4348     1   0.14316 258236.480000
   4342   8458     1   0.14316 258236.480000
   4345   8481     1   0.14316 258236.480000
   4350   4351     1   0.15110 237065.440000
   4350   4354     1   0.15110 237065.440000
   4350   4357     1   0.15110 237065.440000
   4351   4363     1   0.15375 251793.120000
   4354   4366     1   0.15375 251793.120000
   4357   4360     1   0.15375 251793.120000
   4360   4369     1   0.15375 251793.120000
   4363   4375     1   0.15375 251793.120000
   4366   4372     1   0.15375 251793.120000
   4369   4378     1   0.14316 258236.480000
   4372   8504     1   0.14316 258236.480000
   4375   8527     1   0.14316 258236.480000
   4380   4381     1   0.15110 237065.440000
   4380   4384     1   0.15110 237065.440000
   4380   4387     1   0.15110 237065.440000
   4381   4393     1   0.15375 251793.120000
   4384   4396     1   0.15375 251793.120000
   4387   4390     1   0.15375 251793.120000
   4390   4399     1   0.15375 251793.120000
   4393   4405     1   0.15375 251793.120000
   4396   4402     1   0.15375 251793.120000
   4399   4408     1   0.14316 258236.480000
   4402   8550     1   0.14316 258236.480000
   4405   8573     1   0.14316 258236.480000
   4410   4411     1   0.15110 237065.440000
   4410   4414     1   0.15110 237065.440000
   4410   4417     1   0.15110 237065.440000
   4411   4423     1   0.15375 251793.120000
   4414   4426     1   0.15375 251793.120000
   4417   4420     1   0.15375 251793.120000
   4420   4429     1   0.15375 251793.120000
   4423   4435     1   0.15375 251793.120000
   4426   4432     1   0.15375 251793.120000
   4429   4438     1   0.14316 258236.480000
   4432   8596     1   0.14316 258236.480000
   4435   8619     1   0.14316 258236.480000
   4440   4441     1   0.15110 237065.440000
   4440   4444     1   0.15110 237065.440000
   4440   4447     1   0.15110 237065.440000
   4441   4453     1   0.15375 251793.120000
   4444   4456     1   0.15375 251793.120000
   4447   4450     1   0.15375 251793.120000
   4450   4459     1   0.15375 251793.120000
   4453   4465     1   0.15375 251793.120000
   4456   4462     1   0.15375 251793.120000
   4459   4468     1   0.14316 258236.480000
   4462   8642     1   0.14316 258236.480000
   4465   8665     1   0.14316 258236.480000
   4470   4471     1   0.15110 237065.440000
   4470   4474     1   0.15110 237065.440000
   4470   4477     1   0.15110 237065.440000
   4471   4483     1   0.15375 251793.120000
   4474   4486     1   0.15375 251793.120000
   4477   4480     1   0.15375 251793.120000
   4480   4489     1   0.15375 251793.120000
   4483   4495     1   0.15375 251793.120000
   4486   4492     1   0.15375 251793.120000
   4489   4498     1   0.14316 258236.480000
   4492   8688     1   0.14316 258236.480000
   4495   8711     1   0.14316 258236.480000
   4500   4501     1   0.15110 237065.440000
   4500   4504     1   0.15110 237065.440000
   4500   4507     1   0.15110 237065.440000
   4501   4513     1   0.15375 251793.120000
   4504   4516     1   0.15375 251793.120000
   4507   4510     1   0.15375 251793.120000
   4510   4519     1   0.15375 251793.120000
   4513   4525     1   0.15375 251793.120000
   4516   4522     1   0.15375 251793.120000
   4519   4528     1   0.14316 258236.480000
   4522   8734     1   0.14316 258236.480000
   4525   8757     1   0.14316 258236.480000
   4530   4531     1   0.15110 237065.440000
   4530   4534     1   0.15110 237065.440000
   4530   4537     1   0.15110 237065.440000
   4531   4543     1   0.15375 251793.120000
   4534   4546     1   0.15375 251793.120000
   4537   4540     1   0.15375 251793.120000
   4540   4549     1   0.15375 251793.120000
   4543   4555     1   0.15375 251793.120000
   4546   4552     1   0.15375 251793.120000
   4549   4558     1   0.14316 258236.480000
   4552   8780     1   0.14316 258236.480000
   4555   8803     1   0.14316 258236.480000
   4560   4561     1   0.15110 237065.440000
   4560   4564     1   0.15110 237065.440000
   4560   4567     1   0.15110 237065.440000
   4561   4573     1   0.15375 251793.120000
   4564   4576     1   0.15375 251793.120000
   4567   4570     1   0.15375 251793.120000
   4570   4579     1   0.15375 251793.120000
   4573   4585     1   0.15375 251793.120000
   4576   4582     1   0.15375 251793.120000
   4579   4588     1   0.14316 258236.480000
   4582   8826     1   0.14316 258236.480000
   4585   8849     1   0.14316 258236.480000
   4590   4591     1   0.15110 237065.440000
   4590   4594     1   0.15110 237065.440000
   4590   4597     1   0.15110 237065.440000
   4591   4603     1   0.15375 251793.120000
   4594   4606     1   0.15375 251793.120000
   4597   4600     1   0.15375 251793.120000
   4600   4609     1   0.15375 251793.120000
   4603   4615     1   0.15375 251793.120000
   4606   4612     1   0.15375 251793.120000
   4609   4618     1   0.14316 258236.480000
   4612   8872     1   0.14316 258236.480000
   4615   8895     1   0.14316 258236.480000
   4620   4621     1   0.15110 237065.440000
   4620   4624     1   0.15110 237065.440000
   4620   4627     1   0.15110 237065.440000
   4621   4633     1   0.15375 251793.120000
   4624   4636     1   0.15375 251793.120000
   4627   4630     1   0.15375 251793.120000
   4630   4639     1   0.15375 251793.120000
   4633   4645     1   0.15375 251793.120000
   4636   4642     1   0.15375 251793.120000
   4639   4648     1   0.14316 258236.480000
   4642   8918     1   0.14316 258236.480000
   4645   8941     1   0.14316 258236.480000
   4650   4651     1   0.15110 237065.440000
   4650   4654     1   0.15110 237065.440000
   4650   4657     1   0.15110 237065.440000
   4651   4663     1   0.15375 251793.120000
   4654   4666     1   0.15375 251793.120000
   4657   4660     1   0.15375 251793.120000
   4660   4669     1   0.15375 251793.120000
   4663   4675     1   0.15375 251793.120000
   4666   4672     1   0.15375 251793.120000
   4669   4678     1   0.14316 258236.480000
   4672   8964     1   0.14316 258236.480000
   4675   8987     1   0.14316 258236.480000
   4680   4681     1   0.15110 237065.440000
   4680   4684     1   0.15110 237065.440000
   4680   4687     1   0.15110 237065.440000
   4681   4693     1   0.15375 251793.120000
   4684   4696     1   0.15375 251793.120000
   4687   4690     1   0.15375 251793.120000
   4690   4699     1   0.15375 251793.120000
   4693   4705     1   0.15375 251793.120000
   4696   4702     1   0.15375 251793.120000
   4699   4708     1   0.14316 258236.480000
   4702   9010     1   0.14316 258236.480000
   4705   9033     1   0.14316 258236.480000
   4710   4711     1   0.15110 237065.440000
   4710   4714     1   0.15110 237065.440000
   4710   4717     1   0.15110 237065.440000
   4711   4723     1   0.15375 251793.120000
   4714   4726     1   0.15375 251793.120000
   4717   4720     1   0.15375 251793.120000
   4720   4729     1   0.15375 251793.120000
   4723   4735     1   0.15375 251793.120000
   4726   4732     1   0.15375 251793.120000
   4729   4738     1   0.14316 258236.480000
   4732   9056     1   0.14316 258236.480000
   4735   9079     1   0.14316 258236.480000
   4740   4741     1   0.15110 237065.440000
   4740   4744     1   0.15110 237065.440000
   4740   4747     1   0.15110 237065.440000
   4741   4753     1   0.15375 251793.120000
   4744   4756     1   0.15375 251793.120000
   4747   4750     1   0.15375 251793.120000
   4750   4759     1   0.15375 251793.120000
   4753   4765     1   0.15375 251793.120000
   4756   4762     1   0.15375 251793.120000
   4759   4768     1   0.14316 258236.480000
   4762   9102     1   0.14316 258236.480000
   4765   9125     1   0.14316 258236.480000
   4770   4771     1   0.15110 237065.440000
   4770   4774     1   0.15110 237065.440000
   4770   4777     1   0.15110 237065.440000
   4771   4783     1   0.15375 251793.120000
   4774   4786     1   0.15375 251793.120000
   4777   4780     1   0.15375 251793.120000
   4780   4789     1   0.15375 251793.120000
   4783   4795     1   0.15375 251793.120000
   4786   4792     1   0.15375 251793.120000
   4789   4798     1   0.14316 258236.480000
   4792   9148     1   0.14316 258236.480000
   4795   9171     1   0.14316 258236.480000
   4800   4801     1   0.15110 237065.440000
   4800   4804     1   0.15110 237065.440000
   4800   4807     1   0.15110 237065.440000
   4801   4813     1   0.15375 251793.120000
   4804   4816     1   0.15375 251793.120000
   4807   4810     1   0.15375 251793.120000
   4810   4819     1   0.15375 251793.120000
   4813   4825     1   0.15375 251793.120000
   4816   4822     1   0.15375 251793.120000
   4819   4828     1   0.14316 258236.480000
   4822   9194     1   0.14316 258236.480000
   4825   9217     1   0.14316 258236.480000
   4830   4831     1   0.15110 237065.440000
   4830   4834     1   0.15110 237065.440000
   4830   4837     1   0.15110 237065.440000
   4831   4843     1   0.15375 251793.120000
   4834   4846     1   0.15375 251793.120000
   4837   4840     1   0.15375 251793.120000
   4840   4849     1   0.15375 251793.120000
   4843   4855     1   0.15375 251793.120000
   4846   4852     1   0.15375 251793.120000
   4849   4858     1   0.14316 258236.480000
   4852   9240     1   0.14316 258236.480000
   4855   9263     1   0.14316 258236.480000
   4860   4861     1   0.15110 237065.440000
   4860   4864     1   0.15110 237065.440000
   4860   4867     1   0.15110 237065.440000
   4861   4873     1   0.15375 251793.120000
   4864   4876     1   0.15375 251793.120000
   4867   4870     1   0.15375 251793.120000
   4870   4879     1   0.15375 251793.120000
   4873   4885     1   0.15375 251793.120000
   4876   4882     1   0.15375 251793.120000
   4879   4888     1   0.14316 258236.480000
   4882   9286     1   0.14316 258236.480000
   4885   9309     1   0.14316 258236.480000
   4890   4891     1   0.15110 237065.440000
   4890   4894     1   0.15110 237065.440000
   4890   4897     1   0.15110 237065.440000
   4891   4903     1   0.15375 251793.120000
   4894   4906     1   0.15375 251793.120000
   4897   4900     1   0.15375 251793.120000
   4900   4909     1   0.15375 251793.120000
   4903   4915     1   0.15375 251793.120000
   4906   4912     1   0.15375 251793.120000
   4909   4918     1   0.14316 258236.480000
   4912   9332     1   0.14316 258236.480000
   4915   9355     1   0.14316 258236.480000
   4920   4921     1   0.15110 237065.440000
   4920   4924     1   0.15110 237065.440000
   4920   4927     1   0.15110 237065.440000
   4921   4933     1   0.15375 251793.120000
   4924   4936     1   0.15375 251793.120000
   4927   4930     1   0.15375 251793.120000
   4930   4939     1   0.15375 251793.120000
   4933   4945     1   0.15375 251793.120000
   4936   4942     1   0.15375 251793.120000
   4939   4948     1   0.14316 258236.480000
   4942   9378     1   0.14316 258236.480000
   4945   9401     1   0.14316 258236.480000
   4950   4951     1   0.15110 237065.440000
   4950   4954     1   0.15110 237065.440000
   4950   4957     1   0.15110 237065.440000
   4951   4963     1   0.15375 251793.120000
   4954   4966     1   0.15375 251793.120000
   4957   4960     1   0.15375 251793.120000
   4960   4969     1   0.15375 251793.120000
   4963   4975     1   0.15375 251793.120000
   4966   4972     1   0.15375 251793.120000
   4969   4978     1   0.14316 258236.480000
   4972   9424     1   0.14316 258236.480000
   4975   9447     1   0.14316 258236.480000
   4980   4981     1   0.15110 237065.440000
   4980   4984     1   0.15110 237065.440000
   4980   4987     1   0.15110 237065.440000
   4981   4993     1   0.15375 251793.120000
   4984   4996     1   0.15375 251793.120000
   4987   4990     1   0.15375 251793.120000
   4990   4999     1   0.15375 251793.120000
   4993   5005     1   0.15375 251793.120000
   4996   5002     1   0.15375 251793.120000
   4999   5008     1   0.14316 258236.480000
   5002   9470     1   0.14316 258236.480000
   5005   9493     1   0.14316 258236.480000
   5010   5011     1   0.15110 237065.440000
   5010   5014     1   0.15110 237065.440000
   5010   5017     1   0.15110 237065.440000
   5011   5023     1   0.15375 251793.120000
   5014   5026     1   0.15375 251793.120000
   5017   5020     1   0.15375 251793.120000
   5020   5029     1   0.15375 251793.120000
   5023   5035     1   0.15375 251793.120000
   5026   5032     1   0.15375 251793.120000
   5029   5038     1   0.14316 258236.480000
   5032   9516     1   0.14316 258236.480000
   5035   9539     1   0.14316 258236.480000
   5040   5041     1   0.15110 237065.440000
   5040   5044     1   0.15110 237065.440000
   5040   5047     1   0.15110 237065.440000
   5041   5053     1   0.15375 251793.120000
   5044   5056     1   0.15375 251793.120000
   5047   5050     1   0.15375 251793.120000
   5050   5059     1   0.15375 251793.120000
   5053   5065     1   0.15375 251793.120000
   5056   5062     1   0.15375 251793.120000
   5059   5068     1   0.14316 258236.480000
   5062   9562     1   0.14316 258236.480000
   5065   9585     1   0.14316 258236.480000
   5070   5071     1   0.15110 237065.440000
   5070   5074     1   0.15110 237065.440000
   5070   5077     1   0.15110 237065.440000
   5071   5083     1   0.15375 251793.120000
   5074   5086     1   0.15375 251793.120000
   5077   5080     1   0.15375 251793.120000
   5080   5089     1   0.15375 251793.120000
   5083   5095     1   0.15375 251793.120000
   5086   5092     1   0.15375 251793.120000
   5089   5098     1   0.14316 258236.480000
   5092   9608     1   0.14316 258236.480000
   5095   9631     1   0.14316 258236.480000
   5100   5101     1   0.15110 237065.440000
   5100   5104     1   0.15110 237065.440000
   5100   5107     1   0.15110 237065.440000
   5101   5113     1   0.15375 251793.120000
   5104   5116     1   0.15375 251793.120000
   5107   5110     1   0.15375 251793.120000
   5110   5119     1   0.15375 251793.120000
   5113   5125     1   0.15375 251793.120000
   5116   5122     1   0.15375 251793.120000
   5119   5128     1   0.14316 258236.480000
   5122   9654     1   0.14316 258236.480000
   5125   9677     1   0.14316 258236.480000
   5130   5131     1   0.15110 237065.440000
   5130   5134     1   0.15110 237065.440000
   5130   5137     1   0.15110 237065.440000
   5131   5143     1   0.15375 251793.120000
   5134   5146     1   0.15375 251793.120000
   5137   5140     1   0.15375 251793.120000
   5140   5149     1   0.15375 251793.120000
   5143   5155     1   0.15375 251793.120000
   5146   5152     1   0.15375 251793.120000
   5149   5158     1   0.14316 258236.480000
   5152   9700     1   0.14316 258236.480000
   5155   9723     1   0.14316 258236.480000
   5160   5161     1   0.15110 237065.440000
   5160   5164     1   0.15110 237065.440000
   5160   5167     1   0.15110 237065.440000
   5161   5173     1   0.15375 251793.120000
   5164   5176     1   0.15375 251793.120000
   5167   5170     1   0.15375 251793.120000
   5170   5179     1   0.15375 251793.120000
   5173   5185     1   0.15375 251793.120000
   5176   5182     1   0.15375 251793.120000
   5179   5188     1   0.14316 258236.480000
   5182   9746     1   0.14316 258236.480000
   5185   9769     1   0.14316 258236.480000
   5190   5191     1   0.15110 237065.440000
   5190   5194     1   0.15110 237065.440000
   5190   5197     1   0.15110 237065.440000
   5191   5203     1   0.15375 251793.120000
   5194   5206     1   0.15375 251793.120000
   5197   5200     1   0.15375 251793.120000
   5200   5209     1   0.15375 251793.120000
   5203   5215     1   0.15375 251793.120000
   5206   5212     1   0.15375 251793.120000
   5209   5218     1   0.14316 258236.480000
   5212   9792     1   0.14316 258236.480000
   5215   9815     1   0.14316 258236.480000
   5220   5221     1   0.15110 237065.440000
   5220   5224     1   0.15110 237065.440000
   5220   5227     1   0.15110 237065.440000
   5221   5233     1   0.15375 251793.120000
   5224   5236     1   0.15375 251793.120000
   5227   5230     1   0.15375 251793.120000
   5230   5239     1   0.15375 251793.120000
   5233   5245     1   0.15375 251793.120000
   5236   5242     1   0.15375 251793.120000
   5239   5248     1   0.14316 258236.480000
   5242   9838     1   0.14316 258236.480000
   5245   9861     1   0.14316 258236.480000
   5250   5251     1   0.15110 237065.440000
   5250   5254     1   0.15110 237065.440000
   5250   5257     1   0.15110 237065.440000
   5251   5263     1   0.15375 251793.120000
   5254   5266     1   0.15375 251793.120000
   5257   5260     1   0.15375 251793.120000
   5260   5269     1   0.15375 251793.120000
   5263   5275     1   0.15375 251793.120000
   5266   5272     1   0.15375 251793.120000
   5269   5278     1   0.14316 258236.480000
   5272   9884     1   0.14316 258236.480000
   5275   9907     1   0.14316 258236.480000
   5280   5281     1   0.15110 237065.440000
   5280   5284     1   0.15110 237065.440000
   5280   5287     1   0.15110 237065.440000
   5281   5293     1   0.15375 251793.120000
   5284   5296     1   0.15375 251793.120000
   5287   5290     1   0.15375 251793.120000
   5290   5299     1   0.15375 251793.120000
   5293   5305     1   0.15375 251793.120000
   5296   5302     1   0.15375 251793.120000
   5299   5308     1   0.14316 258236.480000
   5302   9930     1   0.14316 258236.480000
   5305   9953     1   0.14316 258236.480000
   5310   5311     1   0.15110 237065.440000
   5310   5314     1   0.15110 237065.440000
   5310   5317     1   0.15110 237065.440000
   5311   5323     1   0.15375 251793.120000
   5314   5326     1   0.15375 251793.120000
   5317   5320     1   0.15375 251793.120000
   5320   5329     1   0.15375 251793.120000
   5323   5335     1   0.15375 251793.120000
   5326   5332     1   0.15375 251793.120000
   5329   5338     1   0.14316 258236.480000
   5332   9976     1   0.14316 258236.480000
   5335   9999     1   0.14316 258236.480000
   5340   5341     1   0.15110 237065.440000
   5340   5344     1   0.15110 237065.440000
   5340   5347     1   0.15110 237065.440000
   5341   5353     1   0.15375 251793.120000
   5344   5356     1   0.15375 251793.120000
   5347   5350     1   0.15375 251793.120000
   5350   5359     1   0.15375 251793.120000
   5353   5365     1   0.15375 251793.120000
   5356   5362     1   0.15375 251793.120000
   5359   5368     1   0.14316 258236.480000
   5362  10022     1   0.14316 258236.480000
   5365  10045     1   0.14316 258236.480000
   5370   5371     1   0.15110 237065.440000
   5370   5374     1   0.15110 237065.440000
   5370   5377     1   0.15110 237065.440000
   5371   5383     1   0.15375 251793.120000
   5374   5386     1   0.15375 251793.120000
   5377   5380     1   0.15375 251793.120000
   5380   5389     1   0.15375 251793.120000
   5383   5395     1   0.15375 251793.120000
   5386   5392     1   0.15375 251793.120000
   5389   5398     1   0.14316 258236.480000
   5392  10068     1   0.14316 258236.480000
   5395  10091     1   0.14316 258236.480000
   5400   5401     1   0.15110 237065.440000
   5400   5404     1   0.15110 237065.440000
   5400   5407     1   0.15110 237065.440000
   5401   5413     1   0.15375 251793.120000
   5404   5416     1   0.15375 251793.120000
   5407   5410     1   0.15375 251793.120000
   5410   5419     1   0.15375 251793.120000
   5413   5425     1   0.15375 251793.120000
   5416   5422     1   0.15375 251793.120000
   5419   5428     1   0.14316 258236.480000
   5422  10114     1   0.14316 258236.480000
   5425  10137     1   0.14316 258236.480000
   5430   5431     1   0.15110 237065.440000
   5430   5434     1   0.15110 237065.440000
   5430   5437     1   0.15110 237065.440000
   5431   5443     1   0.15375 251793.120000
   5434   5446     1   0.15375 251793.120000
   5437   5440     1   0.15375 251793.120000
   5440   5449     1   0.15375 251793.120000
   5443   5455     1   0.15375 251793.120000
   5446   5452     1   0.15375 251793.120000
   5449   5458     1   0.14316 258236.480000
   5452  10160     1   0.14316 258236.480000
   5455  10183     1   0.14316 258236.480000
   5460   5461     1   0.15110 237065.440000
   5460   5464     1   0.15110 237065.440000
   5460   5467     1   0.15110 237065.440000
   5461   5473     1   0.15375 251793.120000
   5464   5476     1   0.15375 251793.120000
   5467   5470     1   0.15375 251793.120000
   5470   5479     1   0.15375 251793.120000
   5473   5485     1   0.15375 251793.120000
   5476   5482     1   0.15375 251793.120000
   5479   5488     1   0.14316 258236.480000
   5482  10206     1   0.14316 258236.480000
   5485  10229     1   0.14316 258236.480000
   5490   5491     1   0.15110 237065.440000
   5490   5494     1   0.15110 237065.440000
   5490   5497     1   0.15110 237065.440000
   5491   5503     1   0.15375 251793.120000
   5494   5506     1   0.15375 251793.120000
   5497   5500     1   0.15375 251793.120000
   5500   5509     1   0.15375 251793.120000
   5503   5515     1   0.15375 251793.120000
   5506   5512     1   0.15375 251793.120000
   5509   5518     1   0.14316 258236.480000
   5512  10252     1   0.14316 258236.480000
   5515  10275     1   0.14316 258236.480000
   5520   5521     1   0.15110 237065.440000
   5520   5524     1   0.15110 237065.440000
   5520   5527     1   0.15110 237065.440000
   5521   5533     1   0.15375 251793.120000
   5524   5536     1   0.15375 251793.120000
   5527   5530     1   0.15375 251793.120000
   5530   5539     1   0.15375 251793.120000
   5533   5545     1   0.15375 251793.120000
   5536   5542     1   0.15375 251793.120000
   5539   5548     1   0.14316 258236.480000
   5542  10298     1   0.14316 258236.480000
   5545  10321     1   0.14316 258236.480000
   5550   5551     1   0.15110 237065.440000
   5550   5554     1   0.15110 237065.440000
   5550   5557     1   0.15110 237065.440000
   5551   5563     1   0.15375 251793.120000
   5554   5566     1   0.15375 251793.120000
   5557   5560     1   0.15375 251793.120000
   5560   5569     1   0.15375 251793.120000
   5563   5575     1   0.15375 251793.120000
   5566   5572     1   0.15375 251793.120000
   5569   5578     1   0.14316 258236.480000
   5572  10344     1   0.14316 258236.480000
   5575  10367     1   0.14316 258236.480000
   5580   5581     1   0.15110 237065.440000
   5580   5584     1   0.15110 237065.440000
   5580   5587     1   0.15110 237065.440000
   5581   5593     1   0.15375 251793.120000
   5584   5596     1   0.15375 251793.120000
   5587   5590     1   0.15375 251793.120000
   5590   5599     1   0.15375 251793.120000
   5593   5605     1   0.15375 251793.120000
   5596   5602     1   0.15375 251793.120000
   5599   5608     1   0.14316 258236.480000
   5602  10390     1   0.14316 258236.480000
   5605  10413     1   0.14316 258236.480000
   5610   5611     1   0.15110 237065.440000
   5610   5614     1   0.15110 237065.440000
   5610   5617     1   0.15110 237065.440000
   5611   5623     1   0.15375 251793.120000
   5614   5626     1   0.15375 251793.120000
   5617   5620     1   0.15375 251793.120000
   5620   5629     1   0.15375 251793.120000
   5623   5635     1   0.15375 251793.120000
   5626   5632     1   0.15375 251793.120000
   5629   5638     1   0.14316 258236.480000
   5632  10436     1   0.14316 258236.480000
   5635  10459     1   0.14316 258236.480000
   5640   5641     1   0.15110 237065.440000
   5640   5644     1   0.15110 237065.440000
   5640   5647     1   0.15110 237065.440000
   5641   5653     1   0.15375 251793.120000
   5644   5656     1   0.15375 251793.120000
   5647   5650     1   0.15375 251793.120000
   5650   5659     1   0.15375 251793.120000
   5653   5665     1   0.15375 251793.120000
   5656   5662     1   0.15375 251793.120000
   5659   5668     1   0.14316 258236.480000
   5662  10482     1   0.14316 258236.480000
   5665  10505     1   0.14316 258236.480000
   5670   5671     1   0.15110 237065.440000
   5670   5674     1   0.15110 237065.440000
   5670   5677     1   0.15110 237065.440000
   5671   5683     1   0.15375 251793.120000
   5674   5686     1   0.15375 251793.120000
   5677   5680     1   0.15375 251793.120000
   5680   5689     1   0.15375 251793.120000
   5683   5695     1   0.15375 251793.120000
   5686   5692     1   0.15375 251793.120000
   5689   5698     1   0.14316 258236.480000
   5692  10528     1   0.14316 258236.480000
   5695  10551     1   0.14316 258236.480000
   5700   5701     1   0.15110 237065.440000
   5700   5704     1   0.15110 237065.440000
   5700   5707     1   0.15110 237065.440000
   5701   5713     1   0.15375 251793.120000
   5704   5716     1   0.15375 251793.120000
   5707   5710     1   0.15375 251793.120000
   5710   5719     1   0.15375 251793.120000
   5713   5725     1   0.15375 251793.120000
   5716   5722     1   0.15375 251793.120000
   5719   5728     1   0.14316 258236.480000
   5722  10574     1   0.14316 258236.480000
   5725  10597     1   0.14316 258236.480000
   5730   5731     1   0.15110 237065.440000
   5730   5734     1   0.15110 237065.440000
   5730   5737     1   0.15110 237065.440000
   5731   5743     1   0.15375 251793.120000
   5734   5746     1   0.15375 251793.120000
   5737   5740     1   0.15375 251793.120000
   5740   5749     1   0.15375 251793.120000
   5743   5755     1   0.15375 251793.120000
   5746   5752     1   0.15375 251793.120000
   5749   5758     1   0.14316 258236.480000
   5752  10620     1   0.14316 258236.480000
   5755  10643     1   0.14316 258236.480000
   5760   5761     1   0.15110 237065.440000
   5760   5764     1   0.15110 237065.440000
   5760   5767     1   0.15110 237065.440000
   5761   5773     1   0.15375 251793.120000
   5764   5776     1   0.15375 251793.120000
   5767   5770     1   0.15375 251793.120000
   5770   5779     1   0.15375 251793.120000
   5773   5785     1   0.15375 251793.120000
   5776   5782     1   0.15375 251793.120000
   5779   5788     1   0.14316 258236.480000
   5782  10666     1   0.14316 258236.480000
   5785  10689     1   0.14316 258236.480000
   5790   5791     1   0.15110 237065.440000
   5790   5794     1   0.15110 237065.440000
   5790   5797     1   0.15110 237065.440000
   5791   5803     1   0.15375 251793.120000
   5794   5806     1   0.15375 251793.120000
   5797   5800     1   0.15375 251793.120000
   5800   5809     1   0.15375 251793.120000
   5803   5815     1   0.15375 251793.120000
   5806   5812     1   0.15375 251793.120000
   5809   5818     1   0.14316 258236.480000
   5812  10712     1   0.14316 258236.480000
   5815  10735     1   0.14316 258236.480000
   5820   5821     1   0.15110 237065.440000
   5820   5824     1   0.15110 237065.440000
   5820   5827     1   0.15110 237065.440000
   5821   5833     1   0.15375 251793.120000
   5824   5836     1   0.15375 251793.120000
   5827   5830     1   0.15375 251793.120000
   5830   5839     1   0.15375 251793.120000
   5833   5845     1   0.15375 251793.120000
   5836   5842     1   0.15375 251793.120000
   5839   5848     1   0.14316 258236.480000
   5842  10758     1   0.14316 258236.480000
   5845  10781     1   0.14316 258236.480000
   5850   5851     1   0.15110 237065.440000
   5850   5854     1   0.15110 237065.440000
   5850   5857     1   0.15110 237065.440000
   5851   5863     1   0.15375 251793.120000
   5854   5866     1   0.15375 251793.120000
   5857   5860     1   0.15375 251793.120000
   5860   5869     1   0.15375 251793.120000
   5863   5875     1   0.15375 251793.120000
   5866   5872     1   0.15375 251793.120000
   5869   5878     1   0.14316 258236.480000
   5872  10804     1   0.14316 258236.480000
   5875  10827     1   0.14316 258236.480000
   5880   5881     1   0.15110 237065.440000
   5880   5884     1   0.15110 237065.440000
   5880   5887     1   0.15110 237065.440000
   5881   5893     1   0.15375 251793.120000
   5884   5896     1   0.15375 251793.120000
   5887   5890     1   0.15375 251793.120000
   5890   5899     1   0.15375 251793.120000
   5893   5905     1   0.15375 251793.120000
   5896   5902     1   0.15375 251793.120000
   5899   5908     1   0.14316 258236.480000
   5902  10850     1   0.14316 258236.480000
   5905  10873     1   0.14316 258236.480000
   5910   5911     1   0.15110 237065.440000
   5910   5914     1   0.15110 237065.440000
   5910   5917     1   0.15110 237065.440000
   5911   5923     1   0.15375 251793.120000
   5914   5926     1   0.15375 251793.120000
   5917   5920     1   0.15375 251793.120000
   5920   5929     1   0.15375 251793.120000
   5923   5935     1   0.15375 251793.120000
   5926   5932     1   0.15375 251793.120000
   5929   5938     1   0.14316 258236.480000
   5932  10896     1   0.14316 258236.480000
   5935  10919     1   0.14316 258236.480000
   5940   5941     1   0.15110 237065.440000
   5940   5944     1   0.15110 237065.440000
   5940   5947     1   0.15110 237065.440000
   5941   5953     1   0.15375 251793.120000
   5944   5956     1   0.15375 251793.120000
   5947   5950     1   0.15375 251793.120000
   5950   5959     1   0.15375 251793.120000
   5953   5965     1   0.15375 251793.120000
   5956   5962     1   0.15375 251793.120000
   5959   5968     1   0.14316 258236.480000
   5962  10942     1   0.14316 258236.480000
   5965  10965     1   0.14316 258236.480000
   5970   5971     1   0.15110 237065.440000
   5970   5974     1   0.15110 237065.440000
   5970   5977     1   0.15110 237065.440000
   5971   5983     1   0.15375 251793.120000
   5974   5986     1   0.15375 251793.120000
   5977   5980     1   0.15375 251793.120000
   5980   5989     1   0.15375 251793.120000
   5983   5995     1   0.15375 251793.120000
   5986   5992     1   0.15375 251793.120000
   5989   5998     1   0.14316 258236.480000
   5992  10988     1   0.14316 258236.480000
   5995  11011     1   0.14316 258236.480000
   6000   6001     1   0.15110 237065.440000
   6000   6004     1   0.15110 237065.440000
   6000   6007     1   0.15110 237065.440000
   6001   6013     1   0.15375 251793.120000
   6004   6016     1   0.15375 251793.120000
   6007   6010     1   0.15375 251793.120000
   6010   6019     1   0.15375 251793.120000
   6013   6025     1   0.15375 251793.120000
   6016   6022     1   0.15375 251793.120000
   6019   6028     1   0.14316 258236.480000
   6022  11034     1   0.14316 258236.480000
   6025  11057     1   0.14316 258236.480000
   6030   6031     1   0.15110 237065.440000
   6030   6034     1   0.15110 237065.440000
   6030   6037     1   0.15110 237065.440000
   6031   6043     1   0.15375 251793.120000
   6034   6046     1   0.15375 251793.120000
   6037   6040     1   0.15375 251793.120000
   6040   6049     1   0.15375 251793.120000
   6043   6055     1   0.15375 251793.120000
   6046   6052     1   0.15375 251793.120000
   6049   6058     1   0.14316 258236.480000
   6052  11080     1   0.14316 258236.480000
   6055  11103     1   0.14316 258236.480000
   6060   6061     1   0.15110 237065.440000
   6060   6064     1   0.15110 237065.440000
   6060   6067     1   0.15110 237065.440000
   6061   6073     1   0.15375 251793.120000
   6064   6076     1   0.15375 251793.120000
   6067   6070     1   0.15375 251793.120000
   6070   6079     1   0.15375 251793.120000
   6073   6085     1   0.15375 251793.120000
   6076   6082     1   0.15375 251793.120000
   6079   6088     1   0.14316 258236.480000
   6082  11126     1   0.14316 258236.480000
   6085  11149     1   0.14316 258236.480000
   6090   6091     1   0.15110 237065.440000
   6090   6094     1   0.15110 237065.440000
   6090   6097     1   0.15110 237065.440000
   6091   6103     1   0.15375 251793.120000
   6094   6106     1   0.15375 251793.120000
   6097   6100     1   0.15375 251793.120000
   6100   6109     1   0.15375 251793.120000
   6103   6115     1   0.15375 251793.120000
   6106   6112     1   0.15375 251793.120000
   6109   6118     1   0.14316 258236.480000
   6112  11172     1   0.14316 258236.480000
   6115  11195     1   0.14316 258236.480000
   6120   6121     1   0.15110 237065.440000
   6120   6124     1   0.15110 237065.440000
   6120   6127     1   0.15110 237065.440000
   6121   6133     1   0.15375 251793.120000
   6124   6136     1   0.15375 251793.120000
   6127   6130     1   0.15375 251793.120000
   6130   6139     1   0.15375 251793.120000
   6133   6145     1   0.15375 251793.120000
   6136   6142     1   0.15375 251793.120000
   6139   6148     1   0.14316 258236.480000
   6142  11218     1   0.14316 258236.480000
   6145  11241     1   0.14316 258236.480000
   6150   6151     1   0.15110 237065.440000
   6150   6154     1   0.15110 237065.440000
   6150   6157     1   0.15110 237065.440000
   6151   6163     1   0.15375 251793.120000
   6154   6166     1   0.15375 251793.120000
   6157   6160     1   0.15375 251793.120000
   6160   6169     1   0.15375 251793.120000
   6163   6175     1   0.15375 251793.120000
   6166   6172     1   0.15375 251793.120000
   6169   6178     1   0.14316 258236.480000
   6172  11264     1   0.14316 258236.480000
   6175  11287     1   0.14316 258236.480000
   6180   6181     1   0.15110 237065.440000
   6180   6184     1   0.15110 237065.440000
   6180   6187     1   0.15110 237065.440000
   6181   6193     1   0.15375 251793.120000
   6184   6196     1   0.15375 251793.120000
   6187   6190     1   0.15375 251793.120000
   6190   6199     1   0.15375 251793.120000
   6193   6205     1   0.15375 251793.120000
   6196   6202     1   0.15375 251793.120000
   6199   6208     1   0.14316 258236.480000
   6202  11310     1   0.14316 258236.480000
   6205  11333     1   0.14316 258236.480000
   6210   6211     1   0.15110 237065.440000
   6210   6214     1   0.15110 237065.440000
   6210   6217     1   0.15110 237065.440000
   6211   6223     1   0.15375 251793.120000
   6214   6226     1   0.15375 251793.120000
   6217   6220     1   0.15375 251793.120000
   6220   6229     1   0.15375 251793.120000
   6223   6235     1   0.15375 251793.120000
   6226   6232     1   0.15375 251793.120000
   6229   6238     1   0.14316 258236.480000
   6232  11356     1   0.14316 258236.480000
   6235  11379     1   0.14316 258236.480000
   6240   6241     1   0.15110 237065.440000
   6240   6244     1   0.15110 237065.440000
   6240   6247     1   0.15110 237065.440000
   6241   6253     1   0.15375 251793.120000
   6244   6256     1   0.15375 251793.120000
   6247   6250     1   0.15375 251793.120000
   6250   6259     1   0.15375 251793.120000
   6253   6265     1   0.15375 251793.120000
   6256   6262     1   0.15375 251793.120000
   6259   6268     1   0.14316 258236.480000
   6262  11402     1   0.14316 258236.480000
   6265  11425     1   0.14316 258236.480000
   6270   6271     1   0.15110 237065.440000
   6270   6274     1   0.15110 237065.440000
   6270   6277     1   0.15110 237065.440000
   6271   6283     1   0.15375 251793.120000
   6274   6286     1   0.15375 251793.120000
   6277   6280     1   0.15375 251793.120000
   6280   6289     1   0.15375 251793.120000
   6283   6295     1   0.15375 251793.120000
   6286   6292     1   0.15375 251793.120000
   6289   6298     1   0.14316 258236.480000
   6292  11448     1   0.14316 258236.480000
   6295  11471     1   0.14316 258236.480000
   6300   6301     1   0.15110 237065.440000
   6300   6304     1   0.15110 237065.440000
   6300   6307     1   0.15110 237065.440000
   6301   6313     1   0.15375 251793.120000
   6304   6316     1   0.15375 251793.120000
   6307   6310     1   0.15375 251793.120000
   6310   6319     1   0.15375 251793.120000
   6313   6325     1   0.15375 251793.120000
   6316   6322     1   0.15375 251793.120000
   6319   6328     1   0.14316 258236.480000
   6322  11494     1   0.14316 258236.480000
   6325  11517     1   0.14316 258236.480000
   6330   6331     1   0.15110 237065.440000
   6330   6334     1   0.15110 237065.440000
   6330   6337     1   0.15110 237065.440000
   6331   6343     1   0.15375 251793.120000
   6334   6346     1   0.15375 251793.120000
   6337   6340     1   0.15375 251793.120000
   6340   6349     1   0.15375 251793.120000
   6343   6355     1   0.15375 251793.120000
   6346   6352     1   0.15375 251793.120000
   6349   6358     1   0.14316 258236.480000
   6352  11540     1   0.14316 258236.480000
   6355  11563     1   0.14316 258236.480000
   6360   6361     1   0.15110 237065.440000
   6360   6364     1   0.15110 237065.440000
   6360   6367     1   0.15110 237065.440000
   6361   6373     1   0.15375 251793.120000
   6364   6376     1   0.15375 251793.120000
   6367   6370     1   0.15375 251793.120000
   6370   6379     1   0.15375 251793.120000
   6373   6385     1   0.15375 251793.120000
   6376   6382     1   0.15375 251793.120000
   6379   6388     1   0.14316 258236.480000
   6382  11586     1   0.14316 258236.480000
   6385  11609     1   0.14316 258236.480000
   6390   6391     1   0.15110 237065.440000
   6390   6394     1   0.15110 237065.440000
   6390   6397     1   0.15110 237065.440000
   6391   6403     1   0.15375 251793.120000
   6394   6406     1   0.15375 251793.120000
   6397   6400     1   0.15375 251793.120000
   6400   6409     1   0.15375 251793.120000
   6403   6415     1   0.15375 251793.120000
   6406   6412     1   0.15375 251793.120000
   6409   6418     1   0.14316 258236.480000
   6412  11632     1   0.14316 258236.480000
   6415  11655     1   0.14316 258236.480000
   6420   6421     1   0.15110 237065.440000
   6420   6424     1   0.15110 237065.440000
   6420   6427     1   0.15110 237065.440000
   6421   6433     1   0.15375 251793.120000
   6424   6436     1   0.15375 251793.120000
   6427   6430     1   0.15375 251793.120000
   6430   6439     1   0.15375 251793.120000
   6433   6445     1   0.15375 251793.120000
   6436   6442     1   0.15375 251793.120000
   6439   6448     1   0.14316 258236.480000
   6442  11678     1   0.14316 258236.480000
   6445  11701     1   0.14316 258236.480000
   6450   6451     1   0.15110 237065.440000
   6450   6454     1   0.15110 237065.440000
   6450   6457     1   0.15110 237065.440000
   6451   6463     1   0.15375 251793.120000
   6454   6466     1   0.15375 251793.120000
   6457   6460     1   0.15375 251793.120000
   6460   6469     1   0.15375 251793.120000
   6463   6475     1   0.15375 251793.120000
   6466   6472     1   0.15375 251793.120000
   6469   6478     1   0.14316 258236.480000
   6472  11724     1   0.14316 258236.480000
   6475  11747     1   0.14316 258236.480000
   6480   6481     1   0.15110 237065.440000
   6480   6484     1   0.15110 237065.440000
   6480   6487     1   0.15110 237065.440000
   6481   6493     1   0.15375 251793.120000
   6484   6496     1   0.15375 251793.120000
   6487   6490     1   0.15375 251793.120000
   6490   6499     1   0.15375 251793.120000
   6493   6505     1   0.15375 251793.120000
   6496   6502     1   0.15375 251793.120000
   6499   6508     1   0.14316 258236.480000
   6502  11770     1   0.14316 258236.480000
   6505  11793     1   0.14316 258236.480000
   6510   6511     1   0.15110 237065.440000
   6510   6514     1   0.15110 237065.440000
   6510   6517     1   0.15110 237065.440000
   6511   6523     1   0.15375 251793.120000
   6514   6526     1   0.15375 251793.120000
   6517   6520     1   0.15375 251793.120000
   6520   6529     1   0.15375 251793.120000
   6523   6535     1   0.15375 251793.120000
   6526   6532     1   0.15375 251793.120000
   6529   6538     1   0.14316 258236.480000
   6532  11816     1   0.14316 258236.480000
   6535  11839     1   0.14316 258236.480000
   6540   6541     1   0.15110 237065.440000
   6540   6544     1   0.15110 237065.440000
   6540   6547     1   0.15110 237065.440000
   6541   6553     1   0.15375 251793.120000
   6544   6556     1   0.15375 251793.120000
   6547   6550     1   0.15375 251793.120000
   6550   6559     1   0.15375 251793.120000
   6553   6565     1   0.15375 251793.120000
   6556   6562     1   0.15375 251793.120000
   6559   6568     1   0.14316 258236.480000
   6562  11862     1   0.14316 258236.480000
   6565  11885     1   0.14316 258236.480000
   6570   6571     1   0.15110 237065.440000
   6570   6574     1   0.15110 237065.440000
   6570   6577     1   0.15110 237065.440000
   6571   6583     1   0.15375 251793.120000
   6574   6586     1   0.15375 251793.120000
   6577   6580     1   0.15375 251793.120000
   6580   6589     1   0.15375 251793.120000
   6583   6595     1   0.15375 251793.120000
   6586   6592     1   0.15375 251793.120000
   6589   6598     1   0.14316 258236.480000
   6592  11908     1   0.14316 258236.480000
   6595  11931     1   0.14316 258236.480000
   6600   6601     1   0.15110 237065.440000
   6600   6604     1   0.15110 237065.440000
   6600   6607     1   0.15110 237065.440000
   6601   6613     1   0.15375 251793.120000
   6604   6616     1   0.15375 251793.120000
   6607   6610     1   0.15375 251793.120000
   6610   6619     1   0.15375 251793.120000
   6613   6625     1   0.15375 251793.120000
   6616   6622     1   0.15375 251793.120000
   6619   6628     1   0.14316 258236.480000
   6622  11954     1   0.14316 258236.480000
   6625  11977     1   0.14316 258236.480000
   6630   6631     1   0.15110 237065.440000
   6630   6634     1   0.15110 237065.440000
   6630   6637     1   0.15110 237065.440000
   6631   6643     1   0.15375 251793.120000
   6634   6646     1   0.15375 251793.120000
   6637   6640     1   0.15375 251793.120000
   6640   6649     1   0.15375 251793.120000
   6643   6655     1   0.15375 251793.120000
   6646   6652     1   0.15375 251793.120000
   6649   6658     1   0.14316 258236.480000
   6652  12000     1   0.14316 258236.480000
   6655  12023     1   0.14316 258236.480000
   6660   6661     1   0.15110 237065.440000
   6660   6664     1   0.15110 237065.440000
   6660   6667     1   0.15110 237065.440000
   6661   6673     1   0.15375 251793.120000
   6664   6676     1   0.15375 251793.120000
   6667   6670     1   0.15375 251793.120000
   6670   6679     1   0.15375 251793.120000
   6673   6685     1   0.15375 251793.120000
   6676   6682     1   0.15375 251793.120000
   6679   6688     1   0.14316 258236.480000
   6682  12046     1   0.14316 258236.480000
   6685  12069     1   0.14316 258236.480000
   6690   6691     1   0.15110 237065.440000
   6690   6694     1   0.15110 237065.440000
   6690   6697     1   0.15110 237065.440000
   6691   6703     1   0.15375 251793.120000
   6694   6706     1   0.15375 251793.120000
   6697   6700     1   0.15375 251793.120000
   6700   6709     1   0.15375 251793.120000
   6703   6715     1   0.15375 251793.120000
   6706   6712     1   0.15375 251793.120000
   6709   6718     1   0.14316 258236.480000
   6712  12092     1   0.14316 258236.480000
   6715  12115     1   0.14316 258236.480000
   6720   6721     1   0.15110 237065.440000
   6720   6724     1   0.15110 237065.440000
   6720   6727     1   0.15110 237065.440000
   6721   6733     1   0.15375 251793.120000
   6724   6736     1   0.15375 251793.120000
   6727   6730     1   0.15375 251793.120000
   6730   6739     1   0.15375 251793.120000
   6733   6745     1   0.15375 251793.120000
   6736   6742     1   0.15375 251793.120000
   6739   6748     1   0.14316 258236.480000
   6742  12138     1   0.14316 258236.480000
   6745  12161     1   0.14316 258236.480000
   6750   6751     1   0.15110 237065.440000
   6750   6754     1   0.15110 237065.440000
   6750   6757     1   0.15110 237065.440000
   6751   6763     1   0.15375 251793.120000
   6754   6766     1   0.15375 251793.120000
   6757   6760     1   0.15375 251793.120000
   6760   6769     1   0.15375 251793.120000
   6763   6775     1   0.15375 251793.120000
   6766   6772     1   0.15375 251793.120000
   6769   6778     1   0.14316 258236.480000
   6772  12184     1   0.14316 258236.480000
   6775  12207     1   0.14316 258236.480000
   6780   6781     1   0.15110 237065.440000
   6780   6784     1   0.15110 237065.440000
   6780   6787     1   0.15110 237065.440000
   6781   6793     1   0.15375 251793.120000
   6784   6796     1   0.15375 251793.120000
   6787   6790     1   0.15375 251793.120000
   6790   6799     1   0.15375 251793.120000
   6793   6805     1   0.15375 251793.120000
   6796   6802     1   0.15375 251793.120000
   6799   6808     1   0.14316 258236.480000
   6802  12230     1   0.14316 258236.480000
   6805  12253     1   0.14316 258236.480000
   6810   6811     1   0.15110 237065.440000
   6810   6814     1   0.15110 237065.440000
   6810   6817     1   0.15110 237065.440000
   6811   6823     1   0.15375 251793.120000
   6814   6826     1   0.15375 251793.120000
   6817   6820     1   0.15375 251793.120000
   6820   6829     1   0.15375 251793.120000
   6823   6835     1   0.15375 251793.120000
   6826   6832     1   0.15375 251793.120000
   6829   6838     1   0.14316 258236.480000
   6832  12276     1   0.14316 258236.480000
   6835  12299     1   0.14316 258236.480000
   6840   6841     1   0.15110 237065.440000
   6840   6844     1   0.15110 237065.440000
   6840   6847     1   0.15110 237065.440000
   6841   6853     1   0.15375 251793.120000
   6844   6856     1   0.15375 251793.120000
   6847   6850     1   0.15375 251793.120000
   6850   6859     1   0.15375 251793.120000
   6853   6865     1   0.15375 251793.120000
   6856   6862     1   0.15375 251793.120000
   6859   6868     1   0.14316 258236.480000
   6862  12322     1   0.14316 258236.480000
   6865  12345     1   0.14316 258236.480000
   6870   6871     1   0.15110 237065.440000
   6870   6874     1   0.15110 237065.440000
   6870   6877     1   0.15110 237065.440000
   6871   6883     1   0.15375 251793.120000
   6874   6886     1   0.15375 251793.120000
   6877   6880     1   0.15375 251793.120000
   6880   6889     1   0.15375 251793.120000
   6883   6895     1   0.15375 251793.120000
   6886   6892     1   0.15375 251793.120000
   6889   6898     1   0.14316 258236.480000
   6892  12368     1   0.14316 258236.480000
   6895  12391     1   0.14316 258236.480000
   6900   6901     1   0.15110 237065.440000
   6900   6904     1   0.15110 237065.440000
   6900   6907     1   0.15110 237065.440000
   6901   6913     1   0.15375 251793.120000
   6904   6916     1   0.15375 251793.120000
   6907   6910     1   0.15375 251793.120000
   6910   6919     1   0.15375 251793.120000
   6913   6925     1   0.15375 251793.120000
   6916   6922     1   0.15375 251793.120000
   6919   6928     1   0.14316 258236.480000
   6922  12414     1   0.14316 258236.480000
   6925  12437     1   0.14316 258236.480000
   6930   6931     1   0.15110 237065.440000
   6930   6934     1   0.15110 237065.440000
   6930   6937     1   0.15110 237065.440000
   6931   6943     1   0.15375 251793.120000
   6934   6946     1   0.15375 251793.120000
   6937   6940     1   0.15375 251793.120000
   6940   6949     1   0.15375 251793.120000
   6943   6955     1   0.15375 251793.120000
   6946   6952     1   0.15375 251793.120000
   6949   6958     1   0.14316 258236.480000
   6952  12460     1   0.14316 258236.480000
   6955  12483     1   0.14316 258236.480000
   6960   6961     1   0.15110 237065.440000
   6960   6964     1   0.15110 237065.440000
   6960   6967     1   0.15110 237065.440000
   6961   6973     1   0.15375 251793.120000
   6964   6976     1   0.15375 251793.120000
   6967   6970     1   0.15375 251793.120000
   6970   6979     1   0.15375 251793.120000
   6973   6985     1   0.15375 251793.120000
   6976   6982     1   0.15375 251793.120000
   6979   6988     1   0.14316 258236.480000
   6982  12506     1   0.14316 258236.480000
   6985  12529     1   0.14316 258236.480000
   6990   6991     1   0.15110 237065.440000
   6990   6994     1   0.15110 237065.440000
   6990   6997     1   0.15110 237065.440000
   6991   7003     1   0.15375 251793.120000
   6994   7006     1   0.15375 251793.120000
   6997   7000     1   0.15375 251793.120000
   7000   7009     1   0.15375 251793.120000
   7003   7015     1   0.15375 251793.120000
   7006   7012     1   0.15375 251793.120000
   7009   7018     1   0.14316 258236.480000
   7012  12552     1   0.14316 258236.480000
   7015  12575     1   0.14316 258236.480000
   7020   7021     1   0.15110 237065.440000
   7020   7024     1   0.15110 237065.440000
   7020   7027     1   0.15110 237065.440000
   7021   7033     1   0.15375 251793.120000
   7024   7036     1   0.15375 251793.120000
   7027   7030     1   0.15375 251793.120000
   7030   7039     1   0.15375 251793.120000
   7033   7045     1   0.15375 251793.120000
   7036   7042     1   0.15375 251793.120000
   7039   7048     1   0.14316 258236.480000
   7042  12598     1   0.14316 258236.480000
   7045  12621     1   0.14316 258236.480000
   7050   7051     1   0.15110 237065.440000
   7050   7054     1   0.15110 237065.440000
   7050   7057     1   0.15110 237065.440000
   7051   7063     1   0.15375 251793.120000
   7054   7066     1   0.15375 251793.120000
   7057   7060     1   0.15375 251793.120000
   7060   7069     1   0.15375 251793.120000
   7063   7075     1   0.15375 251793.120000
   7066   7072     1   0.15375 251793.120000
   7069   7078     1   0.14316 258236.480000
   7072  12644     1   0.14316 258236.480000
   7075  12667     1   0.14316 258236.480000
   7080   7081     1   0.15110 237065.440000
   7080   7084     1   0.15110 237065.440000
   7080   7087     1   0.15110 237065.440000
   7081   7093     1   0.15375 251793.120000
   7084   7096     1   0.15375 251793.120000
   7087   7090     1   0.15375 251793.120000
   7090   7099     1   0.15375 251793.120000
   7093   7105     1   0.15375 251793.120000
   7096   7102     1   0.15375 251793.120000
   7099   7108     1   0.14316 258236.480000
   7102  12690     1   0.14316 258236.480000
   7105  12713     1   0.14316 258236.480000
   7110   7111     1   0.15110 237065.440000
   7110   7114     1   0.15110 237065.440000
   7110   7117     1   0.15110 237065.440000
   7111   7123     1   0.15375 251793.120000
   7114   7126     1   0.15375 251793.120000
   7117   7120     1   0.15375 251793.120000
   7120   7129     1   0.15375 251793.120000
   7123   7135     1   0.15375 251793.120000
   7126   7132     1   0.15375 251793.120000
   7129   7138     1   0.14316 258236.480000
   7132  12736     1   0.14316 258236.480000
   7135  12759     1   0.14316 258236.480000
   7140   7141     1   0.15110 237065.440000
   7140   7144     1   0.15110 237065.440000
   7140   7147     1   0.15110 237065.440000
   7141   7153     1   0.15375 251793.120000
   7144   7156     1   0.15375 251793.120000
   7147   7150     1   0.15375 251793.120000
   7150   7159     1   0.15375 251793.120000
   7153   7165     1   0.15375 251793.120000
   7156   7162     1   0.15375 251793.120000
   7159   7168     1   0.14316 258236.480000
   7162  12782     1   0.14316 258236.480000
   7165  12805     1   0.14316 258236.480000
   7170   7171     1   0.15110 237065.440000
   7170   7174     1   0.15110 237065.440000
   7170   7177     1   0.15110 237065.440000
   7171   7183     1   0.15375 251793.120000
   7174   7186     1   0.15375 251793.120000
   7177   7180     1   0.15375 251793.120000
   7180   7189     1   0.15375 251793.120000
   7183   7195     1   0.15375 251793.120000
   7186   7192     1   0.15375 251793.120000
   7189   7198     1   0.14316 258236.480000
   7192  12828     1   0.14316 258236.480000
   7195  12851     1   0.14316 258236.480000
   7200   7201     1   0.15110 237065.440000
   7200   7204     1   0.15110 237065.440000
   7200   7207     1   0.15110 237065.440000
   7201   7213     1   0.15375 251793.120000
   7204   7216     1   0.15375 251793.120000
   7207   7210     1   0.15375 251793.120000
   7210   7219     1   0.15375 251793.120000
   7213   7225     1   0.15375 251793.120000
   7216   7222     1   0.15375 251793.120000
   7219   7228     1   0.14316 258236.480000
   7222  12874     1   0.14316 258236.480000
   7225  12897     1   0.14316 258236.480000
   7230   7231     1   0.15110 237065.440000
   7230   7234     1   0.15110 237065.440000
   7230   7237     1   0.15110 237065.440000
   7231   7243     1   0.15375 251793.120000
   7234   7246     1   0.15375 251793.120000
   7237   7240     1   0.15375 251793.120000
   7240   7249     1   0.15375 251793.120000
   7243   7255     1   0.15375 251793.120000
   7246   7252     1   0.15375 251793.120000
   7249   7258     1   0.14316 258236.480000
   7252  12920     1   0.14316 258236.480000
   7255  12943     1   0.14316 258236.480000
   7260   7261     1   0.15110 237065.440000
   7260   7264     1   0.15110 237065.440000
   7260   7267     1   0.15110 237065.440000
   7261   7273     1   0.15375 251793.120000
   7264   7276     1   0.15375 251793.120000
   7267   7270     1   0.15375 251793.120000
   7270   7279     1   0.15375 251793.120000
   7273   7285     1   0.15375 251793.120000
   7276   7282     1   0.15375 251793.120000
   7279   7288     1   0.14316 258236.480000
   7282  12966     1   0.14316 258236.480000
   7285  12989     1   0.14316 258236.480000
   7290   7291     1   0.15110 237065.440000
   7290   7294     1   0.15110 237065.440000
   7290   7297     1   0.15110 237065.440000
   7291   7303     1   0.15375 251793.120000
   7294   7306     1   0.15375 251793.120000
   7297   7300     1   0.15375 251793.120000
   7300   7309     1   0.15375 251793.120000
   7303   7315     1   0.15375 251793.120000
   7306   7312     1   0.15375 251793.120000
   7309   7318     1   0.14316 258236.480000
   7312  13012     1   0.14316 258236.480000
   7315  13035     1   0.14316 258236.480000
   7320   7321     1   0.15110 237065.440000
   7320   7324     1   0.15110 237065.440000
   7320   7327     1   0.15110 237065.440000
   7321   7333     1   0.15375 251793.120000
   7324   7336     1   0.15375 251793.120000
   7327   7330     1   0.15375 251793.120000
   7330   7339     1   0.15375 251793.120000
   7333   7345     1   0.15375 251793.120000
   7336   7342     1   0.15375 251793.120000
   7339   7348     1   0.14316 258236.480000
   7342  13058     1   0.14316 258236.480000
   7345  13081     1   0.14316 258236.480000
   7350   7351     1   0.15110 237065.440000
   7350   7354     1   0.15110 237065.440000
   7350   7357     1   0.15110 237065.440000
   7351   7363     1   0.15375 251793.120000
   7354   7366     1   0.15375 251793.120000
   7357   7360     1   0.15375 251793.120000
   7360   7369     1   0.15375 251793.120000
   7363   7375     1   0.15375 251793.120000
   7366   7372     1   0.15375 251793.120000
   7369   7378     1   0.14316 258236.480000
   7372  13104     1   0.14316 258236.480000
   7375  13127     1   0.14316 258236.480000
   7380   7381     1   0.15110 237065.440000
   7380   7384     1   0.15110 237065.440000
   7380   7387     1   0.15110 237065.440000
   7381   7393     1   0.15375 251793.120000
   7384   7396     1   0.15375 251793.120000
   7387   7390     1   0.15375 251793.120000
   7390   7399     1   0.15375 251793.120000
   7393   7405     1   0.15375 251793.120000
   7396   7402     1   0.15375 251793.120000
   7399   7408     1   0.14316 258236.480000
   7402  13150     1   0.14316 258236.480000
   7405  13173     1   0.14316 258236.480000
   7410   7411     1   0.15110 237065.440000
   7410   7414     1   0.15110 237065.440000
   7410   7417     1   0.15110 237065.440000
   7411   7423     1   0.15375 251793.120000
   7414   7426     1   0.15375 251793.120000
   7417   7420     1   0.15375 251793.120000
   7420   7429     1   0.15375 251793.120000
   7423   7435     1   0.15375 251793.120000
   7426   7432     1   0.15375 251793.120000
   7429   7438     1   0.14316 258236.480000
   7432  13196     1   0.14316 258236.480000
   7435  13219     1   0.14316 258236.480000
   7440   7441     1   0.15110 237065.440000
   7440   7444     1   0.15110 237065.440000
   7440   7447     1   0.15110 237065.440000
   7441   7453     1   0.15375 251793.120000
   7444   7456     1   0.15375 251793.120000
   7447   7450     1   0.15375 251793.120000
   7450   7459     1   0.15375 251793.120000
   7453   7465     1   0.15375 251793.120000
   7456   7462     1   0.15375 251793.120000
   7459   7468     1   0.14316 258236.480000
   7462  13242     1   0.14316 258236.480000
   7465  13265     1   0.14316 258236.480000
   7470   7471     1   0.15110 237065.440000
   7470   7474     1   0.15110 237065.440000
   7470   7477     1   0.15110 237065.440000
   7471   7483     1   0.15375 251793.120000
   7474   7486     1   0.15375 251793.120000
   7477   7480     1   0.15375 251793.120000
   7480   7489     1   0.15375 251793.120000
   7483   7495     1   0.15375 251793.120000
   7486   7492     1   0.15375 251793.120000
   7489   7498     1   0.14316 258236.480000
   7492  13288     1   0.14316 258236.480000
   7495  13311     1   0.14316 258236.480000
   7500   7501     1   0.15110 237065.440000
   7500   7504     1   0.15110 237065.440000
   7500   7507     1   0.15110 237065.440000
   7501   7513     1   0.15375 251793.120000
   7504   7516     1   0.15375 251793.120000
   7507   7510     1   0.15375 251793.120000
   7510   7519     1   0.15375 251793.120000
   7513   7525     1   0.15375 251793.120000
   7516   7522     1   0.15375 251793.120000
   7519   7528     1   0.14316 258236.480000
   7522  13334     1   0.14316 258236.480000
   7525  13357     1   0.14316 258236.480000
   7530   7531     1   0.15110 237065.440000
   7530   7534     1   0.15110 237065.440000
   7530   7537     1   0.15110 237065.440000
   7531   7543     1   0.15375 251793.120000
   7534   7546     1   0.15375 251793.120000
   7537   7540     1   0.15375 251793.120000
   7540   7549     1   0.15375 251793.120000
   7543   7555     1   0.15375 251793.120000
   7546   7552     1   0.15375 251793.120000
   7549   7558     1   0.14316 258236.480000
   7552  13380     1   0.14316 258236.480000
   7555  13403     1   0.14316 258236.480000
   7560   7561     1   0.15110 237065.440000
   7560   7564     1   0.15110 237065.440000
   7560   7567     1   0.15110 237065.440000
   7561   7573     1   0.15375 251793.120000
   7564   7576     1   0.15375 251793.120000
   7567   7570     1   0.15375 251793.120000
   7570   7579     1   0.15375 251793.120000
   7573   7585     1   0.15375 251793.120000
   7576   7582     1   0.15375 251793.120000
   7579   7588     1   0.14316 258236.480000
   7582  13426     1   0.14316 258236.480000
   7585  13449     1   0.14316 258236.480000
   7590   7591     1   0.15110 237065.440000
   7590   7594     1   0.15110 237065.440000
   7590   7597     1   0.15110 237065.440000
   7591   7603     1   0.15375 251793.120000
   7594   7606     1   0.15375 251793.120000
   7597   7600     1   0.15375 251793.120000
   7600   7609     1   0.15375 251793.120000
   7603   7615     1   0.15375 251793.120000
   7606   7612     1   0.15375 251793.120000
   7609   7618     1   0.14316 258236.480000
   7612  13472     1   0.14316 258236.480000
   7615  13495     1   0.14316 258236.480000
   7620   7621     1   0.15375 251793.120000
   7620   7634     1   0.15375 251793.120000
   7620   7642     1   0.14316 258236.480000
   7621   7624     1   0.15375 251793.120000
   7621   7633     1   0.14233 265014.560000
   7624   7625     1   0.15375 251793.120000
   7624   7632     1   0.14233 265014.560000
   7625   7626     1   0.15375 251793.120000
   7625   7631     1   0.14233 265014.560000
   7626   7630     1   0.14316 258236.480000
   7626   7642     1   0.14316 258236.480000
   7634   7640     1   0.14233 265014.560000
   7643   7644     1   0.15375 251793.120000
   7643   7657     1   0.15375 251793.120000
   7643   7665     1   0.14316 258236.480000
   7644   7647     1   0.15375 251793.120000
   7644   7656     1   0.14233 265014.560000
   7647   7648     1   0.15375 251793.120000
   7647   7655     1   0.14233 265014.560000
   7648   7649     1   0.15375 251793.120000
   7648   7654     1   0.14233 265014.560000
   7649   7653     1   0.14316 258236.480000
   7649   7665     1   0.14316 258236.480000
   7657   7663     1   0.14233 265014.560000
   7666   7667     1   0.15375 251793.120000
   7666   7680     1   0.15375 251793.120000
   7666   7688     1   0.14316 258236.480000
   7667   7670     1   0.15375 251793.120000
   7667   7679     1   0.14233 265014.560000
   7670   7671     1   0.15375 251793.120000
   7670   7678     1   0.14233 265014.560000
   7671   7672     1   0.15375 251793.120000
   7671   7677     1   0.14233 265014.560000
   7672   7676     1   0.14316 258236.480000
   7672   7688     1   0.14316 258236.480000
   7680   7686     1   0.14233 265014.560000
   7689   7690     1   0.15375 251793.120000
   7689   7703     1   0.15375 251793.120000
   7689   7711     1   0.14316 258236.480000
   7690   7693     1   0.15375 251793.120000
   7690   7702     1   0.14233 265014.560000
   7693   7694     1   0.15375 251793.120000
   7693   7701     1   0.14233 265014.560000
   7694   7695     1   0.15375 251793.120000
   7694   7700     1   0.14233 265014.560000
   7695   7699     1   0.14316 258236.480000
   7695   7711     1   0.14316 258236.480000
   7703   7709     1   0.14233 265014.560000
   7712   7713     1   0.15375 251793.120000
   7712   7726     1   0.15375 251793.120000
   7712   7734     1   0.14316 258236.480000
   7713   7716     1   0.15375 251793.120000
   7713   7725     1   0.14233 265014.560000
   7716   7717     1   0.15375 251793.120000
   7716   7724     1   0.14233 265014.560000
   7717   7718     1   0.15375 251793.120000
   7717   7723     1   0.14233 265014.560000
   7718   7722     1   0.14316 258236.480000
   7718   7734     1   0.14316 258236.480000
   7726   7732     1   0.14233 265014.560000
   7735   7736     1   0.15375 251793.120000
   7735   7749     1   0.15375 251793.120000
   7735   7757     1   0.14316 258236.480000
   7736   7739     1   0.15375 251793.120000
   7736   7748     1   0.14233 265014.560000
   7739   7740     1   0.15375 251793.120000
   7739   7747     1   0.14233 265014.560000
   7740   7741     1   0.15375 251793.120000
   7740   7746     1   0.14233 265014.560000
   7741   7745     1   0.14316 258236.480000
   7741   7757     1   0.14316 258236.480000
   7749   7755     1   0.14233 265014.560000
   7758   7759     1   0.15375 251793.120000
   7758   7772     1   0.15375 251793.120000
   7758   7780     1   0.14316 258236.480000
   7759   7762     1   0.15375 251793.120000
   7759   7771     1   0.14233 265014.560000
   7762   7763     1   0.15375 251793.120000
   7762   7770     1   0.14233 265014.560000
   7763   7764     1   0.15375 251793.120000
   7763   7769     1   0.14233 265014.560000
   7764   7768     1   0.14316 258236.480000
   7764   7780     1   0.14316 258236.480000
   7772   7778     1   0.14233 265014.560000
   7781   7782     1   0.15375 251793.120000
   7781   7795     1   0.15375 251793.120000
   7781   7803     1   0.14316 258236.480000
   7782   7785     1   0.15375 251793.120000
   7782   7794     1   0.14233 265014.560000
   7785   7786     1   0.15375 251793.120000
   7785   7793     1   0.14233 265014.560000
   7786   7787     1   0.15375 251793.120000
   7786   7792     1   0.14233 265014.560000
   7787   7791     1   0.14316 258236.480000
   7787   7803     1   0.14316 258236.480000
   7795   7801     1   0.14233 265014.560000
   7804   7805     1   0.15375 251793.120000
   7804   7818     1   0.15375 251793.120000
   7804   7826     1   0.14316 258236.480000
   7805   7808     1   0.15375 251793.120000
   7805   7817     1   0.14233 265014.560000
   7808   7809     1   0.15375 251793.120000
   7808   7816     1   0.14233 265014.560000
   7809   7810     1   0.15375 251793.120000
   7809   7815     1   0.14233 265014.560000
   7810   7814     1   0.14316 258236.480000
   7810   7826     1   0.14316 258236.480000
   7818   7824     1   0.14233 265014.560000
   7827   7828     1   0.15375 251793.120000
   7827   7841     1   0.15375 251793.120000
   7827   7849     1   0.14316 258236.480000
   7828   7831     1   0.15375 251793.120000
   7828   7840     1   0.14233 265014.560000
   7831   7832     1   0.15375 251793.120000
   7831   7839     1   0.14233 265014.560000
   7832   7833     1   0.15375 251793.120000
   7832   7838     1   0.14233 265014.560000
   7833   7837     1   0.14316 258236.480000
   7833   7849     1   0.14316 258236.480000
   7841   7847     1   0.14233 265014.560000
   7850   7851     1   0.15375 251793.120000
   7850   7864     1   0.15375 251793.120000
   7850   7872     1   0.14316 258236.480000
   7851   7854     1   0.15375 251793.120000
   7851   7863     1   0.14233 265014.560000
   7854   7855     1   0.15375 251793.120000
   7854   7862     1   0.14233 265014.560000
   7855   7856     1   0.15375 251793.120000
   7855   7861     1   0.14233 265014.560000
   7856   7860     1   0.14316 258236.480000
   7856   7872     1   0.14316 258236.480000
   7864   7870     1   0.14233 265014.560000
   7873   7874     1   0.15375 251793.120000
   7873   7887     1   0.15375 251793.120000
   7873   7895     1   0.14316 258236.480000
   7874   7877     1   0.15375 251793.120000
   7874   7886     1   0.14233 265014.560000
   7877   7878     1   0.15375 251793.120000
   7877   7885     1   0.14233 265014.560000
   7878   7879     1   0.15375 251793.120000
   7878   7884     1   0.14233 265014.560000
   7879   7883     1   0.14316 258236.480000
   7879   7895     1   0.14316 258236.480000
   7887   7893     1   0.14233 265014.560000
   7896   7897     1   0.15375 251793.120000
   7896   7910     1   0.15375 251793.120000
   7896   7918     1   0.14316 258236.480000
   7897   7900     1   0.15375 251793.120000
   7897   7909     1   0.14233 265014.560000
   7900   7901     1   0.15375 251793.120000
   7900   7908     1   0.14233 265014.560000
   7901   7902     1   0.15375 251793.120000
   7901   7907     1   0.14233 265014.560000
   7902   7906     1   0.14316 258236.480000
   7902   7918     1   0.14316 258236.480000
   7910   7916     1   0.14233 265014.560000
   7919   7920     1   0.15375 251793.120000
   7919   7933     1   0.15375 251793.120000
   7919   7941     1   0.14316 258236.480000
   7920   7923     1   0.15375 251793.120000
   7920   7932     1   0.14233 265014.560000
   7923   7924     1   0.15375 251793.120000
   7923   7931     1   0.14233 265014.560000
   7924   7925     1   0.15375 251793.120000
   7924   7930     1   0.14233 265014.560000
   7925   7929     1   0.14316 258236.480000
   7925   7941     1   0.14316 258236.480000
   7933   7939     1   0.14233 265014.560000
   7942   7943     1   0.15375 251793.120000
   7942   7956     1   0.15375 251793.120000
   7942   7964     1   0.14316 258236.480000
   7943   7946     1   0.15375 251793.120000
   7943   7955     1   0.14233 265014.560000
   7946   7947     1   0.15375 251793.120000
   7946   7954     1   0.14233 265014.560000
   7947   7948     1   0.15375 251793.120000
   7947   7953     1   0.14233 265014.560000
   7948   7952     1   0.14316 258236.480000
   7948   7964     1   0.14316 258236.480000
   7956   7962     1   0.14233 265014.560000
   7965   7966     1   0.15375 251793.120000
   7965   7979     1   0.15375 251793.120000
   7965   7987     1   0.14316 258236.480000
   7966   7969     1   0.15375 251793.120000
   7966   7978     1   0.14233 265014.560000
   7969   7970     1   0.15375 251793.120000
   7969   7977     1   0.14233 265014.560000
   7970   7971     1   0.15375 251793.120000
   7970   7976     1   0.14233 265014.560000
   7971   7975     1   0.14316 258236.480000
   7971   7987     1   0.14316 258236.480000
   7979   7985     1   0.14233 265014.560000
   7988   7989     1   0.15375 251793.120000
   7988   8002     1   0.15375 251793.120000
   7988   8010     1   0.14316 258236.480000
   7989   7992     1   0.15375 251793.120000
   7989   8001     1   0.14233 265014.560000
   7992   7993     1   0.15375 251793.120000
   7992   8000     1   0.14233 265014.560000
   7993   7994     1   0.15375 251793.120000
   7993   7999     1   0.14233 265014.560000
   7994   7998     1   0.14316 258236.480000
   7994   8010     1   0.14316 258236.480000
   8002   8008     1   0.14233 265014.560000
   8011   8012     1   0.15375 251793.120000
   8011   8025     1   0.15375 251793.120000
   8011   8033     1   0.14316 258236.480000
   8012   8015     1   0.15375 251793.120000
   8012   8024     1   0.14233 265014.560000
   8015   8016     1   0.15375 251793.120000
   8015   8023     1   0.14233 265014.560000
   8016   8017     1   0.15375 251793.120000
   8016   8022     1   0.14233 265014.560000
   8017   8021     1   0.14316 258236.480000
   8017   8033     1   0.14316 258236.480000
   8025   8031     1   0.14233 265014.560000
   8034   8035     1   0.15375 251793.120000
   8034   8048     1   0.15375 251793.120000
   8034   8056     1   0.14316 258236.480000
   8035   8038     1   0.15375 251793.120000
   8035   8047     1   0.14233 265014.560000
   8038   8039     1   0.15375 251793.120000
   8038   8046     1   0.14233 265014.560000
   8039   8040     1   0.15375 251793.120000
   8039   8045     1   0.14233 265014.560000
   8040   8044     1   0.14316 258236.480000
   8040   8056     1   0.14316 258236.480000
   8048   8054     1   0.14233 265014.560000
   8057   8058     1   0.15375 251793.120000
   8057   8071     1   0.15375 251793.120000
   8057   8079     1   0.14316 258236.480000
   8058   8061     1   0.15375 251793.120000
   8058   8070     1   0.14233 265014.560000
   8061   8062     1   0.15375 251793.120000
   8061   8069     1   0.14233 265014.560000
   8062   8063     1   0.15375 251793.120000
   8062   8068     1   0.14233 265014.560000
   8063   8067     1   0.14316 258236.480000
   8063   8079     1   0.14316 258236.480000
   8071   8077     1   0.14233 265014.560000
   8080   8081     1   0.15375 251793.120000
   8080   8094     1   0.15375 251793.120000
   8080   8102     1   0.14316 258236.480000
   8081   8084     1   0.15375 251793.120000
   8081   8093     1   0.14233 265014.560000
   8084   8085     1   0.15375 251793.120000
   8084   8092     1   0.14233 265014.560000
   8085   8086     1   0.15375 251793.120000
   8085   8091     1   0.14233 265014.560000
   8086   8090     1   0.14316 258236.480000
   8086   8102     1   0.14316 258236.480000
   8094   8100     1   0.14233 265014.560000
   8103   8104     1   0.15375 251793.120000
   8103   8117     1   0.15375 251793.120000
   8103   8125     1   0.14316 258236.480000
   8104   8107     1   0.15375 251793.120000
   8104   8116     1   0.14233 265014.560000
   8107   8108     1   0.15375 251793.120000
   8107   8115     1   0.14233 265014.560000
   8108   8109     1   0.15375 251793.120000
   8108   8114     1   0.14233 265014.560000
   8109   8113     1   0.14316 258236.480000
   8109   8125     1   0.14316 258236.480000
   8117   8123     1   0.14233 265014.560000
   8126   8127     1   0.15375 251793.120000
   8126   8140     1   0.15375 251793.120000
   8126   8148     1   0.14316 258236.480000
   8127   8130     1   0.15375 251793.120000
   8127   8139     1   0.14233 265014.560000
   8130   8131     1   0.15375 251793.120000
   8130   8138     1   0.14233 265014.560000
   8131   8132     1   0.15375 251793.120000
   8131   8137     1   0.14233 265014.560000
   8132   8136     1   0.14316 258236.480000
   8132   8148     1   0.14316 258236.480000
   8140   8146     1   0.14233 265014.560000
   8149   8150     1   0.15375 251793.120000
   8149   8163     1   0.15375 251793.120000
   8149   8171     1   0.14316 258236.480000
   8150   8153     1   0.15375 251793.120000
   8150   8162     1   0.14233 265014.560000
   8153   8154     1   0.15375 251793.120000
   8153   8161     1   0.14233 265014.560000
   8154   8155     1   0.15375 251793.120000
   8154   8160     1   0.14233 265014.560000
   8155   8159     1   0.14316 258236.480000
   8155   8171     1   0.14316 258236.480000
   8163   8169     1   0.14233 265014.560000
   8172   8173     1   0.15375 251793.120000
   8172   8186     1   0.15375 251793.120000
   8172   8194     1   0.14316 258236.480000
   8173   8176     1   0.15375 251793.120000
   8173   8185     1   0.14233 265014.560000
   8176   8177     1   0.15375 251793.120000
   8176   8184     1   0.14233 265014.560000
   8177   8178     1   0.15375 251793.120000
   8177   8183     1   0.14233 265014.560000
   8178   8182     1   0.14316 258236.480000
   8178   8194     1   0.14316 258236.480000
   8186   8192     1   0.14233 265014.560000
   8195   8196     1   0.15375 251793.120000
   8195   8209     1   0.15375 251793.120000
   8195   8217     1   0.14316 258236.480000
   8196   8199     1   0.15375 251793.120000
   8196   8208     1   0.14233 265014.560000
   8199   8200     1   0.15375 251793.120000
   8199   8207     1   0.14233 265014.560000
   8200   8201     1   0.15375 251793.120000
   8200   8206     1   0.14233 265014.560000
   8201   8205     1   0.14316 258236.480000
   8201   8217     1   0.14316 258236.480000
   8209   8215     1   0.14233 265014.560000
   8218   8219     1   0.15375 251793.120000
   8218   8232     1   0.15375 251793.120000
   8218   8240     1   0.14316 258236.480000
   8219   8222     1   0.15375 251793.120000
   8219   8231     1   0.14233 265014.560000
   8222   8223     1   0.15375 251793.120000
   8222   8230     1   0.14233 265014.560000
   8223   8224     1   0.15375 251793.120000
   8223   8229     1   0.14233 265014.560000
   8224   8228     1   0.14316 258236.480000
   8224   8240     1   0.14316 258236.480000
   8232   8238     1   0.14233 265014.560000
   8241   8242     1   0.15375 251793.120000
   8241   8255     1   0.15375 251793.120000
   8241   8263     1   0.14316 258236.480000
   8242   8245     1   0.15375 251793.120000
   8242   8254     1   0.14233 265014.560000
   8245   8246     1   0.15375 251793.120000
   8245   8253     1   0.14233 265014.560000
   8246   8247     1   0.15375 251793.120000
   8246   8252     1   0.14233 265014.560000
   8247   8251     1   0.14316 258236.480000
   8247   8263     1   0.14316 258236.480000
   8255   8261     1   0.14233 265014.560000
   8264   8265     1   0.15375 251793.120000
   8264   8278     1   0.15375 251793.120000
   8264   8286     1   0.14316 258236.480000
   8265   8268     1   0.15375 251793.120000
   8265   8277     1   0.14233 265014.560000
   8268   8269     1   0.15375 251793.120000
   8268   8276     1   0.14233 265014.560000
   8269   8270     1   0.15375 251793.120000
   8269   8275     1   0.14233 265014.560000
   8270   8274     1   0.14316 258236.480000
   8270   8286     1   0.14316 258236.480000
   8278   8284     1   0.14233 265014.560000
   8287   8288     1   0.15375 251793.120000
   8287   8301     1   0.15375 251793.120000
   8287   8309     1   0.14316 258236.480000
   8288   8291     1   0.15375 251793.120000
   8288   8300     1   0.14233 265014.560000
   8291   8292     1   0.15375 251793.120000
   8291   8299     1   0.14233 265014.560000
   8292   8293     1   0.15375 251793.120000
   8292   8298     1   0.14233 265014.560000
   8293   8297     1   0.14316 258236.480000
   8293   8309     1   0.14316 258236.480000
   8301   8307     1   0.14233 265014.560000
   8310   8311     1   0.15375 251793.120000
   8310   8324     1   0.15375 251793.120000
   8310   8332     1   0.14316 258236.480000
   8311   8314     1   0.15375 251793.120000
   8311   8323     1   0.14233 265014.560000
   8314   8315     1   0.15375 251793.120000
   8314   8322     1   0.14233 265014.560000
   8315   8316     1   0.15375 251793.120000
   8315   8321     1   0.14233 265014.560000
   8316   8320     1   0.14316 258236.480000
   8316   8332     1   0.14316 258236.480000
   8324   8330     1   0.14233 265014.560000
   8333   8334     1   0.15375 251793.120000
   8333   8347     1   0.15375 251793.120000
   8333   8355     1   0.14316 258236.480000
   8334   8337     1   0.15375 251793.120000
   8334   8346     1   0.14233 265014.560000
   8337   8338     1   0.15375 251793.120000
   8337   8345     1   0.14233 265014.560000
   8338   8339     1   0.15375 251793.120000
   8338   8344     1   0.14233 265014.560000
   8339   8343     1   0.14316 258236.480000
   8339   8355     1   0.14316 258236.480000
   8347   8353     1   0.14233 265014.560000
   8356   8357     1   0.15375 251793.120000
   8356   8370     1   0.15375 251793.120000
   8356   8378     1   0.14316 258236.480000
   8357   8360     1   0.15375 251793.120000
   8357   8369     1   0.14233 265014.560000
   8360   8361     1   0.15375 251793.120000
   8360   8368     1   0.14233 265014.560000
   8361   8362     1   0.15375 251793.120000
   8361   8367     1   0.14233 265014.560000
   8362   8366     1   0.14316 258236.480000
   8362   8378     1   0.14316 258236.480000
   8370   8376     1   0.14233 265014.560000
   8379   8380     1   0.15375 251793.120000
   8379   8393     1   0.15375 251793.120000
   8379   8401     1   0.14316 258236.480000
   8380   8383     1   0.15375 251793.120000
   8380   8392     1   0.14233 265014.560000
   8383   8384     1   0.15375 251793.120000
   8383   8391     1   0.14233 265014.560000
   8384   8385     1   0.15375 251793.120000
   8384   8390     1   0.14233 265014.560000
   8385   8389     1   0.14316 258236.480000
   8385   8401     1   0.14316 258236.480000
   8393   8399     1   0.14233 265014.560000
   8402   8403     1   0.15375 251793.120000
   8402   8416     1   0.15375 251793.120000
   8402   8424     1   0.14316 258236.480000
   8403   8406     1   0.15375 251793.120000
   8403   8415     1   0.14233 265014.560000
   8406   8407     1   0.15375 251793.120000
   8406   8414     1   0.14233 265014.560000
   8407   8408     1   0.15375 251793.120000
   8407   8413     1   0.14233 265014.560000
   8408   8412     1   0.14316 258236.480000
   8408   8424     1   0.14316 258236.480000
   8416   8422     1   0.14233 265014.560000
   8425   8426     1   0.15375 251793.120000
   8425   8439     1   0.15375 251793.120000
   8425   8447     1   0.14316 258236.480000
   8426   8429     1   0.15375 251793.120000
   8426   8438     1   0.14233 265014.560000
   8429   8430     1   0.15375 251793.120000
   8429   8437     1   0.14233 265014.560000
   8430   8431     1   0.15375 251793.120000
   8430   8436     1   0.14233 265014.560000
   8431   8435     1   0.14316 258236.480000
   8431   8447     1   0.14316 258236.480000
   8439   8445     1   0.14233 265014.560000
   8448   8449     1   0.15375 251793.120000
   8448   8462     1   0.15375 251793.120000
   8448   8470     1   0.14316 258236.480000
   8449   8452     1   0.15375 251793.120000
   8449   8461     1   0.14233 265014.560000
   8452   8453     1   0.15375 251793.120000
   8452   8460     1   0.14233 265014.560000
   8453   8454     1   0.15375 251793.120000
   8453   8459     1   0.14233 265014.560000
   8454   8458     1   0.14316 258236.480000
   8454   8470     1   0.14316 258236.480000
   8462   8468     1   0.14233 265014.560000
   8471   8472     1   0.15375 251793.120000
   8471   8485     1   0.15375 251793.120000
   8471   8493     1   0.14316 258236.480000
   8472   8475     1   0.15375 251793.120000
   8472   8484     1   0.14233 265014.560000
   8475   8476     1   0.15375 251793.120000
   8475   8483     1   0.14233 265014.560000
   8476   8477     1   0.15375 251793.120000
   8476   8482     1   0.14233 265014.560000
   8477   8481     1   0.14316 258236.480000
   8477   8493     1   0.14316 258236.480000
   8485   8491     1   0.14233 265014.560000
   8494   8495     1   0.15375 251793.120000
   8494   8508     1   0.15375 251793.120000
   8494   8516     1   0.14316 258236.480000
   8495   8498     1   0.15375 251793.120000
   8495   8507     1   0.14233 265014.560000
   8498   8499     1   0.15375 251793.120000
   8498   8506     1   0.14233 265014.560000
   8499   8500     1   0.15375 251793.120000
   8499   8505     1   0.14233 265014.560000
   8500   8504     1   0.14316 258236.480000
   8500   8516     1   0.14316 258236.480000
   8508   8514     1   0.14233 265014.560000
   8517   8518     1   0.15375 251793.120000
   8517   8531     1   0.15375 251793.120000
   8517   8539     1   0.14316 258236.480000
   8518   8521     1   0.15375 251793.120000
   8518   8530     1   0.14233 265014.560000
   8521   8522     1   0.15375 251793.120000
   8521   8529     1   0.14233 265014.560000
   8522   8523     1   0.15375 251793.120000
   8522   8528     1   0.14233 265014.560000
   8523   8527     1   0.14316 258236.480000
   8523   8539     1   0.14316 258236.480000
   8531   8537     1   0.14233 265014.560000
   8540   8541     1   0.15375 251793.120000
   8540   8554     1   0.15375 251793.120000
   8540   8562     1   0.14316 258236.480000
   8541   8544     1   0.15375 251793.120000
   8541   8553     1   0.14233 265014.560000
   8544   8545     1   0.15375 251793.120000
   8544   8552     1   0.14233 265014.560000
   8545   8546     1   0.15375 251793.120000
   8545   8551     1   0.14233 265014.560000
   8546   8550     1   0.14316 258236.480000
   8546   8562     1   0.14316 258236.480000
   8554   8560     1   0.14233 265014.560000
   8563   8564     1   0.15375 251793.120000
   8563   8577     1   0.15375 251793.120000
   8563   8585     1   0.14316 258236.480000
   8564   8567     1   0.15375 251793.120000
   8564   8576     1   0.14233 265014.560000
   8567   8568     1   0.15375 251793.120000
   8567   8575     1   0.14233 265014.560000
   8568   8569     1   0.15375 251793.120000
   8568   8574     1   0.14233 265014.560000
   8569   8573     1   0.14316 258236.480000
   8569   8585     1   0.14316 258236.480000
   8577   8583     1   0.14233 265014.560000
   8586   8587     1   0.15375 251793.120000
   8586   8600     1   0.15375 251793.120000
   8586   8608     1   0.14316 258236.480000
   8587   8590     1   0.15375 251793.120000
   8587   8599     1   0.14233 265014.560000
   8590   8591     1   0.15375 251793.120000
   8590   8598     1   0.14233 265014.560000
   8591   8592     1   0.15375 251793.120000
   8591   8597     1   0.14233 265014.560000
   8592   8596     1   0.14316 258236.480000
   8592   8608     1   0.14316 258236.480000
   8600   8606     1   0.14233 265014.560000
   8609   8610     1   0.15375 251793.120000
   8609   8623     1   0.15375 251793.120000
   8609   8631     1   0.14316 258236.480000
   8610   8613     1   0.15375 251793.120000
   8610   8622     1   0.14233 265014.560000
   8613   8614     1   0.15375 251793.120000
   8613   8621     1   0.14233 265014.560000
   8614   8615     1   0.15375 251793.120000
   8614   8620     1   0.14233 265014.560000
   8615   8619     1   0.14316 258236.480000
   8615   8631     1   0.14316 258236.480000
   8623   8629     1   0.14233 265014.560000
   8632   8633     1   0.15375 251793.120000
   8632   8646     1   0.15375 251793.120000
   8632   8654     1   0.14316 258236.480000
   8633   8636     1   0.15375 251793.120000
   8633   8645     1   0.14233 265014.560000
   8636   8637     1   0.15375 251793.120000
   8636   8644     1   0.14233 265014.560000
   8637   8638     1   0.15375 251793.120000
   8637   8643     1   0.14233 265014.560000
   8638   8642     1   0.14316 258236.480000
   8638   8654     1   0.14316 258236.480000
   8646   8652     1   0.14233 265014.560000
   8655   8656     1   0.15375 251793.120000
   8655   8669     1   0.15375 251793.120000
   8655   8677     1   0.14316 258236.480000
   8656   8659     1   0.15375 251793.120000
   8656   8668     1   0.14233 265014.560000
   8659   8660     1   0.15375 251793.120000
   8659   8667     1   0.14233 265014.560000
   8660   8661     1   0.15375 251793.120000
   8660   8666     1   0.14233 265014.560000
   8661   8665     1   0.14316 258236.480000
   8661   8677     1   0.14316 258236.480000
   8669   8675     1   0.14233 265014.560000
   8678   8679     1   0.15375 251793.120000
   8678   8692     1   0.15375 251793.120000
   8678   8700     1   0.14316 258236.480000
   8679   8682     1   0.15375 251793.120000
   8679   8691     1   0.14233 265014.560000
   8682   8683     1   0.15375 251793.120000
   8682   8690     1   0.14233 265014.560000
   8683   8684     1   0.15375 251793.120000
   8683   8689     1   0.14233 265014.560000
   8684   8688     1   0.14316 258236.480000
   8684   8700     1   0.14316 258236.480000
   8692   8698     1   0.14233 265014.560000
   8701   8702     1   0.15375 251793.120000
   8701   8715     1   0.15375 251793.120000
   8701   8723     1   0.14316 258236.480000
   8702   8705     1   0.15375 251793.120000
   8702   8714     1   0.14233 265014.560000
   8705   8706     1   0.15375 251793.120000
   8705   8713     1   0.14233 265014.560000
   8706   8707     1   0.15375 251793.120000
   8706   8712     1   0.14233 265014.560000
   8707   8711     1   0.14316 258236.480000
   8707   8723     1   0.14316 258236.480000
   8715   8721     1   0.14233 265014.560000
   8724   8725     1   0.15375 251793.120000
   8724   8738     1   0.15375 251793.120000
   8724   8746     1   0.14316 258236.480000
   8725   8728     1   0.15375 251793.120000
   8725   8737     1   0.14233 265014.560000
   8728   8729     1   0.15375 251793.120000
   8728   8736     1   0.14233 265014.560000
   8729   8730     1   0.15375 251793.120000
   8729   8735     1   0.14233 265014.560000
   8730   8734     1   0.14316 258236.480000
   8730   8746     1   0.14316 258236.480000
   8738   8744     1   0.14233 265014.560000
   8747   8748     1   0.15375 251793.120000
   8747   8761     1   0.15375 251793.120000
   8747   8769     1   0.14316 258236.480000
   8748   8751     1   0.15375 251793.120000
   8748   8760     1   0.14233 265014.560000
   8751   8752     1   0.15375 251793.120000
   8751   8759     1   0.14233 265014.560000
   8752   8753     1   0.15375 251793.120000
   8752   8758     1   0.14233 265014.560000
   8753   8757     1   0.14316 258236.480000
   8753   8769     1   0.14316 258236.480000
   8761   8767     1   0.14233 265014.560000
   8770   8771     1   0.15375 251793.120000
   8770   8784     1   0.15375 251793.120000
   8770   8792     1   0.14316 258236.480000
   8771   8774     1   0.15375 251793.120000
   8771   8783     1   0.14233 265014.560000
   8774   8775     1   0.15375 251793.120000
   8774   8782     1   0.14233 265014.560000
   8775   8776     1   0.15375 251793.120000
   8775   8781     1   0.14233 265014.560000
   8776   8780     1   0.14316 258236.480000
   8776   8792     1   0.14316 258236.480000
   8784   8790     1   0.14233 265014.560000
   8793   8794     1   0.15375 251793.120000
   8793   8807     1   0.15375 251793.120000
   8793   8815     1   0.14316 258236.480000
   8794   8797     1   0.15375 251793.120000
   8794   8806     1   0.14233 265014.560000
   8797   8798     1   0.15375 251793.120000
   8797   8805     1   0.14233 265014.560000
   8798   8799     1   0.15375 251793.120000
   8798   8804     1   0.14233 265014.560000
   8799   8803     1   0.14316 258236.480000
   8799   8815     1   0.14316 258236.480000
   8807   8813     1   0.14233 265014.560000
   8816   8817     1   0.15375 251793.120000
   8816   8830     1   0.15375 251793.120000
   8816   8838     1   0.14316 258236.480000
   8817   8820     1   0.15375 251793.120000
   8817   8829     1   0.14233 265014.560000
   8820   8821     1   0.15375 251793.120000
   8820   8828     1   0.14233 265014.560000
   8821   8822     1   0.15375 251793.120000
   8821   8827     1   0.14233 265014.560000
   8822   8826     1   0.14316 258236.480000
   8822   8838     1   0.14316 258236.480000
   8830   8836     1   0.14233 265014.560000
   8839   8840     1   0.15375 251793.120000
   8839   8853     1   0.15375 251793.120000
   8839   8861     1   0.14316 258236.480000
   8840   8843     1   0.15375 251793.120000
   8840   8852     1   0.14233 265014.560000
   8843   8844     1   0.15375 251793.120000
   8843   8851     1   0.14233 265014.560000
   8844   8845     1   0.15375 251793.120000
   8844   8850     1   0.14233 265014.560000
   8845   8849     1   0.14316 258236.480000
   8845   8861     1   0.14316 258236.480000
   8853   8859     1   0.14233 265014.560000
   8862   8863     1   0.15375 251793.120000
   8862   8876     1   0.15375 251793.120000
   8862   8884     1   0.14316 258236.480000
   8863   8866     1   0.15375 251793.120000
   8863   8875     1   0.14233 265014.560000
   8866   8867     1   0.15375 251793.120000
   8866   8874     1   0.14233 265014.560000
   8867   8868     1   0.15375 251793.120000
   8867   8873     1   0.14233 265014.560000
   8868   8872     1   0.14316 258236.480000
   8868   8884     1   0.14316 258236.480000
   8876   8882     1   0.14233 265014.560000
   8885   8886     1   0.15375 251793.120000
   8885   8899     1   0.15375 251793.120000
   8885   8907     1   0.14316 258236.480000
   8886   8889     1   0.15375 251793.120000
   8886   8898     1   0.14233 265014.560000
   8889   8890     1   0.15375 251793.120000
   8889   8897     1   0.14233 265014.560000
   8890   8891     1   0.15375 251793.120000
   8890   8896     1   0.14233 265014.560000
   8891   8895     1   0.14316 258236.480000
   8891   8907     1   0.14316 258236.480000
   8899   8905     1   0.14233 265014.560000
   8908   8909     1   0.15375 251793.120000
   8908   8922     1   0.15375 251793.120000
   8908   8930     1   0.14316 258236.480000
   8909   8912     1   0.15375 251793.120000
   8909   8921     1   0.14233 265014.560000
   8912   8913     1   0.15375 251793.120000
   8912   8920     1   0.14233 265014.560000
   8913   8914     1   0.15375 251793.120000
   8913   8919     1   0.14233 265014.560000
   8914   8918     1   0.14316 258236.480000
   8914   8930     1   0.14316 258236.480000
   8922   8928     1   0.14233 265014.560000
   8931   8932     1   0.15375 251793.120000
   8931   8945     1   0.15375 251793.120000
   8931   8953     1   0.14316 258236.480000
   8932   8935     1   0.15375 251793.120000
   8932   8944     1   0.14233 265014.560000
   8935   8936     1   0.15375 251793.120000
   8935   8943     1   0.14233 265014.560000
   8936   8937     1   0.15375 251793.120000
   8936   8942     1   0.14233 265014.560000
   8937   8941     1   0.14316 258236.480000
   8937   8953     1   0.14316 258236.480000
   8945   8951     1   0.14233 265014.560000
   8954   8955     1   0.15375 251793.120000
   8954   8968     1   0.15375 251793.120000
   8954   8976     1   0.14316 258236.480000
   8955   8958     1   0.15375 251793.120000
   8955   8967     1   0.14233 265014.560000
   8958   8959     1   0.15375 251793.120000
   8958   8966     1   0.14233 265014.560000
   8959   8960     1   0.15375 251793.120000
   8959   8965     1   0.14233 265014.560000
   8960   8964     1   0.14316 258236.480000
   8960   8976     1   0.14316 258236.480000
   8968   8974     1   0.14233 265014.560000
   8977   8978     1   0.15375 251793.120000
   8977   8991     1   0.15375 251793.120000
   8977   8999     1   0.14316 258236.480000
   8978   8981     1   0.15375 251793.120000
   8978   8990     1   0.14233 265014.560000
   8981   8982     1   0.15375 251793.120000
   8981   8989     1   0.14233 265014.560000
   8982   8983     1   0.15375 251793.120000
   8982   8988     1   0.14233 265014.560000
   8983   8987     1   0.14316 258236.480000
   8983   8999     1   0.14316 258236.480000
   8991   8997     1   0.14233 265014.560000
   9000   9001     1   0.15375 251793.120000
   9000   9014     1   0.15375 251793.120000
   9000   9022     1   0.14316 258236.480000
   9001   9004     1   0.15375 251793.120000
   9001   9013     1   0.14233 265014.560000
   9004   9005     1   0.15375 251793.120000
   9004   9012     1   0.14233 265014.560000
   9005   9006     1   0.15375 251793.120000
   9005   9011     1   0.14233 265014.560000
   9006   9010     1   0.14316 258236.480000
   9006   9022     1   0.14316 258236.480000
   9014   9020     1   0.14233 265014.560000
   9023   9024     1   0.15375 251793.120000
   9023   9037     1   0.15375 251793.120000
   9023   9045     1   0.14316 258236.480000
   9024   9027     1   0.15375 251793.120000
   9024   9036     1   0.14233 265014.560000
   9027   9028     1   0.15375 251793.120000
   9027   9035     1   0.14233 265014.560000
   9028   9029     1   0.15375 251793.120000
   9028   9034     1   0.14233 265014.560000
   9029   9033     1   0.14316 258236.480000
   9029   9045     1   0.14316 258236.480000
   9037   9043     1   0.14233 265014.560000
   9046   9047     1   0.15375 251793.120000
   9046   9060     1   0.15375 251793.120000
   9046   9068     1   0.14316 258236.480000
   9047   9050     1   0.15375 251793.120000
   9047   9059     1   0.14233 265014.560000
   9050   9051     1   0.15375 251793.120000
   9050   9058     1   0.14233 265014.560000
   9051   9052     1   0.15375 251793.120000
   9051   9057     1   0.14233 265014.560000
   9052   9056     1   0.14316 258236.480000
   9052   9068     1   0.14316 258236.480000
   9060   9066     1   0.14233 265014.560000
   9069   9070     1   0.15375 251793.120000
   9069   9083     1   0.15375 251793.120000
   9069   9091     1   0.14316 258236.480000
   9070   9073     1   0.15375 251793.120000
   9070   9082     1   0.14233 265014.560000
   9073   9074     1   0.15375 251793.120000
   9073   9081     1   0.14233 265014.560000
   9074   9075     1   0.15375 251793.120000
   9074   9080     1   0.14233 265014.560000
   9075   9079     1   0.14316 258236.480000
   9075   9091     1   0.14316 258236.480000
   9083   9089     1   0.14233 265014.560000
   9092   9093     1   0.15375 251793.120000
   9092   9106     1   0.15375 251793.120000
   9092   9114     1   0.14316 258236.480000
   9093   9096     1   0.15375 251793.120000
   9093   9105     1   0.14233 265014.560000
   9096   9097     1   0.15375 251793.120000
   9096   9104     1   0.14233 265014.560000
   9097   9098     1   0.15375 251793.120000
   9097   9103     1   0.14233 265014.560000
   9098   9102     1   0.14316 258236.480000
   9098   9114     1   0.14316 258236.480000
   9106   9112     1   0.14233 265014.560000
   9115   9116     1   0.15375 251793.120000
   9115   9129     1   0.15375 251793.120000
   9115   9137     1   0.14316 258236.480000
   9116   9119     1   0.15375 251793.120000
   9116   9128     1   0.14233 265014.560000
   9119   9120     1   0.15375 251793.120000
   9119   9127     1   0.14233 265014.560000
   9120   9121     1   0.15375 251793.120000
   9120   9126     1   0.14233 265014.560000
   9121   9125     1   0.14316 258236.480000
   9121   9137     1   0.14316 258236.480000
   9129   9135     1   0.14233 265014.560000
   9138   9139     1   0.15375 251793.120000
   9138   9152     1   0.15375 251793.120000
   9138   9160     1   0.14316 258236.480000
   9139   9142     1   0.15375 251793.120000
   9139   9151     1   0.14233 265014.560000
   9142   9143     1   0.15375 251793.120000
   9142   9150     1   0.14233 265014.560000
   9143   9144     1   0.15375 251793.120000
   9143   9149     1   0.14233 265014.560000
   9144   9148     1   0.14316 258236.480000
   9144   9160     1   0.14316 258236.480000
   9152   9158     1   0.14233 265014.560000
   9161   9162     1   0.15375 251793.120000
   9161   9175     1   0.15375 251793.120000
   9161   9183     1   0.14316 258236.480000
   9162   9165     1   0.15375 251793.120000
   9162   9174     1   0.14233 265014.560000
   9165   9166     1   0.15375 251793.120000
   9165   9173     1   0.14233 265014.560000
   9166   9167     1   0.15375 251793.120000
   9166   9172     1   0.14233 265014.560000
   9167   9171     1   0.14316 258236.480000
   9167   9183     1   0.14316 258236.480000
   9175   9181     1   0.14233 265014.560000
   9184   9185     1   0.15375 251793.120000
   9184   9198     1   0.15375 251793.120000
   9184   9206     1   0.14316 258236.480000
   9185   9188     1   0.15375 251793.120000
   9185   9197     1   0.14233 265014.560000
   9188   9189     1   0.15375 251793.120000
   9188   9196     1   0.14233 265014.560000
   9189   9190     1   0.15375 251793.120000
   9189   9195     1   0.14233 265014.560000
   9190   9194     1   0.14316 258236.480000
   9190   9206     1   0.14316 258236.480000
   9198   9204     1   0.14233 265014.560000
   9207   9208     1   0.15375 251793.120000
   9207   9221     1   0.15375 251793.120000
   9207   9229     1   0.14316 258236.480000
   9208   9211     1   0.15375 251793.120000
   9208   9220     1   0.14233 265014.560000
   9211   9212     1   0.15375 251793.120000
   9211   9219     1   0.14233 265014.560000
   9212   9213     1   0.15375 251793.120000
   9212   9218     1   0.14233 265014.560000
   9213   9217     1   0.14316 258236.480000
   9213   9229     1   0.14316 258236.480000
   9221   9227     1   0.14233 265014.560000
   9230   9231     1   0.15375 251793.120000
   9230   9244     1   0.15375 251793.120000
   9230   9252     1   0.14316 258236.480000
   9231   9234     1   0.15375 251793.120000
   9231   9243     1   0.14233 265014.560000
   9234   9235     1   0.15375 251793.120000
   9234   9242     1   0.14233 265014.560000
   9235   9236     1   0.15375 251793.120000
   9235   9241     1   0.14233 265014.560000
   9236   9240     1   0.14316 258236.480000
   9236   9252     1   0.14316 258236.480000
   9244   9250     1   0.14233 265014.560000
   9253   9254     1   0.15375 251793.120000
   9253   9267     1   0.15375 251793.120000
   9253   9275     1   0.14316 258236.480000
   9254   9257     1   0.15375 251793.120000
   9254   9266     1   0.14233 265014.560000
   9257   9258     1   0.15375 251793.120000
   9257   9265     1   0.14233 265014.560000
   9258   9259     1   0.15375 251793.120000
   9258   9264     1   0.14233 265014.560000
   9259   9263     1   0.14316 258236.480000
   9259   9275     1   0.14316 258236.480000
   9267   9273     1   0.14233 265014.560000
   9276   9277     1   0.15375 251793.120000
   9276   9290     1   0.15375 251793.120000
   9276   9298     1   0.14316 258236.480000
   9277   9280     1   0.15375 251793.120000
   9277   9289     1   0.14233 265014.560000
   9280   9281     1   0.15375 251793.120000
   9280   9288     1   0.14233 265014.560000
   9281   9282     1   0.15375 251793.120000
   9281   9287     1   0.14233 265014.560000
   9282   9286     1   0.14316 258236.480000
   9282   9298     1   0.14316 258236.480000
   9290   9296     1   0.14233 265014.560000
   9299   9300     1   0.15375 251793.120000
   9299   9313     1   0.15375 251793.120000
   9299   9321     1   0.14316 258236.480000
   9300   9303     1   0.15375 251793.120000
   9300   9312     1   0.14233 265014.560000
   9303   9304     1   0.15375 251793.120000
   9303   9311     1   0.14233 265014.560000
   9304   9305     1   0.15375 251793.120000
   9304   9310     1   0.14233 265014.560000
   9305   9309     1   0.14316 258236.480000
   9305   9321     1   0.14316 258236.480000
   9313   9319     1   0.14233 265014.560000
   9322   9323     1   0.15375 251793.120000
   9322   9336     1   0.15375 251793.120000
   9322   9344     1   0.14316 258236.480000
   9323   9326     1   0.15375 251793.120000
   9323   9335     1   0.14233 265014.560000
   9326   9327     1   0.15375 251793.120000
   9326   9334     1   0.14233 265014.560000
   9327   9328     1   0.15375 251793.120000
   9327   9333     1   0.14233 265014.560000
   9328   9332     1   0.14316 258236.480000
   9328   9344     1   0.14316 258236.480000
   9336   9342     1   0.14233 265014.560000
   9345   9346     1   0.15375 251793.120000
   9345   9359     1   0.15375 251793.120000
   9345   9367     1   0.14316 258236.480000
   9346   9349     1   0.15375 251793.120000
   9346   9358     1   0.14233 265014.560000
   9349   9350     1   0.15375 251793.120000
   9349   9357     1   0.14233 265014.560000
   9350   9351     1   0.15375 251793.120000
   9350   9356     1   0.14233 265014.560000
   9351   9355     1   0.14316 258236.480000
   9351   9367     1   0.14316 258236.480000
   9359   9365     1   0.14233 265014.560000
   9368   9369     1   0.15375 251793.120000
   9368   9382     1   0.15375 251793.120000
   9368   9390     1   0.14316 258236.480000
   9369   9372     1   0.15375 251793.120000
   9369   9381     1   0.14233 265014.560000
   9372   9373     1   0.15375 251793.120000
   9372   9380     1   0.14233 265014.560000
   9373   9374     1   0.15375 251793.120000
   9373   9379     1   0.14233 265014.560000
   9374   9378     1   0.14316 258236.480000
   9374   9390     1   0.14316 258236.480000
   9382   9388     1   0.14233 265014.560000
   9391   9392     1   0.15375 251793.120000
   9391   9405     1   0.15375 251793.120000
   9391   9413     1   0.14316 258236.480000
   9392   9395     1   0.15375 251793.120000
   9392   9404     1   0.14233 265014.560000
   9395   9396     1   0.15375 251793.120000
   9395   9403     1   0.14233 265014.560000
   9396   9397     1   0.15375 251793.120000
   9396   9402     1   0.14233 265014.560000
   9397   9401     1   0.14316 258236.480000
   9397   9413     1   0.14316 258236.480000
   9405   9411     1   0.14233 265014.560000
   9414   9415     1   0.15375 251793.120000
   9414   9428     1   0.15375 251793.120000
   9414   9436     1   0.14316 258236.480000
   9415   9418     1   0.15375 251793.120000
   9415   9427     1   0.14233 265014.560000
   9418   9419     1   0.15375 251793.120000
   9418   9426     1   0.14233 265014.560000
   9419   9420     1   0.15375 251793.120000
   9419   9425     1   0.14233 265014.560000
   9420   9424     1   0.14316 258236.480000
   9420   9436     1   0.14316 258236.480000
   9428   9434     1   0.14233 265014.560000
   9437   9438     1   0.15375 251793.120000
   9437   9451     1   0.15375 251793.120000
   9437   9459     1   0.14316 258236.480000
   9438   9441     1   0.15375 251793.120000
   9438   9450     1   0.14233 265014.560000
   9441   9442     1   0.15375 251793.120000
   9441   9449     1   0.14233 265014.560000
   9442   9443     1   0.15375 251793.120000
   9442   9448     1   0.14233 265014.560000
   9443   9447     1   0.14316 258236.480000
   9443   9459     1   0.14316 258236.480000
   9451   9457     1   0.14233 265014.560000
   9460   9461     1   0.15375 251793.120000
   9460   9474     1   0.15375 251793.120000
   9460   9482     1   0.14316 258236.480000
   9461   9464     1   0.15375 251793.120000
   9461   9473     1   0.14233 265014.560000
   9464   9465     1   0.15375 251793.120000
   9464   9472     1   0.14233 265014.560000
   9465   9466     1   0.15375 251793.120000
   9465   9471     1   0.14233 265014.560000
   9466   9470     1   0.14316 258236.480000
   9466   9482     1   0.14316 258236.480000
   9474   9480     1   0.14233 265014.560000
   9483   9484     1   0.15375 251793.120000
   9483   9497     1   0.15375 251793.120000
   9483   9505     1   0.14316 258236.480000
   9484   9487     1   0.15375 251793.120000
   9484   9496     1   0.14233 265014.560000
   9487   9488     1   0.15375 251793.120000
   9487   9495     1   0.14233 265014.560000
   9488   9489     1   0.15375 251793.120000
   9488   9494     1   0.14233 265014.560000
   9489   9493     1   0.14316 258236.480000
   9489   9505     1   0.14316 258236.480000
   9497   9503     1   0.14233 265014.560000
   9506   9507     1   0.15375 251793.120000
   9506   9520     1   0.15375 251793.120000
   9506   9528     1   0.14316 258236.480000
   9507   9510     1   0.15375 251793.120000
   9507   9519     1   0.14233 265014.560000
   9510   9511     1   0.15375 251793.120000
   9510   9518     1   0.14233 265014.560000
   9511   9512     1   0.15375 251793.120000
   9511   9517     1   0.14233 265014.560000
   9512   9516     1   0.14316 258236.480000
   9512   9528     1   0.14316 258236.480000
   9520   9526     1   0.14233 265014.560000
   9529   9530     1   0.15375 251793.120000
   9529   9543     1   0.15375 251793.120000
   9529   9551     1   0.14316 258236.480000
   9530   9533     1   0.15375 251793.120000
   9530   9542     1   0.14233 265014.560000
   9533   9534     1   0.15375 251793.120000
   9533   9541     1   0.14233 265014.560000
   9534   9535     1   0.15375 251793.120000
   9534   9540     1   0.14233 265014.560000
   9535   9539     1   0.14316 258236.480000
   9535   9551     1   0.14316 258236.480000
   9543   9549     1   0.14233 265014.560000
   9552   9553     1   0.15375 251793.120000
   9552   9566     1   0.15375 251793.120000
   9552   9574     1   0.14316 258236.480000
   9553   9556     1   0.15375 251793.120000
   9553   9565     1   0.14233 265014.560000
   9556   9557     1   0.15375 251793.120000
   9556   9564     1   0.14233 265014.560000
   9557   9558     1   0.15375 251793.120000
   9557   9563     1   0.14233 265014.560000
   9558   9562     1   0.14316 258236.480000
   9558   9574     1   0.14316 258236.480000
   9566   9572     1   0.14233 265014.560000
   9575   9576     1   0.15375 251793.120000
   9575   9589     1   0.15375 251793.120000
   9575   9597     1   0.14316 258236.480000
   9576   9579     1   0.15375 251793.120000
   9576   9588     1   0.14233 265014.560000
   9579   9580     1   0.15375 251793.120000
   9579   9587     1   0.14233 265014.560000
   9580   9581     1   0.15375 251793.120000
   9580   9586     1   0.14233 265014.560000
   9581   9585     1   0.14316 258236.480000
   9581   9597     1   0.14316 258236.480000
   9589   9595     1   0.14233 265014.560000
   9598   9599     1   0.15375 251793.120000
   9598   9612     1   0.15375 251793.120000
   9598   9620     1   0.14316 258236.480000
   9599   9602     1   0.15375 251793.120000
   9599   9611     1   0.14233 265014.560000
   9602   9603     1   0.15375 251793.120000
   9602   9610     1   0.14233 265014.560000
   9603   9604     1   0.15375 251793.120000
   9603   9609     1   0.14233 265014.560000
   9604   9608     1   0.14316 258236.480000
   9604   9620     1   0.14316 258236.480000
   9612   9618     1   0.14233 265014.560000
   9621   9622     1   0.15375 251793.120000
   9621   9635     1   0.15375 251793.120000
   9621   9643     1   0.14316 258236.480000
   9622   9625     1   0.15375 251793.120000
   9622   9634     1   0.14233 265014.560000
   9625   9626     1   0.15375 251793.120000
   9625   9633     1   0.14233 265014.560000
   9626   9627     1   0.15375 251793.120000
   9626   9632     1   0.14233 265014.560000
   9627   9631     1   0.14316 258236.480000
   9627   9643     1   0.14316 258236.480000
   9635   9641     1   0.14233 265014.560000
   9644   9645     1   0.15375 251793.120000
   9644   9658     1   0.15375 251793.120000
   9644   9666     1   0.14316 258236.480000
   9645   9648     1   0.15375 251793.120000
   9645   9657     1   0.14233 265014.560000
   9648   9649     1   0.15375 251793.120000
   9648   9656     1   0.14233 265014.560000
   9649   9650     1   0.15375 251793.120000
   9649   9655     1   0.14233 265014.560000
   9650   9654     1   0.14316 258236.480000
   9650   9666     1   0.14316 258236.480000
   9658   9664     1   0.14233 265014.560000
   9667   9668     1   0.15375 251793.120000
   9667   9681     1   0.15375 251793.120000
   9667   9689     1   0.14316 258236.480000
   9668   9671     1   0.15375 251793.120000
   9668   9680     1   0.14233 265014.560000
   9671   9672     1   0.15375 251793.120000
   9671   9679     1   0.14233 265014.560000
   9672   9673     1   0.15375 251793.120000
   9672   9678     1   0.14233 265014.560000
   9673   9677     1   0.14316 258236.480000
   9673   9689     1   0.14316 258236.480000
   9681   9687     1   0.14233 265014.560000
   9690   9691     1   0.15375 251793.120000
   9690   9704     1   0.15375 251793.120000
   9690   9712     1   0.14316 258236.480000
   9691   9694     1   0.15375 251793.120000
   9691   9703     1   0.14233 265014.560000
   9694   9695     1   0.15375 251793.120000
   9694   9702     1   0.14233 265014.560000
   9695   9696     1   0.15375 251793.120000
   9695   9701     1   0.14233 265014.560000
   9696   9700     1   0.14316 258236.480000
   9696   9712     1   0.14316 258236.480000
   9704   9710     1   0.14233 265014.560000
   9713   9714     1   0.15375 251793.120000
   9713   9727     1   0.15375 251793.120000
   9713   9735     1   0.14316 258236.480000
   9714   9717     1   0.15375 251793.120000
   9714   9726     1   0.14233 265014.560000
   9717   9718     1   0.15375 251793.120000
   9717   9725     1   0.14233 265014.560000
   9718   9719     1   0.15375 251793.120000
   9718   9724     1   0.14233 265014.560000
   9719   9723     1   0.14316 258236.480000
   9719   9735     1   0.14316 258236.480000
   9727   9733     1   0.14233 265014.560000
   9736   9737     1   0.15375 251793.120000
   9736   9750     1   0.15375 251793.120000
   9736   9758     1   0.14316 258236.480000
   9737   9740     1   0.15375 251793.120000
   9737   9749     1   0.14233 265014.560000
   9740   9741     1   0.15375 251793.120000
   9740   9748     1   0.14233 265014.560000
   9741   9742     1   0.15375 251793.120000
   9741   9747     1   0.14233 265014.560000
   9742   9746     1   0.14316 258236.480000
   9742   9758     1   0.14316 258236.480000
   9750   9756     1   0.14233 265014.560000
   9759   9760     1   0.15375 251793.120000
   9759   9773     1   0.15375 251793.120000
   9759   9781     1   0.14316 258236.480000
   9760   9763     1   0.15375 251793.120000
   9760   9772     1   0.14233 265014.560000
   9763   9764     1   0.15375 251793.120000
   9763   9771     1   0.14233 265014.560000
   9764   9765     1   0.15375 251793.120000
   9764   9770     1   0.14233 265014.560000
   9765   9769     1   0.14316 258236.480000
   9765   9781     1   0.14316 258236.480000
   9773   9779     1   0.14233 265014.560000
   9782   9783     1   0.15375 251793.120000
   9782   9796     1   0.15375 251793.120000
   9782   9804     1   0.14316 258236.480000
   9783   9786     1   0.15375 251793.120000
   9783   9795     1   0.14233 265014.560000
   9786   9787     1   0.15375 251793.120000
   9786   9794     1   0.14233 265014.560000
   9787   9788     1   0.15375 251793.120000
   9787   9793     1   0.14233 265014.560000
   9788   9792     1   0.14316 258236.480000
   9788   9804     1   0.14316 258236.480000
   9796   9802     1   0.14233 265014.560000
   9805   9806     1   0.15375 251793.120000
   9805   9819     1   0.15375 251793.120000
   9805   9827     1   0.14316 258236.480000
   9806   9809     1   0.15375 251793.120000
   9806   9818     1   0.14233 265014.560000
   9809   9810     1   0.15375 251793.120000
   9809   9817     1   0.14233 265014.560000
   9810   9811     1   0.15375 251793.120000
   9810   9816     1   0.14233 265014.560000
   9811   9815     1   0.14316 258236.480000
   9811   9827     1   0.14316 258236.480000
   9819   9825     1   0.14233 265014.560000
   9828   9829     1   0.15375 251793.120000
   9828   9842     1   0.15375 251793.120000
   9828   9850     1   0.14316 258236.480000
   9829   9832     1   0.15375 251793.120000
   9829   9841     1   0.14233 265014.560000
   9832   9833     1   0.15375 251793.120000
   9832   9840     1   0.14233 265014.560000
   9833   9834     1   0.15375 251793.120000
   9833   9839     1   0.14233 265014.560000
   9834   9838     1   0.14316 258236.480000
   9834   9850     1   0.14316 258236.480000
   9842   9848     1   0.14233 265014.560000
   9851   9852     1   0.15375 251793.120000
   9851   9865     1   0.15375 251793.120000
   9851   9873     1   0.14316 258236.480000
   9852   9855     1   0.15375 251793.120000
   9852   9864     1   0.14233 265014.560000
   9855   9856     1   0.15375 251793.120000
   9855   9863     1   0.14233 265014.560000
   9856   9857     1   0.15375 251793.120000
   9856   9862     1   0.14233 265014.560000
   9857   9861     1   0.14316 258236.480000
   9857   9873     1   0.14316 258236.480000
   9865   9871     1   0.14233 265014.560000
   9874   9875     1   0.15375 251793.120000
   9874   9888     1   0.15375 251793.120000
   9874   9896     1   0.14316 258236.480000
   9875   9878     1   0.15375 251793.120000
   9875   9887     1   0.14233 265014.560000
   9878   9879     1   0.15375 251793.120000
   9878   9886     1   0.14233 265014.560000
   9879   9880     1   0.15375 251793.120000
   9879   9885     1   0.14233 265014.560000
   9880   9884     1   0.14316 258236.480000
   9880   9896     1   0.14316 258236.480000
   9888   9894     1   0.14233 265014.560000
   9897   9898     1   0.15375 251793.120000
   9897   9911     1   0.15375 251793.120000
   9897   9919     1   0.14316 258236.480000
   9898   9901     1   0.15375 251793.120000
   9898   9910     1   0.14233 265014.560000
   9901   9902     1   0.15375 251793.120000
   9901   9909     1   0.14233 265014.560000
   9902   9903     1   0.15375 251793.120000
   9902   9908     1   0.14233 265014.560000
   9903   9907     1   0.14316 258236.480000
   9903   9919     1   0.14316 258236.480000
   9911   9917     1   0.14233 265014.560000
   9920   9921     1   0.15375 251793.120000
   9920   9934     1   0.15375 251793.120000
   9920   9942     1   0.14316 258236.480000
   9921   9924     1   0.15375 251793.120000
   9921   9933     1   0.14233 265014.560000
   9924   9925     1   0.15375 251793.120000
   9924   9932     1   0.14233 265014.560000
   9925   9926     1   0.15375 251793.120000
   9925   9931     1   0.14233 265014.560000
   9926   9930     1   0.14316 258236.480000
   9926   9942     1   0.14316 258236.480000
   9934   9940     1   0.14233 265014.560000
   9943   9944     1   0.15375 251793.120000
   9943   9957     1   0.15375 251793.120000
   9943   9965     1   0.14316 258236.480000
   9944   9947     1   0.15375 251793.120000
   9944   9956     1   0.14233 265014.560000
   9947   9948     1   0.15375 251793.120000
   9947   9955     1   0.14233 265014.560000
   9948   9949     1   0.15375 251793.120000
   9948   9954     1   0.14233 265014.560000
   9949   9953     1   0.14316 258236.480000
   9949   9965     1   0.14316 258236.480000
   9957   9963     1   0.14233 265014.560000
   9966   9967     1   0.15375 251793.120000
   9966   9980     1   0.15375 251793.120000
   9966   9988     1   0.14316 258236.480000
   9967   9970     1   0.15375 251793.120000
   9967   9979     1   0.14233 265014.560000
   9970   9971     1   0.15375 251793.120000
   9970   9978     1   0.14233 265014.560000
   9971   9972     1   0.15375 251793.120000
   9971   9977     1   0.14233 265014.560000
   9972   9976     1   0.14316 258236.480000
   9972   9988     1   0.14316 258236.480000
   9980   9986     1   0.14233 265014.560000
   9989   9990     1   0.15375 251793.120000
   9989  10003     1   0.15375 251793.120000
   9989  10011     1   0.14316 258236.480000
   9990   9993     1   0.15375 251793.120000
   9990  10002     1   0.14233 265014.560000
   9993   9994     1   0.15375 251793.120000
   9993  10001     1   0.14233 265014.560000
   9994   9995     1   0.15375 251793.120000
   9994  10000     1   0.14233 265014.560000
   9995   9999     1   0.14316 258236.480000
   9995  10011     1   0.14316 258236.480000
  10003  10009     1   0.14233 265014.560000
  10012  10013     1   0.15375 251793.120000
  10012  10026     1   0.15375 251793.120000
  10012  10034     1   0.14316 258236.480000
  10013  10016     1   0.15375 251793.120000
  10013  10025     1   0.14233 265014.560000
  10016  10017     1   0.15375 251793.120000
  10016  10024     1   0.14233 265014.560000
  10017  10018     1   0.15375 251793.120000
  10017  10023     1   0.14233 265014.560000
  10018  10022     1   0.14316 258236.480000
  10018  10034     1   0.14316 258236.480000
  10026  10032     1   0.14233 265014.560000
  10035  10036     1   0.15375 251793.120000
  10035  10049     1   0.15375 251793.120000
  10035  10057     1   0.14316 258236.480000
  10036  10039     1   0.15375 251793.120000
  10036  10048     1   0.14233 265014.560000
  10039  10040     1   0.15375 251793.120000
  10039  10047     1   0.14233 265014.560000
  10040  10041     1   0.15375 251793.120000
  10040  10046     1   0.14233 265014.560000
  10041  10045     1   0.14316 258236.480000
  10041  10057     1   0.14316 258236.480000
  10049  10055     1   0.14233 265014.560000
  10058  10059     1   0.15375 251793.120000
  10058  10072     1   0.15375 251793.120000
  10058  10080     1   0.14316 258236.480000
  10059  10062     1   0.15375 251793.120000
  10059  10071     1   0.14233 265014.560000
  10062  10063     1   0.15375 251793.120000
  10062  10070     1   0.14233 265014.560000
  10063  10064     1   0.15375 251793.120000
  10063  10069     1   0.14233 265014.560000
  10064  10068     1   0.14316 258236.480000
  10064  10080     1   0.14316 258236.480000
  10072  10078     1   0.14233 265014.560000
  10081  10082     1   0.15375 251793.120000
  10081  10095     1   0.15375 251793.120000
  10081  10103     1   0.14316 258236.480000
  10082  10085     1   0.15375 251793.120000
  10082  10094     1   0.14233 265014.560000
  10085  10086     1   0.15375 251793.120000
  10085  10093     1   0.14233 265014.560000
  10086  10087     1   0.15375 251793.120000
  10086  10092     1   0.14233 265014.560000
  10087  10091     1   0.14316 258236.480000
  10087  10103     1   0.14316 258236.480000
  10095  10101     1   0.14233 265014.560000
  10104  10105     1   0.15375 251793.120000
  10104  10118     1   0.15375 251793.120000
  10104  10126     1   0.14316 258236.480000
  10105  10108     1   0.15375 251793.120000
  10105  10117     1   0.14233 265014.560000
  10108  10109     1   0.15375 251793.120000
  10108  10116     1   0.14233 265014.560000
  10109  10110     1   0.15375 251793.120000
  10109  10115     1   0.14233 265014.560000
  10110  10114     1   0.14316 258236.480000
  10110  10126     1   0.14316 258236.480000
  10118  10124     1   0.14233 265014.560000
  10127  10128     1   0.15375 251793.120000
  10127  10141     1   0.15375 251793.120000
  10127  10149     1   0.14316 258236.480000
  10128  10131     1   0.15375 251793.120000
  10128  10140     1   0.14233 265014.560000
  10131  10132     1   0.15375 251793.120000
  10131  10139     1   0.14233 265014.560000
  10132  10133     1   0.15375 251793.120000
  10132  10138     1   0.14233 265014.560000
  10133  10137     1   0.14316 258236.480000
  10133  10149     1   0.14316 258236.480000
  10141  10147     1   0.14233 265014.560000
  10150  10151     1   0.15375 251793.120000
  10150  10164     1   0.15375 251793.120000
  10150  10172     1   0.14316 258236.480000
  10151  10154     1   0.15375 251793.120000
  10151  10163     1   0.14233 265014.560000
  10154  10155     1   0.15375 251793.120000
  10154  10162     1   0.14233 265014.560000
  10155  10156     1   0.15375 251793.120000
  10155  10161     1   0.14233 265014.560000
  10156  10160     1   0.14316 258236.480000
  10156  10172     1   0.14316 258236.480000
  10164  10170     1   0.14233 265014.560000
  10173  10174     1   0.15375 251793.120000
  10173  10187     1   0.15375 251793.120000
  10173  10195     1   0.14316 258236.480000
  10174  10177     1   0.15375 251793.120000
  10174  10186     1   0.14233 265014.560000
  10177  10178     1   0.15375 251793.120000
  10177  10185     1   0.14233 265014.560000
  10178  10179     1   0.15375 251793.120000
  10178  10184     1   0.14233 265014.560000
  10179  10183     1   0.14316 258236.480000
  10179  10195     1   0.14316 258236.480000
  10187  10193     1   0.14233 265014.560000
  10196  10197     1   0.15375 251793.120000
  10196  10210     1   0.15375 251793.120000
  10196  10218     1   0.14316 258236.480000
  10197  10200     1   0.15375 251793.120000
  10197  10209     1   0.14233 265014.560000
  10200  10201     1   0.15375 251793.120000
  10200  10208     1   0.14233 265014.560000
  10201  10202     1   0.15375 251793.120000
  10201  10207     1   0.14233 265014.560000
  10202  10206     1   0.14316 258236.480000
  10202  10218     1   0.14316 258236.480000
  10210  10216     1   0.14233 265014.560000
  10219  10220     1   0.15375 251793.120000
  10219  10233     1   0.15375 251793.120000
  10219  10241     1   0.14316 258236.480000
  10220  10223     1   0.15375 251793.120000
  10220  10232     1   0.14233 265014.560000
  10223  10224     1   0.15375 251793.120000
  10223  10231     1   0.14233 265014.560000
  10224  10225     1   0.15375 251793.120000
  10224  10230     1   0.14233 265014.560000
  10225  10229     1   0.14316 258236.480000
  10225  10241     1   0.14316 258236.480000
  10233  10239     1   0.14233 265014.560000
  10242  10243     1   0.15375 251793.120000
  10242  10256     1   0.15375 251793.120000
  10242  10264     1   0.14316 258236.480000
  10243  10246     1   0.15375 251793.120000
  10243  10255     1   0.14233 265014.560000
  10246  10247     1   0.15375 251793.120000
  10246  10254     1   0.14233 265014.560000
  10247  10248     1   0.15375 251793.120000
  10247  10253     1   0.14233 265014.560000
  10248  10252     1   0.14316 258236.480000
  10248  10264     1   0.14316 258236.480000
  10256  10262     1   0.14233 265014.560000
  10265  10266     1   0.15375 251793.120000
  10265  10279     1   0.15375 251793.120000
  10265  10287     1   0.14316 258236.480000
  10266  10269     1   0.15375 251793.120000
  10266  10278     1   0.14233 265014.560000
  10269  10270     1   0.15375 251793.120000
  10269  10277     1   0.14233 265014.560000
  10270  10271     1   0.15375 251793.120000
  10270  10276     1   0.14233 265014.560000
  10271  10275     1   0.14316 258236.480000
  10271  10287     1   0.14316 258236.480000
  10279  10285     1   0.14233 265014.560000
  10288  10289     1   0.15375 251793.120000
  10288  10302     1   0.15375 251793.120000
  10288  10310     1   0.14316 258236.480000
  10289  10292     1   0.15375 251793.120000
  10289  10301     1   0.14233 265014.560000
  10292  10293     1   0.15375 251793.120000
  10292  10300     1   0.14233 265014.560000
  10293  10294     1   0.15375 251793.120000
  10293  10299     1   0.14233 265014.560000
  10294  10298     1   0.14316 258236.480000
  10294  10310     1   0.14316 258236.480000
  10302  10308     1   0.14233 265014.560000
  10311  10312     1   0.15375 251793.120000
  10311  10325     1   0.15375 251793.120000
  10311  10333     1   0.14316 258236.480000
  10312  10315     1   0.15375 251793.120000
  10312  10324     1   0.14233 265014.560000
  10315  10316     1   0.15375 251793.120000
  10315  10323     1   0.14233 265014.560000
  10316  10317     1   0.15375 251793.120000
  10316  10322     1   0.14233 265014.560000
  10317  10321     1   0.14316 258236.480000
  10317  10333     1   0.14316 258236.480000
  10325  10331     1   0.14233 265014.560000
  10334  10335     1   0.15375 251793.120000
  10334  10348     1   0.15375 251793.120000
  10334  10356     1   0.14316 258236.480000
  10335  10338     1   0.15375 251793.120000
  10335  10347     1   0.14233 265014.560000
  10338  10339     1   0.15375 251793.120000
  10338  10346     1   0.14233 265014.560000
  10339  10340     1   0.15375 251793.120000
  10339  10345     1   0.14233 265014.560000
  10340  10344     1   0.14316 258236.480000
  10340  10356     1   0.14316 258236.480000
  10348  10354     1   0.14233 265014.560000
  10357  10358     1   0.15375 251793.120000
  10357  10371     1   0.15375 251793.120000
  10357  10379     1   0.14316 258236.480000
  10358  10361     1   0.15375 251793.120000
  10358  10370     1   0.14233 265014.560000
  10361  10362     1   0.15375 251793.120000
  10361  10369     1   0.14233 265014.560000
  10362  10363     1   0.15375 251793.120000
  10362  10368     1   0.14233 265014.560000
  10363  10367     1   0.14316 258236.480000
  10363  10379     1   0.14316 258236.480000
  10371  10377     1   0.14233 265014.560000
  10380  10381     1   0.15375 251793.120000
  10380  10394     1   0.15375 251793.120000
  10380  10402     1   0.14316 258236.480000
  10381  10384     1   0.15375 251793.120000
  10381  10393     1   0.14233 265014.560000
  10384  10385     1   0.15375 251793.120000
  10384  10392     1   0.14233 265014.560000
  10385  10386     1   0.15375 251793.120000
  10385  10391     1   0.14233 265014.560000
  10386  10390     1   0.14316 258236.480000
  10386  10402     1   0.14316 258236.480000
  10394  10400     1   0.14233 265014.560000
  10403  10404     1   0.15375 251793.120000
  10403  10417     1   0.15375 251793.120000
  10403  10425     1   0.14316 258236.480000
  10404  10407     1   0.15375 251793.120000
  10404  10416     1   0.14233 265014.560000
  10407  10408     1   0.15375 251793.120000
  10407  10415     1   0.14233 265014.560000
  10408  10409     1   0.15375 251793.120000
  10408  10414     1   0.14233 265014.560000
  10409  10413     1   0.14316 258236.480000
  10409  10425     1   0.14316 258236.480000
  10417  10423     1   0.14233 265014.560000
  10426  10427     1   0.15375 251793.120000
  10426  10440     1   0.15375 251793.120000
  10426  10448     1   0.14316 258236.480000
  10427  10430     1   0.15375 251793.120000
  10427  10439     1   0.14233 265014.560000
  10430  10431     1   0.15375 251793.120000
  10430  10438     1   0.14233 265014.560000
  10431  10432     1   0.15375 251793.120000
  10431  10437     1   0.14233 265014.560000
  10432  10436     1   0.14316 258236.480000
  10432  10448     1   0.14316 258236.480000
  10440  10446     1   0.14233 265014.560000
  10449  10450     1   0.15375 251793.120000
  10449  10463     1   0.15375 251793.120000
  10449  10471     1   0.14316 258236.480000
  10450  10453     1   0.15375 251793.120000
  10450  10462     1   0.14233 265014.560000
  10453  10454     1   0.15375 251793.120000
  10453  10461     1   0.14233 265014.560000
  10454  10455     1   0.15375 251793.120000
  10454  10460     1   0.14233 265014.560000
  10455  10459     1   0.14316 258236.480000
  10455  10471     1   0.14316 258236.480000
  10463  10469     1   0.14233 265014.560000
  10472  10473     1   0.15375 251793.120000
  10472  10486     1   0.15375 251793.120000
  10472  10494     1   0.14316 258236.480000
  10473  10476     1   0.15375 251793.120000
  10473  10485     1   0.14233 265014.560000
  10476  10477     1   0.15375 251793.120000
  10476  10484     1   0.14233 265014.560000
  10477  10478     1   0.15375 251793.120000
  10477  10483     1   0.14233 265014.560000
  10478  10482     1   0.14316 258236.480000
  10478  10494     1   0.14316 258236.480000
  10486  10492     1   0.14233 265014.560000
  10495  10496     1   0.15375 251793.120000
  10495  10509     1   0.15375 251793.120000
  10495  10517     1   0.14316 258236.480000
  10496  10499     1   0.15375 251793.120000
  10496  10508     1   0.14233 265014.560000
  10499  10500     1   0.15375 251793.120000
  10499  10507     1   0.14233 265014.560000
  10500  10501     1   0.15375 251793.120000
  10500  10506     1   0.14233 265014.560000
  10501  10505     1   0.14316 258236.480000
  10501  10517     1   0.14316 258236.480000
  10509  10515     1   0.14233 265014.560000
  10518  10519     1   0.15375 251793.120000
  10518  10532     1   0.15375 251793.120000
  10518  10540     1   0.14316 258236.480000
  10519  10522     1   0.15375 251793.120000
  10519  10531     1   0.14233 265014.560000
  10522  10523     1   0.15375 251793.120000
  10522  10530     1   0.14233 265014.560000
  10523  10524     1   0.15375 251793.120000
  10523  10529     1   0.14233 265014.560000
  10524  10528     1   0.14316 258236.480000
  10524  10540     1   0.14316 258236.480000
  10532  10538     1   0.14233 265014.560000
  10541  10542     1   0.15375 251793.120000
  10541  10555     1   0.15375 251793.120000
  10541  10563     1   0.14316 258236.480000
  10542  10545     1   0.15375 251793.120000
  10542  10554     1   0.14233 265014.560000
  10545  10546     1   0.15375 251793.120000
  10545  10553     1   0.14233 265014.560000
  10546  10547     1   0.15375 251793.120000
  10546  10552     1   0.14233 265014.560000
  10547  10551     1   0.14316 258236.480000
  10547  10563     1   0.14316 258236.480000
  10555  10561     1   0.14233 265014.560000
  10564  10565     1   0.15375 251793.120000
  10564  10578     1   0.15375 251793.120000
  10564  10586     1   0.14316 258236.480000
  10565  10568     1   0.15375 251793.120000
  10565  10577     1   0.14233 265014.560000
  10568  10569     1   0.15375 251793.120000
  10568  10576     1   0.14233 265014.560000
  10569  10570     1   0.15375 251793.120000
  10569  10575     1   0.14233 265014.560000
  10570  10574     1   0.14316 258236.480000
  10570  10586     1   0.14316 258236.480000
  10578  10584     1   0.14233 265014.560000
  10587  10588     1   0.15375 251793.120000
  10587  10601     1   0.15375 251793.120000
  10587  10609     1   0.14316 258236.480000
  10588  10591     1   0.15375 251793.120000
  10588  10600     1   0.14233 265014.560000
  10591  10592     1   0.15375 251793.120000
  10591  10599     1   0.14233 265014.560000
  10592  10593     1   0.15375 251793.120000
  10592  10598     1   0.14233 265014.560000
  10593  10597     1   0.14316 258236.480000
  10593  10609     1   0.14316 258236.480000
  10601  10607     1   0.14233 265014.560000
  10610  10611     1   0.15375 251793.120000
  10610  10624     1   0.15375 251793.120000
  10610  10632     1   0.14316 258236.480000
  10611  10614     1   0.15375 251793.120000
  10611  10623     1   0.14233 265014.560000
  10614  10615     1   0.15375 251793.120000
  10614  10622     1   0.14233 265014.560000
  10615  10616     1   0.15375 251793.120000
  10615  10621     1   0.14233 265014.560000
  10616  10620     1   0.14316 258236.480000
  10616  10632     1   0.14316 258236.480000
  10624  10630     1   0.14233 265014.560000
  10633  10634     1   0.15375 251793.120000
  10633  10647     1   0.15375 251793.120000
  10633  10655     1   0.14316 258236.480000
  10634  10637     1   0.15375 251793.120000
  10634  10646     1   0.14233 265014.560000
  10637  10638     1   0.15375 251793.120000
  10637  10645     1   0.14233 265014.560000
  10638  10639     1   0.15375 251793.120000
  10638  10644     1   0.14233 265014.560000
  10639  10643     1   0.14316 258236.480000
  10639  10655     1   0.14316 258236.480000
  10647  10653     1   0.14233 265014.560000
  10656  10657     1   0.15375 251793.120000
  10656  10670     1   0.15375 251793.120000
  10656  10678     1   0.14316 258236.480000
  10657  10660     1   0.15375 251793.120000
  10657  10669     1   0.14233 265014.560000
  10660  10661     1   0.15375 251793.120000
  10660  10668     1   0.14233 265014.560000
  10661  10662     1   0.15375 251793.120000
  10661  10667     1   0.14233 265014.560000
  10662  10666     1   0.14316 258236.480000
  10662  10678     1   0.14316 258236.480000
  10670  10676     1   0.14233 265014.560000
  10679  10680     1   0.15375 251793.120000
  10679  10693     1   0.15375 251793.120000
  10679  10701     1   0.14316 258236.480000
  10680  10683     1   0.15375 251793.120000
  10680  10692     1   0.14233 265014.560000
  10683  10684     1   0.15375 251793.120000
  10683  10691     1   0.14233 265014.560000
  10684  10685     1   0.15375 251793.120000
  10684  10690     1   0.14233 265014.560000
  10685  10689     1   0.14316 258236.480000
  10685  10701     1   0.14316 258236.480000
  10693  10699     1   0.14233 265014.560000
  10702  10703     1   0.15375 251793.120000
  10702  10716     1   0.15375 251793.120000
  10702  10724     1   0.14316 258236.480000
  10703  10706     1   0.15375 251793.120000
  10703  10715     1   0.14233 265014.560000
  10706  10707     1   0.15375 251793.120000
  10706  10714     1   0.14233 265014.560000
  10707  10708     1   0.15375 251793.120000
  10707  10713     1   0.14233 265014.560000
  10708  10712     1   0.14316 258236.480000
  10708  10724     1   0.14316 258236.480000
  10716  10722     1   0.14233 265014.560000
  10725  10726     1   0.15375 251793.120000
  10725  10739     1   0.15375 251793.120000
  10725  10747     1   0.14316 258236.480000
  10726  10729     1   0.15375 251793.120000
  10726  10738     1   0.14233 265014.560000
  10729  10730     1   0.15375 251793.120000
  10729  10737     1   0.14233 265014.560000
  10730  10731     1   0.15375 251793.120000
  10730  10736     1   0.14233 265014.560000
  10731  10735     1   0.14316 258236.480000
  10731  10747     1   0.14316 258236.480000
  10739  10745     1   0.14233 265014.560000
  10748  10749     1   0.15375 251793.120000
  10748  10762     1   0.15375 251793.120000
  10748  10770     1   0.14316 258236.480000
  10749  10752     1   0.15375 251793.120000
  10749  10761     1   0.14233 265014.560000
  10752  10753     1   0.15375 251793.120000
  10752  10760     1   0.14233 265014.560000
  10753  10754     1   0.15375 251793.120000
  10753  10759     1   0.14233 265014.560000
  10754  10758     1   0.14316 258236.480000
  10754  10770     1   0.14316 258236.480000
  10762  10768     1   0.14233 265014.560000
  10771  10772     1   0.15375 251793.120000
  10771  10785     1   0.15375 251793.120000
  10771  10793     1   0.14316 258236.480000
  10772  10775     1   0.15375 251793.120000
  10772  10784     1   0.14233 265014.560000
  10775  10776     1   0.15375 251793.120000
  10775  10783     1   0.14233 265014.560000
  10776  10777     1   0.15375 251793.120000
  10776  10782     1   0.14233 265014.560000
  10777  10781     1   0.14316 258236.480000
  10777  10793     1   0.14316 258236.480000
  10785  10791     1   0.14233 265014.560000
  10794  10795     1   0.15375 251793.120000
  10794  10808     1   0.15375 251793.120000
  10794  10816     1   0.14316 258236.480000
  10795  10798     1   0.15375 251793.120000
  10795  10807     1   0.14233 265014.560000
  10798  10799     1   0.15375 251793.120000
  10798  10806     1   0.14233 265014.560000
  10799  10800     1   0.15375 251793.120000
  10799  10805     1   0.14233 265014.560000
  10800  10804     1   0.14316 258236.480000
  10800  10816     1   0.14316 258236.480000
  10808  10814     1   0.14233 265014.560000
  10817  10818     1   0.15375 251793.120000
  10817  10831     1   0.15375 251793.120000
  10817  10839     1   0.14316 258236.480000
  10818  10821     1   0.15375 251793.120000
  10818  10830     1   0.14233 265014.560000
  10821  10822     1   0.15375 251793.120000
  10821  10829     1   0.14233 265014.560000
  10822  10823     1   0.15375 251793.120000
  10822  10828     1   0.14233 265014.560000
  10823  10827     1   0.14316 258236.480000
  10823  10839     1   0.14316 258236.480000
  10831  10837     1   0.14233 265014.560000
  10840  10841     1   0.15375 251793.120000
  10840  10854     1   0.15375 251793.120000
  10840  10862     1   0.14316 258236.480000
  10841  10844     1   0.15375 251793.120000
  10841  10853     1   0.14233 265014.560000
  10844  10845     1   0.15375 251793.120000
  10844  10852     1   0.14233 265014.560000
  10845  10846     1   0.15375 251793.120000
  10845  10851     1   0.14233 265014.560000
  10846  10850     1   0.14316 258236.480000
  10846  10862     1   0.14316 258236.480000
  10854  10860     1   0.14233 265014.560000
  10863  10864     1   0.15375 251793.120000
  10863  10877     1   0.15375 251793.120000
  10863  10885     1   0.14316 258236.480000
  10864  10867     1   0.15375 251793.120000
  10864  10876     1   0.14233 265014.560000
  10867  10868     1   0.15375 251793.120000
  10867  10875     1   0.14233 265014.560000
  10868  10869     1   0.15375 251793.120000
  10868  10874     1   0.14233 265014.560000
  10869  10873     1   0.14316 258236.480000
  10869  10885     1   0.14316 258236.480000
  10877  10883     1   0.14233 265014.560000
  10886  10887     1   0.15375 251793.120000
  10886  10900     1   0.15375 251793.120000
  10886  10908     1   0.14316 258236.480000
  10887  10890     1   0.15375 251793.120000
  10887  10899     1   0.14233 265014.560000
  10890  10891     1   0.15375 251793.120000
  10890  10898     1   0.14233 265014.560000
  10891  10892     1   0.15375 251793.120000
  10891  10897     1   0.14233 265014.560000
  10892  10896     1   0.14316 258236.480000
  10892  10908     1   0.14316 258236.480000
  10900  10906     1   0.14233 265014.560000
  10909  10910     1   0.15375 251793.120000
  10909  10923     1   0.15375 251793.120000
  10909  10931     1   0.14316 258236.480000
  10910  10913     1   0.15375 251793.120000
  10910  10922     1   0.14233 265014.560000
  10913  10914     1   0.15375 251793.120000
  10913  10921     1   0.14233 265014.560000
  10914  10915     1   0.15375 251793.120000
  10914  10920     1   0.14233 265014.560000
  10915  10919     1   0.14316 258236.480000
  10915  10931     1   0.14316 258236.480000
  10923  10929     1   0.14233 265014.560000
  10932  10933     1   0.15375 251793.120000
  10932  10946     1   0.15375 251793.120000
  10932  10954     1   0.14316 258236.480000
  10933  10936     1   0.15375 251793.120000
  10933  10945     1   0.14233 265014.560000
  10936  10937     1   0.15375 251793.120000
  10936  10944     1   0.14233 265014.560000
  10937  10938     1   0.15375 251793.120000
  10937  10943     1   0.14233 265014.560000
  10938  10942     1   0.14316 258236.480000
  10938  10954     1   0.14316 258236.480000
  10946  10952     1   0.14233 265014.560000
  10955  10956     1   0.15375 251793.120000
  10955  10969     1   0.15375 251793.120000
  10955  10977     1   0.14316 258236.480000
  10956  10959     1   0.15375 251793.120000
  10956  10968     1   0.14233 265014.560000
  10959  10960     1   0.15375 251793.120000
  10959  10967     1   0.14233 265014.560000
  10960  10961     1   0.15375 251793.120000
  10960  10966     1   0.14233 265014.560000
  10961  10965     1   0.14316 258236.480000
  10961  10977     1   0.14316 258236.480000
  10969  10975     1   0.14233 265014.560000
  10978  10979     1   0.15375 251793.120000
  10978  10992     1   0.15375 251793.120000
  10978  11000     1   0.14316 258236.480000
  10979  10982     1   0.15375 251793.120000
  10979  10991     1   0.14233 265014.560000
  10982  10983     1   0.15375 251793.120000
  10982  10990     1   0.14233 265014.560000
  10983  10984     1   0.15375 251793.120000
  10983  10989     1   0.14233 265014.560000
  10984  10988     1   0.14316 258236.480000
  10984  11000     1   0.14316 258236.480000
  10992  10998     1   0.14233 265014.560000
  11001  11002     1   0.15375 251793.120000
  11001  11015     1   0.15375 251793.120000
  11001  11023     1   0.14316 258236.480000
  11002  11005     1   0.15375 251793.120000
  11002  11014     1   0.14233 265014.560000
  11005  11006     1   0.15375 251793.120000
  11005  11013     1   0.14233 265014.560000
  11006  11007     1   0.15375 251793.120000
  11006  11012     1   0.14233 265014.560000
  11007  11011     1   0.14316 258236.480000
  11007  11023     1   0.14316 258236.480000
  11015  11021     1   0.14233 265014.560000
  11024  11025     1   0.15375 251793.120000
  11024  11038     1   0.15375 251793.120000
  11024  11046     1   0.14316 258236.480000
  11025  11028     1   0.15375 251793.120000
  11025  11037     1   0.14233 265014.560000
  11028  11029     1   0.15375 251793.120000
  11028  11036     1   0.14233 265014.560000
  11029  11030     1   0.15375 251793.120000
  11029  11035     1   0.14233 265014.560000
  11030  11034     1   0.14316 258236.480000
  11030  11046     1   0.14316 258236.480000
  11038  11044     1   0.14233 265014.560000
  11047  11048     1   0.15375 251793.120000
  11047  11061     1   0.15375 251793.120000
  11047  11069     1   0.14316 258236.480000
  11048  11051     1   0.15375 251793.120000
  11048  11060     1   0.14233 265014.560000
  11051  11052     1   0.15375 251793.120000
  11051  11059     1   0.14233 265014.560000
  11052  11053     1   0.15375 251793.120000
  11052  11058     1   0.14233 265014.560000
  11053  11057     1   0.14316 258236.480000
  11053  11069     1   0.14316 258236.480000
  11061  11067     1   0.14233 265014.560000
  11070  11071     1   0.15375 251793.120000
  11070  11084     1   0.15375 251793.120000
  11070  11092     1   0.14316 258236.480000
  11071  11074     1   0.15375 251793.120000
  11071  11083     1   0.14233 265014.560000
  11074  11075     1   0.15375 251793.120000
  11074  11082     1   0.14233 265014.560000
  11075  11076     1   0.15375 251793.120000
  11075  11081     1   0.14233 265014.560000
  11076  11080     1   0.14316 258236.480000
  11076  11092     1   0.14316 258236.480000
  11084  11090     1   0.14233 265014.560000
  11093  11094     1   0.15375 251793.120000
  11093  11107     1   0.15375 251793.120000
  11093  11115     1   0.14316 258236.480000
  11094  11097     1   0.15375 251793.120000
  11094  11106     1   0.14233 265014.560000
  11097  11098     1   0.15375 251793.120000
  11097  11105     1   0.14233 265014.560000
  11098  11099     1   0.15375 251793.120000
  11098  11104     1   0.14233 265014.560000
  11099  11103     1   0.14316 258236.480000
  11099  11115     1   0.14316 258236.480000
  11107  11113     1   0.14233 265014.560000
  11116  11117     1   0.15375 251793.120000
  11116  11130     1   0.15375 251793.120000
  11116  11138     1   0.14316 258236.480000
  11117  11120     1   0.15375 251793.120000
  11117  11129     1   0.14233 265014.560000
  11120  11121     1   0.15375 251793.120000
  11120  11128     1   0.14233 265014.560000
  11121  11122     1   0.15375 251793.120000
  11121  11127     1   0.14233 265014.560000
  11122  11126     1   0.14316 258236.480000
  11122  11138     1   0.14316 258236.480000
  11130  11136     1   0.14233 265014.560000
  11139  11140     1   0.15375 251793.120000
  11139  11153     1   0.15375 251793.120000
  11139  11161     1   0.14316 258236.480000
  11140  11143     1   0.15375 251793.120000
  11140  11152     1   0.14233 265014.560000
  11143  11144     1   0.15375 251793.120000
  11143  11151     1   0.14233 265014.560000
  11144  11145     1   0.15375 251793.120000
  11144  11150     1   0.14233 265014.560000
  11145  11149     1   0.14316 258236.480000
  11145  11161     1   0.14316 258236.480000
  11153  11159     1   0.14233 265014.560000
  11162  11163     1   0.15375 251793.120000
  11162  11176     1   0.15375 251793.120000
  11162  11184     1   0.14316 258236.480000
  11163  11166     1   0.15375 251793.120000
  11163  11175     1   0.14233 265014.560000
  11166  11167     1   0.15375 251793.120000
  11166  11174     1   0.14233 265014.560000
  11167  11168     1   0.15375 251793.120000
  11167  11173     1   0.14233 265014.560000
  11168  11172     1   0.14316 258236.480000
  11168  11184     1   0.14316 258236.480000
  11176  11182     1   0.14233 265014.560000
  11185  11186     1   0.15375 251793.120000
  11185  11199     1   0.15375 251793.120000
  11185  11207     1   0.14316 258236.480000
  11186  11189     1   0.15375 251793.120000
  11186  11198     1   0.14233 265014.560000
  11189  11190     1   0.15375 251793.120000
  11189  11197     1   0.14233 265014.560000
  11190  11191     1   0.15375 251793.120000
  11190  11196     1   0.14233 265014.560000
  11191  11195     1   0.14316 258236.480000
  11191  11207     1   0.14316 258236.480000
  11199  11205     1   0.14233 265014.560000
  11208  11209     1   0.15375 251793.120000
  11208  11222     1   0.15375 251793.120000
  11208  11230     1   0.14316 258236.480000
  11209  11212     1   0.15375 251793.120000
  11209  11221     1   0.14233 265014.560000
  11212  11213     1   0.15375 251793.120000
  11212  11220     1   0.14233 265014.560000
  11213  11214     1   0.15375 251793.120000
  11213  11219     1   0.14233 265014.560000
  11214  11218     1   0.14316 258236.480000
  11214  11230     1   0.14316 258236.480000
  11222  11228     1   0.14233 265014.560000
  11231  11232     1   0.15375 251793.120000
  11231  11245     1   0.15375 251793.120000
  11231  11253     1   0.14316 258236.480000
  11232  11235     1   0.15375 251793.120000
  11232  11244     1   0.14233 265014.560000
  11235  11236     1   0.15375 251793.120000
  11235  11243     1   0.14233 265014.560000
  11236  11237     1   0.15375 251793.120000
  11236  11242     1   0.14233 265014.560000
  11237  11241     1   0.14316 258236.480000
  11237  11253     1   0.14316 258236.480000
  11245  11251     1   0.14233 265014.560000
  11254  11255     1   0.15375 251793.120000
  11254  11268     1   0.15375 251793.120000
  11254  11276     1   0.14316 258236.480000
  11255  11258     1   0.15375 251793.120000
  11255  11267     1   0.14233 265014.560000
  11258  11259     1   0.15375 251793.120000
  11258  11266     1   0.14233 265014.560000
  11259  11260     1   0.15375 251793.120000
  11259  11265     1   0.14233 265014.560000
  11260  11264     1   0.14316 258236.480000
  11260  11276     1   0.14316 258236.480000
  11268  11274     1   0.14233 265014.560000
  11277  11278     1   0.15375 251793.120000
  11277  11291     1   0.15375 251793.120000
  11277  11299     1   0.14316 258236.480000
  11278  11281     1   0.15375 251793.120000
  11278  11290     1   0.14233 265014.560000
  11281  11282     1   0.15375 251793.120000
  11281  11289     1   0.14233 265014.560000
  11282  11283     1   0.15375 251793.120000
  11282  11288     1   0.14233 265014.560000
  11283  11287     1   0.14316 258236.480000
  11283  11299     1   0.14316 258236.480000
  11291  11297     1   0.14233 265014.560000
  11300  11301     1   0.15375 251793.120000
  11300  11314     1   0.15375 251793.120000
  11300  11322     1   0.14316 258236.480000
  11301  11304     1   0.15375 251793.120000
  11301  11313     1   0.14233 265014.560000
  11304  11305     1   0.15375 251793.120000
  11304  11312     1   0.14233 265014.560000
  11305  11306     1   0.15375 251793.120000
  11305  11311     1   0.14233 265014.560000
  11306  11310     1   0.14316 258236.480000
  11306  11322     1   0.14316 258236.480000
  11314  11320     1   0.14233 265014.560000
  11323  11324     1   0.15375 251793.120000
  11323  11337     1   0.15375 251793.120000
  11323  11345     1   0.14316 258236.480000
  11324  11327     1   0.15375 251793.120000
  11324  11336     1   0.14233 265014.560000
  11327  11328     1   0.15375 251793.120000
  11327  11335     1   0.14233 265014.560000
  11328  11329     1   0.15375 251793.120000
  11328  11334     1   0.14233 265014.560000
  11329  11333     1   0.14316 258236.480000
  11329  11345     1   0.14316 258236.480000
  11337  11343     1   0.14233 265014.560000
  11346  11347     1   0.15375 251793.120000
  11346  11360     1   0.15375 251793.120000
  11346  11368     1   0.14316 258236.480000
  11347  11350     1   0.15375 251793.120000
  11347  11359     1   0.14233 265014.560000
  11350  11351     1   0.15375 251793.120000
  11350  11358     1   0.14233 265014.560000
  11351  11352     1   0.15375 251793.120000
  11351  11357     1   0.14233 265014.560000
  11352  11356     1   0.14316 258236.480000
  11352  11368     1   0.14316 258236.480000
  11360  11366     1   0.14233 265014.560000
  11369  11370     1   0.15375 251793.120000
  11369  11383     1   0.15375 251793.120000
  11369  11391     1   0.14316 258236.480000
  11370  11373     1   0.15375 251793.120000
  11370  11382     1   0.14233 265014.560000
  11373  11374     1   0.15375 251793.120000
  11373  11381     1   0.14233 265014.560000
  11374  11375     1   0.15375 251793.120000
  11374  11380     1   0.14233 265014.560000
  11375  11379     1   0.14316 258236.480000
  11375  11391     1   0.14316 258236.480000
  11383  11389     1   0.14233 265014.560000
  11392  11393     1   0.15375 251793.120000
  11392  11406     1   0.15375 251793.120000
  11392  11414     1   0.14316 258236.480000
  11393  11396     1   0.15375 251793.120000
  11393  11405     1   0.14233 265014.560000
  11396  11397     1   0.15375 251793.120000
  11396  11404     1   0.14233 265014.560000
  11397  11398     1   0.15375 251793.120000
  11397  11403     1   0.14233 265014.560000
  11398  11402     1   0.14316 258236.480000
  11398  11414     1   0.14316 258236.480000
  11406  11412     1   0.14233 265014.560000
  11415  11416     1   0.15375 251793.120000
  11415  11429     1   0.15375 251793.120000
  11415  11437     1   0.14316 258236.480000
  11416  11419     1   0.15375 251793.120000
  11416  11428     1   0.14233 265014.560000
  11419  11420     1   0.15375 251793.120000
  11419  11427     1   0.14233 265014.560000
  11420  11421     1   0.15375 251793.120000
  11420  11426     1   0.14233 265014.560000
  11421  11425     1   0.14316 258236.480000
  11421  11437     1   0.14316 258236.480000
  11429  11435     1   0.14233 265014.560000
  11438  11439     1   0.15375 251793.120000
  11438  11452     1   0.15375 251793.120000
  11438  11460     1   0.14316 258236.480000
  11439  11442     1   0.15375 251793.120000
  11439  11451     1   0.14233 265014.560000
  11442  11443     1   0.15375 251793.120000
  11442  11450     1   0.14233 265014.560000
  11443  11444     1   0.15375 251793.120000
  11443  11449     1   0.14233 265014.560000
  11444  11448     1   0.14316 258236.480000
  11444  11460     1   0.14316 258236.480000
  11452  11458     1   0.14233 265014.560000
  11461  11462     1   0.15375 251793.120000
  11461  11475     1   0.15375 251793.120000
  11461  11483     1   0.14316 258236.480000
  11462  11465     1   0.15375 251793.120000
  11462  11474     1   0.14233 265014.560000
  11465  11466     1   0.15375 251793.120000
  11465  11473     1   0.14233 265014.560000
  11466  11467     1   0.15375 251793.120000
  11466  11472     1   0.14233 265014.560000
  11467  11471     1   0.14316 258236.480000
  11467  11483     1   0.14316 258236.480000
  11475  11481     1   0.14233 265014.560000
  11484  11485     1   0.15375 251793.120000
  11484  11498     1   0.15375 251793.120000
  11484  11506     1   0.14316 258236.480000
  11485  11488     1   0.15375 251793.120000
  11485  11497     1   0.14233 265014.560000
  11488  11489     1   0.15375 251793.120000
  11488  11496     1   0.14233 265014.560000
  11489  11490     1   0.15375 251793.120000
  11489  11495     1   0.14233 265014.560000
  11490  11494     1   0.14316 258236.480000
  11490  11506     1   0.14316 258236.480000
  11498  11504     1   0.14233 265014.560000
  11507  11508     1   0.15375 251793.120000
  11507  11521     1   0.15375 251793.120000
  11507  11529     1   0.14316 258236.480000
  11508  11511     1   0.15375 251793.120000
  11508  11520     1   0.14233 265014.560000
  11511  11512     1   0.15375 251793.120000
  11511  11519     1   0.14233 265014.560000
  11512  11513     1   0.15375 251793.120000
  11512  11518     1   0.14233 265014.560000
  11513  11517     1   0.14316 258236.480000
  11513  11529     1   0.14316 258236.480000
  11521  11527     1   0.14233 265014.560000
  11530  11531     1   0.15375 251793.120000
  11530  11544     1   0.15375 251793.120000
  11530  11552     1   0.14316 258236.480000
  11531  11534     1   0.15375 251793.120000
  11531  11543     1   0.14233 265014.560000
  11534  11535     1   0.15375 251793.120000
  11534  11542     1   0.14233 265014.560000
  11535  11536     1   0.15375 251793.120000
  11535  11541     1   0.14233 265014.560000
  11536  11540     1   0.14316 258236.480000
  11536  11552     1   0.14316 258236.480000
  11544  11550     1   0.14233 265014.560000
  11553  11554     1   0.15375 251793.120000
  11553  11567     1   0.15375 251793.120000
  11553  11575     1   0.14316 258236.480000
  11554  11557     1   0.15375 251793.120000
  11554  11566     1   0.14233 265014.560000
  11557  11558     1   0.15375 251793.120000
  11557  11565     1   0.14233 265014.560000
  11558  11559     1   0.15375 251793.120000
  11558  11564     1   0.14233 265014.560000
  11559  11563     1   0.14316 258236.480000
  11559  11575     1   0.14316 258236.480000
  11567  11573     1   0.14233 265014.560000
  11576  11577     1   0.15375 251793.120000
  11576  11590     1   0.15375 251793.120000
  11576  11598     1   0.14316 258236.480000
  11577  11580     1   0.15375 251793.120000
  11577  11589     1   0.14233 265014.560000
  11580  11581     1   0.15375 251793.120000
  11580  11588     1   0.14233 265014.560000
  11581  11582     1   0.15375 251793.120000
  11581  11587     1   0.14233 265014.560000
  11582  11586     1   0.14316 258236.480000
  11582  11598     1   0.14316 258236.480000
  11590  11596     1   0.14233 265014.560000
  11599  11600     1   0.15375 251793.120000
  11599  11613     1   0.15375 251793.120000
  11599  11621     1   0.14316 258236.480000
  11600  11603     1   0.15375 251793.120000
  11600  11612     1   0.14233 265014.560000
  11603  11604     1   0.15375 251793.120000
  11603  11611     1   0.14233 265014.560000
  11604  11605     1   0.15375 251793.120000
  11604  11610     1   0.14233 265014.560000
  11605  11609     1   0.14316 258236.480000
  11605  11621     1   0.14316 258236.480000
  11613  11619     1   0.14233 265014.560000
  11622  11623     1   0.15375 251793.120000
  11622  11636     1   0.15375 251793.120000
  11622  11644     1   0.14316 258236.480000
  11623  11626     1   0.15375 251793.120000
  11623  11635     1   0.14233 265014.560000
  11626  11627     1   0.15375 251793.120000
  11626  11634     1   0.14233 265014.560000
  11627  11628     1   0.15375 251793.120000
  11627  11633     1   0.14233 265014.560000
  11628  11632     1   0.14316 258236.480000
  11628  11644     1   0.14316 258236.480000
  11636  11642     1   0.14233 265014.560000
  11645  11646     1   0.15375 251793.120000
  11645  11659     1   0.15375 251793.120000
  11645  11667     1   0.14316 258236.480000
  11646  11649     1   0.15375 251793.120000
  11646  11658     1   0.14233 265014.560000
  11649  11650     1   0.15375 251793.120000
  11649  11657     1   0.14233 265014.560000
  11650  11651     1   0.15375 251793.120000
  11650  11656     1   0.14233 265014.560000
  11651  11655     1   0.14316 258236.480000
  11651  11667     1   0.14316 258236.480000
  11659  11665     1   0.14233 265014.560000
  11668  11669     1   0.15375 251793.120000
  11668  11682     1   0.15375 251793.120000
  11668  11690     1   0.14316 258236.480000
  11669  11672     1   0.15375 251793.120000
  11669  11681     1   0.14233 265014.560000
  11672  11673     1   0.15375 251793.120000
  11672  11680     1   0.14233 265014.560000
  11673  11674     1   0.15375 251793.120000
  11673  11679     1   0.14233 265014.560000
  11674  11678     1   0.14316 258236.480000
  11674  11690     1   0.14316 258236.480000
  11682  11688     1   0.14233 265014.560000
  11691  11692     1   0.15375 251793.120000
  11691  11705     1   0.15375 251793.120000
  11691  11713     1   0.14316 258236.480000
  11692  11695     1   0.15375 251793.120000
  11692  11704     1   0.14233 265014.560000
  11695  11696     1   0.15375 251793.120000
  11695  11703     1   0.14233 265014.560000
  11696  11697     1   0.15375 251793.120000
  11696  11702     1   0.14233 265014.560000
  11697  11701     1   0.14316 258236.480000
  11697  11713     1   0.14316 258236.480000
  11705  11711     1   0.14233 265014.560000
  11714  11715     1   0.15375 251793.120000
  11714  11728     1   0.15375 251793.120000
  11714  11736     1   0.14316 258236.480000
  11715  11718     1   0.15375 251793.120000
  11715  11727     1   0.14233 265014.560000
  11718  11719     1   0.15375 251793.120000
  11718  11726     1   0.14233 265014.560000
  11719  11720     1   0.15375 251793.120000
  11719  11725     1   0.14233 265014.560000
  11720  11724     1   0.14316 258236.480000
  11720  11736     1   0.14316 258236.480000
  11728  11734     1   0.14233 265014.560000
  11737  11738     1   0.15375 251793.120000
  11737  11751     1   0.15375 251793.120000
  11737  11759     1   0.14316 258236.480000
  11738  11741     1   0.15375 251793.120000
  11738  11750     1   0.14233 265014.560000
  11741  11742     1   0.15375 251793.120000
  11741  11749     1   0.14233 265014.560000
  11742  11743     1   0.15375 251793.120000
  11742  11748     1   0.14233 265014.560000
  11743  11747     1   0.14316 258236.480000
  11743  11759     1   0.14316 258236.480000
  11751  11757     1   0.14233 265014.560000
  11760  11761     1   0.15375 251793.120000
  11760  11774     1   0.15375 251793.120000
  11760  11782     1   0.14316 258236.480000
  11761  11764     1   0.15375 251793.120000
  11761  11773     1   0.14233 265014.560000
  11764  11765     1   0.15375 251793.120000
  11764  11772     1   0.14233 265014.560000
  11765  11766     1   0.15375 251793.120000
  11765  11771     1   0.14233 265014.560000
  11766  11770     1   0.14316 258236.480000
  11766  11782     1   0.14316 258236.480000
  11774  11780     1   0.14233 265014.560000
  11783  11784     1   0.15375 251793.120000
  11783  11797     1   0.15375 251793.120000
  11783  11805     1   0.14316 258236.480000
  11784  11787     1   0.15375 251793.120000
  11784  11796     1   0.14233 265014.560000
  11787  11788     1   0.15375 251793.120000
  11787  11795     1   0.14233 265014.560000
  11788  11789     1   0.15375 251793.120000
  11788  11794     1   0.14233 265014.560000
  11789  11793     1   0.14316 258236.480000
  11789  11805     1   0.14316 258236.480000
  11797  11803     1   0.14233 265014.560000
  11806  11807     1   0.15375 251793.120000
  11806  11820     1   0.15375 251793.120000
  11806  11828     1   0.14316 258236.480000
  11807  11810     1   0.15375 251793.120000
  11807  11819     1   0.14233 265014.560000
  11810  11811     1   0.15375 251793.120000
  11810  11818     1   0.14233 265014.560000
  11811  11812     1   0.15375 251793.120000
  11811  11817     1   0.14233 265014.560000
  11812  11816     1   0.14316 258236.480000
  11812  11828     1   0.14316 258236.480000
  11820  11826     1   0.14233 265014.560000
  11829  11830     1   0.15375 251793.120000
  11829  11843     1   0.15375 251793.120000
  11829  11851     1   0.14316 258236.480000
  11830  11833     1   0.15375 251793.120000
  11830  11842     1   0.14233 265014.560000
  11833  11834     1   0.15375 251793.120000
  11833  11841     1   0.14233 265014.560000
  11834  11835     1   0.15375 251793.120000
  11834  11840     1   0.14233 265014.560000
  11835  11839     1   0.14316 258236.480000
  11835  11851     1   0.14316 258236.480000
  11843  11849     1   0.14233 265014.560000
  11852  11853     1   0.15375 251793.120000
  11852  11866     1   0.15375 251793.120000
  11852  11874     1   0.14316 258236.480000
  11853  11856     1   0.15375 251793.120000
  11853  11865     1   0.14233 265014.560000
  11856  11857     1   0.15375 251793.120000
  11856  11864     1   0.14233 265014.560000
  11857  11858     1   0.15375 251793.120000
  11857  11863     1   0.14233 265014.560000
  11858  11862     1   0.14316 258236.480000
  11858  11874     1   0.14316 258236.480000
  11866  11872     1   0.14233 265014.560000
  11875  11876     1   0.15375 251793.120000
  11875  11889     1   0.15375 251793.120000
  11875  11897     1   0.14316 258236.480000
  11876  11879     1   0.15375 251793.120000
  11876  11888     1   0.14233 265014.560000
  11879  11880     1   0.15375 251793.120000
  11879  11887     1   0.14233 265014.560000
  11880  11881     1   0.15375 251793.120000
  11880  11886     1   0.14233 265014.560000
  11881  11885     1   0.14316 258236.480000
  11881  11897     1   0.14316 258236.480000
  11889  11895     1   0.14233 265014.560000
  11898  11899     1   0.15375 251793.120000
  11898  11912     1   0.15375 251793.120000
  11898  11920     1   0.14316 258236.480000
  11899  11902     1   0.15375 251793.120000
  11899  11911     1   0.14233 265014.560000
  11902  11903     1   0.15375 251793.120000
  11902  11910     1   0.14233 265014.560000
  11903  11904     1   0.15375 251793.120000
  11903  11909     1   0.14233 265014.560000
  11904  11908     1   0.14316 258236.480000
  11904  11920     1   0.14316 258236.480000
  11912  11918     1   0.14233 265014.560000
  11921  11922     1   0.15375 251793.120000
  11921  11935     1   0.15375 251793.120000
  11921  11943     1   0.14316 258236.480000
  11922  11925     1   0.15375 251793.120000
  11922  11934     1   0.14233 265014.560000
  11925  11926     1   0.15375 251793.120000
  11925  11933     1   0.14233 265014.560000
  11926  11927     1   0.15375 251793.120000
  11926  11932     1   0.14233 265014.560000
  11927  11931     1   0.14316 258236.480000
  11927  11943     1   0.14316 258236.480000
  11935  11941     1   0.14233 265014.560000
  11944  11945     1   0.15375 251793.120000
  11944  11958     1   0.15375 251793.120000
  11944  11966     1   0.14316 258236.480000
  11945  11948     1   0.15375 251793.120000
  11945  11957     1   0.14233 265014.560000
  11948  11949     1   0.15375 251793.120000
  11948  11956     1   0.14233 265014.560000
  11949  11950     1   0.15375 251793.120000
  11949  11955     1   0.14233 265014.560000
  11950  11954     1   0.14316 258236.480000
  11950  11966     1   0.14316 258236.480000
  11958  11964     1   0.14233 265014.560000
  11967  11968     1   0.15375 251793.120000
  11967  11981     1   0.15375 251793.120000
  11967  11989     1   0.14316 258236.480000
  11968  11971     1   0.15375 251793.120000
  11968  11980     1   0.14233 265014.560000
  11971  11972     1   0.15375 251793.120000
  11971  11979     1   0.14233 265014.560000
  11972  11973     1   0.15375 251793.120000
  11972  11978     1   0.14233 265014.560000
  11973  11977     1   0.14316 258236.480000
  11973  11989     1   0.14316 258236.480000
  11981  11987     1   0.14233 265014.560000
  11990  11991     1   0.15375 251793.120000
  11990  12004     1   0.15375 251793.120000
  11990  12012     1   0.14316 258236.480000
  11991  11994     1   0.15375 251793.120000
  11991  12003     1   0.14233 265014.560000
  11994  11995     1   0.15375 251793.120000
  11994  12002     1   0.14233 265014.560000
  11995  11996     1   0.15375 251793.120000
  11995  12001     1   0.14233 265014.560000
  11996  12000     1   0.14316 258236.480000
  11996  12012     1   0.14316 258236.480000
  12004  12010     1   0.14233 265014.560000
  12013  12014     1   0.15375 251793.120000
  12013  12027     1   0.15375 251793.120000
  12013  12035     1   0.14316 258236.480000
  12014  12017     1   0.15375 251793.120000
  12014  12026     1   0.14233 265014.560000
  12017  12018     1   0.15375 251793.120000
  12017  12025     1   0.14233 265014.560000
  12018  12019     1   0.15375 251793.120000
  12018  12024     1   0.14233 265014.560000
  12019  12023     1   0.14316 258236.480000
  12019  12035     1   0.14316 258236.480000
  12027  12033     1   0.14233 265014.560000
  12036  12037     1   0.15375 251793.120000
  12036  12050     1   0.15375 251793.120000
  12036  12058     1   0.14316 258236.480000
  12037  12040     1   0.15375 251793.120000
  12037  12049     1   0.14233 265014.560000
  12040  12041     1   0.15375 251793.120000
  12040  12048     1   0.14233 265014.560000
  12041  12042     1   0.15375 251793.120000
  12041  12047     1   0.14233 265014.560000
  12042  12046     1   0.14316 258236.480000
  12042  12058     1   0.14316 258236.480000
  12050  12056     1   0.14233 265014.560000
  12059  12060     1   0.15375 251793.120000
  12059  12073     1   0.15375 251793.120000
  12059  12081     1   0.14316 258236.480000
  12060  12063     1   0.15375 251793.120000
  12060  12072     1   0.14233 265014.560000
  12063  12064     1   0.15375 251793.120000
  12063  12071     1   0.14233 265014.560000
  12064  12065     1   0.15375 251793.120000
  12064  12070     1   0.14233 265014.560000
  12065  12069     1   0.14316 258236.480000
  12065  12081     1   0.14316 258236.480000
  12073  12079     1   0.14233 265014.560000
  12082  12083     1   0.15375 251793.120000
  12082  12096     1   0.15375 251793.120000
  12082  12104     1   0.14316 258236.480000
  12083  12086     1   0.15375 251793.120000
  12083  12095     1   0.14233 265014.560000
  12086  12087     1   0.15375 251793.120000
  12086  12094     1   0.14233 265014.560000
  12087  12088     1   0.15375 251793.120000
  12087  12093     1   0.14233 265014.560000
  12088  12092     1   0.14316 258236.480000
  12088  12104     1   0.14316 258236.480000
  12096  12102     1   0.14233 265014.560000
  12105  12106     1   0.15375 251793.120000
  12105  12119     1   0.15375 251793.120000
  12105  12127     1   0.14316 258236.480000
  12106  12109     1   0.15375 251793.120000
  12106  12118     1   0.14233 265014.560000
  12109  12110     1   0.15375 251793.120000
  12109  12117     1   0.14233 265014.560000
  12110  12111     1   0.15375 251793.120000
  12110  12116     1   0.14233 265014.560000
  12111  12115     1   0.14316 258236.480000
  12111  12127     1   0.14316 258236.480000
  12119  12125     1   0.14233 265014.560000
  12128  12129     1   0.15375 251793.120000
  12128  12142     1   0.15375 251793.120000
  12128  12150     1   0.14316 258236.480000
  12129  12132     1   0.15375 251793.120000
  12129  12141     1   0.14233 265014.560000
  12132  12133     1   0.15375 251793.120000
  12132  12140     1   0.14233 265014.560000
  12133  12134     1   0.15375 251793.120000
  12133  12139     1   0.14233 265014.560000
  12134  12138     1   0.14316 258236.480000
  12134  12150     1   0.14316 258236.480000
  12142  12148     1   0.14233 265014.560000
  12151  12152     1   0.15375 251793.120000
  12151  12165     1   0.15375 251793.120000
  12151  12173     1   0.14316 258236.480000
  12152  12155     1   0.15375 251793.120000
  12152  12164     1   0.14233 265014.560000
  12155  12156     1   0.15375 251793.120000
  12155  12163     1   0.14233 265014.560000
  12156  12157     1   0.15375 251793.120000
  12156  12162     1   0.14233 265014.560000
  12157  12161     1   0.14316 258236.480000
  12157  12173     1   0.14316 258236.480000
  12165  12171     1   0.14233 265014.560000
  12174  12175     1   0.15375 251793.120000
  12174  12188     1   0.15375 251793.120000
  12174  12196     1   0.14316 258236.480000
  12175  12178     1   0.15375 251793.120000
  12175  12187     1   0.14233 265014.560000
  12178  12179     1   0.15375 251793.120000
  12178  12186     1   0.14233 265014.560000
  12179  12180     1   0.15375 251793.120000
  12179  12185     1   0.14233 265014.560000
  12180  12184     1   0.14316 258236.480000
  12180  12196     1   0.14316 258236.480000
  12188  12194     1   0.14233 265014.560000
  12197  12198     1   0.15375 251793.120000
  12197  12211     1   0.15375 251793.120000
  12197  12219     1   0.14316 258236.480000
  12198  12201     1   0.15375 251793.120000
  12198  12210     1   0.14233 265014.560000
  12201  12202     1   0.15375 251793.120000
  12201  12209     1   0.14233 265014.560000
  12202  12203     1   0.15375 251793.120000
  12202  12208     1   0.14233 265014.560000
  12203  12207     1   0.14316 258236.480000
  12203  12219     1   0.14316 258236.480000
  12211  12217     1   0.14233 265014.560000
  12220  12221     1   0.15375 251793.120000
  12220  12234     1   0.15375 251793.120000
  12220  12242     1   0.14316 258236.480000
  12221  12224     1   0.15375 251793.120000
  12221  12233     1   0.14233 265014.560000
  12224  12225     1   0.15375 251793.120000
  12224  12232     1   0.14233 265014.560000
  12225  12226     1   0.15375 251793.120000
  12225  12231     1   0.14233 265014.560000
  12226  12230     1   0.14316 258236.480000
  12226  12242     1   0.14316 258236.480000
  12234  12240     1   0.14233 265014.560000
  12243  12244     1   0.15375 251793.120000
  12243  12257     1   0.15375 251793.120000
  12243  12265     1   0.14316 258236.480000
  12244  12247     1   0.15375 251793.120000
  12244  12256     1   0.14233 265014.560000
  12247  12248     1   0.15375 251793.120000
  12247  12255     1   0.14233 265014.560000
  12248  12249     1   0.15375 251793.120000
  12248  12254     1   0.14233 265014.560000
  12249  12253     1   0.14316 258236.480000
  12249  12265     1   0.14316 258236.480000
  12257  12263     1   0.14233 265014.560000
  12266  12267     1   0.15375 251793.120000
  12266  12280     1   0.15375 251793.120000
  12266  12288     1   0.14316 258236.480000
  12267  12270     1   0.15375 251793.120000
  12267  12279     1   0.14233 265014.560000
  12270  12271     1   0.15375 251793.120000
  12270  12278     1   0.14233 265014.560000
  12271  12272     1   0.15375 251793.120000
  12271  12277     1   0.14233 265014.560000
  12272  12276     1   0.14316 258236.480000
  12272  12288     1   0.14316 258236.480000
  12280  12286     1   0.14233 265014.560000
  12289  12290     1   0.15375 251793.120000
  12289  12303     1   0.15375 251793.120000
  12289  12311     1   0.14316 258236.480000
  12290  12293     1   0.15375 251793.120000
  12290  12302     1   0.14233 265014.560000
  12293  12294     1   0.15375 251793.120000
  12293  12301     1   0.14233 265014.560000
  12294  12295     1   0.15375 251793.120000
  12294  12300     1   0.14233 265014.560000
  12295  12299     1   0.14316 258236.480000
  12295  12311     1   0.14316 258236.480000
  12303  12309     1   0.14233 265014.560000
  12312  12313     1   0.15375 251793.120000
  12312  12326     1   0.15375 251793.120000
  12312  12334     1   0.14316 258236.480000
  12313  12316     1   0.15375 251793.120000
  12313  12325     1   0.14233 265014.560000
  12316  12317     1   0.15375 251793.120000
  12316  12324     1   0.14233 265014.560000
  12317  12318     1   0.15375 251793.120000
  12317  12323     1   0.14233 265014.560000
  12318  12322     1   0.14316 258236.480000
  12318  12334     1   0.14316 258236.480000
  12326  12332     1   0.14233 265014.560000
  12335  12336     1   0.15375 251793.120000
  12335  12349     1   0.15375 251793.120000
  12335  12357     1   0.14316 258236.480000
  12336  12339     1   0.15375 251793.120000
  12336  12348     1   0.14233 265014.560000
  12339  12340     1   0.15375 251793.120000
  12339  12347     1   0.14233 265014.560000
  12340  12341     1   0.15375 251793.120000
  12340  12346     1   0.14233 265014.560000
  12341  12345     1   0.14316 258236.480000
  12341  12357     1   0.14316 258236.480000
  12349  12355     1   0.14233 265014.560000
  12358  12359     1   0.15375 251793.120000
  12358  12372     1   0.15375 251793.120000
  12358  12380     1   0.14316 258236.480000
  12359  12362     1   0.15375 251793.120000
  12359  12371     1   0.14233 265014.560000
  12362  12363     1   0.15375 251793.120000
  12362  12370     1   0.14233 265014.560000
  12363  12364     1   0.15375 251793.120000
  12363  12369     1   0.14233 265014.560000
  12364  12368     1   0.14316 258236.480000
  12364  12380     1   0.14316 258236.480000
  12372  12378     1   0.14233 265014.560000
  12381  12382     1   0.15375 251793.120000
  12381  12395     1   0.15375 251793.120000
  12381  12403     1   0.14316 258236.480000
  12382  12385     1   0.15375 251793.120000
  12382  12394     1   0.14233 265014.560000
  12385  12386     1   0.15375 251793.120000
  12385  12393     1   0.14233 265014.560000
  12386  12387     1   0.15375 251793.120000
  12386  12392     1   0.14233 265014.560000
  12387  12391     1   0.14316 258236.480000
  12387  12403     1   0.14316 258236.480000
  12395  12401     1   0.14233 265014.560000
  12404  12405     1   0.15375 251793.120000
  12404  12418     1   0.15375 251793.120000
  12404  12426     1   0.14316 258236.480000
  12405  12408     1   0.15375 251793.120000
  12405  12417     1   0.14233 265014.560000
  12408  12409     1   0.15375 251793.120000
  12408  12416     1   0.14233 265014.560000
  12409  12410     1   0.15375 251793.120000
  12409  12415     1   0.14233 265014.560000
  12410  12414     1   0.14316 258236.480000
  12410  12426     1   0.14316 258236.480000
  12418  12424     1   0.14233 265014.560000
  12427  12428     1   0.15375 251793.120000
  12427  12441     1   0.15375 251793.120000
  12427  12449     1   0.14316 258236.480000
  12428  12431     1   0.15375 251793.120000
  12428  12440     1   0.14233 265014.560000
  12431  12432     1   0.15375 251793.120000
  12431  12439     1   0.14233 265014.560000
  12432  12433     1   0.15375 251793.120000
  12432  12438     1   0.14233 265014.560000
  12433  12437     1   0.14316 258236.480000
  12433  12449     1   0.14316 258236.480000
  12441  12447     1   0.14233 265014.560000
  12450  12451     1   0.15375 251793.120000
  12450  12464     1   0.15375 251793.120000
  12450  12472     1   0.14316 258236.480000
  12451  12454     1   0.15375 251793.120000
  12451  12463     1   0.14233 265014.560000
  12454  12455     1   0.15375 251793.120000
  12454  12462     1   0.14233 265014.560000
  12455  12456     1   0.15375 251793.120000
  12455  12461     1   0.14233 265014.560000
  12456  12460     1   0.14316 258236.480000
  12456  12472     1   0.14316 258236.480000
  12464  12470     1   0.14233 265014.560000
  12473  12474     1   0.15375 251793.120000
  12473  12487     1   0.15375 251793.120000
  12473  12495     1   0.14316 258236.480000
  12474  12477     1   0.15375 251793.120000
  12474  12486     1   0.14233 265014.560000
  12477  12478     1   0.15375 251793.120000
  12477  12485     1   0.14233 265014.560000
  12478  12479     1   0.15375 251793.120000
  12478  12484     1   0.14233 265014.560000
  12479  12483     1   0.14316 258236.480000
  12479  12495     1   0.14316 258236.480000
  12487  12493     1   0.14233 265014.560000
  12496  12497     1   0.15375 251793.120000
  12496  12510     1   0.15375 251793.120000
  12496  12518     1   0.14316 258236.480000
  12497  12500     1   0.15375 251793.120000
  12497  12509     1   0.14233 265014.560000
  12500  12501     1   0.15375 251793.120000
  12500  12508     1   0.14233 265014.560000
  12501  12502     1   0.15375 251793.120000
  12501  12507     1   0.14233 265014.560000
  12502  12506     1   0.14316 258236.480000
  12502  12518     1   0.14316 258236.480000
  12510  12516     1   0.14233 265014.560000
  12519  12520     1   0.15375 251793.120000
  12519  12533     1   0.15375 251793.120000
  12519  12541     1   0.14316 258236.480000
  12520  12523     1   0.15375 251793.120000
  12520  12532     1   0.14233 265014.560000
  12523  12524     1   0.15375 251793.120000
  12523  12531     1   0.14233 265014.560000
  12524  12525     1   0.15375 251793.120000
  12524  12530     1   0.14233 265014.560000
  12525  12529     1   0.14316 258236.480000
  12525  12541     1   0.14316 258236.480000
  12533  12539     1   0.14233 265014.560000
  12542  12543     1   0.15375 251793.120000
  12542  12556     1   0.15375 251793.120000
  12542  12564     1   0.14316 258236.480000
  12543  12546     1   0.15375 251793.120000
  12543  12555     1   0.14233 265014.560000
  12546  12547     1   0.15375 251793.120000
  12546  12554     1   0.14233 265014.560000
  12547  12548     1   0.15375 251793.120000
  12547  12553     1   0.14233 265014.560000
  12548  12552     1   0.14316 258236.480000
  12548  12564     1   0.14316 258236.480000
  12556  12562     1   0.14233 265014.560000
  12565  12566     1   0.15375 251793.120000
  12565  12579     1   0.15375 251793.120000
  12565  12587     1   0.14316 258236.480000
  12566  12569     1   0.15375 251793.120000
  12566  12578     1   0.14233 265014.560000
  12569  12570     1   0.15375 251793.120000
  12569  12577     1   0.14233 265014.560000
  12570  12571     1   0.15375 251793.120000
  12570  12576     1   0.14233 265014.560000
  12571  12575     1   0.14316 258236.480000
  12571  12587     1   0.14316 258236.480000
  12579  12585     1   0.14233 265014.560000
  12588  12589     1   0.15375 251793.120000
  12588  12602     1   0.15375 251793.120000
  12588  12610     1   0.14316 258236.480000
  12589  12592     1   0.15375 251793.120000
  12589  12601     1   0.14233 265014.560000
  12592  12593     1   0.15375 251793.120000
  12592  12600     1   0.14233 265014.560000
  12593  12594     1   0.15375 251793.120000
  12593  12599     1   0.14233 265014.560000
  12594  12598     1   0.14316 258236.480000
  12594  12610     1   0.14316 258236.480000
  12602  12608     1   0.14233 265014.560000
  12611  12612     1   0.15375 251793.120000
  12611  12625     1   0.15375 251793.120000
  12611  12633     1   0.14316 258236.480000
  12612  12615     1   0.15375 251793.120000
  12612  12624     1   0.14233 265014.560000
  12615  12616     1   0.15375 251793.120000
  12615  12623     1   0.14233 265014.560000
  12616  12617     1   0.15375 251793.120000
  12616  12622     1   0.14233 265014.560000
  12617  12621     1   0.14316 258236.480000
  12617  12633     1   0.14316 258236.480000
  12625  12631     1   0.14233 265014.560000
  12634  12635     1   0.15375 251793.120000
  12634  12648     1   0.15375 251793.120000
  12634  12656     1   0.14316 258236.480000
  12635  12638     1   0.15375 251793.120000
  12635  12647     1   0.14233 265014.560000
  12638  12639     1   0.15375 251793.120000
  12638  12646     1   0.14233 265014.560000
  12639  12640     1   0.15375 251793.120000
  12639  12645     1   0.14233 265014.560000
  12640  12644     1   0.14316 258236.480000
  12640  12656     1   0.14316 258236.480000
  12648  12654     1   0.14233 265014.560000
  12657  12658     1   0.15375 251793.120000
  12657  12671     1   0.15375 251793.120000
  12657  12679     1   0.14316 258236.480000
  12658  12661     1   0.15375 251793.120000
  12658  12670     1   0.14233 265014.560000
  12661  12662     1   0.15375 251793.120000
  12661  12669     1   0.14233 265014.560000
  12662  12663     1   0.15375 251793.120000
  12662  12668     1   0.14233 265014.560000
  12663  12667     1   0.14316 258236.480000
  12663  12679     1   0.14316 258236.480000
  12671  12677     1   0.14233 265014.560000
  12680  12681     1   0.15375 251793.120000
  12680  12694     1   0.15375 251793.120000
  12680  12702     1   0.14316 258236.480000
  12681  12684     1   0.15375 251793.120000
  12681  12693     1   0.14233 265014.560000
  12684  12685     1   0.15375 251793.120000
  12684  12692     1   0.14233 265014.560000
  12685  12686     1   0.15375 251793.120000
  12685  12691     1   0.14233 265014.560000
  12686  12690     1   0.14316 258236.480000
  12686  12702     1   0.14316 258236.480000
  12694  12700     1   0.14233 265014.560000
  12703  12704     1   0.15375 251793.120000
  12703  12717     1   0.15375 251793.120000
  12703  12725     1   0.14316 258236.480000
  12704  12707     1   0.15375 251793.120000
  12704  12716     1   0.14233 265014.560000
  12707  12708     1   0.15375 251793.120000
  12707  12715     1   0.14233 265014.560000
  12708  12709     1   0.15375 251793.120000
  12708  12714     1   0.14233 265014.560000
  12709  12713     1   0.14316 258236.480000
  12709  12725     1   0.14316 258236.480000
  12717  12723     1   0.14233 265014.560000
  12726  12727     1   0.15375 251793.120000
  12726  12740     1   0.15375 251793.120000
  12726  12748     1   0.14316 258236.480000
  12727  12730     1   0.15375 251793.120000
  12727  12739     1   0.14233 265014.560000
  12730  12731     1   0.15375 251793.120000
  12730  12738     1   0.14233 265014.560000
  12731  12732     1   0.15375 251793.120000
  12731  12737     1   0.14233 265014.560000
  12732  12736     1   0.14316 258236.480000
  12732  12748     1   0.14316 258236.480000
  12740  12746     1   0.14233 265014.560000
  12749  12750     1   0.15375 251793.120000
  12749  12763     1   0.15375 251793.120000
  12749  12771     1   0.14316 258236.480000
  12750  12753     1   0.15375 251793.120000
  12750  12762     1   0.14233 265014.560000
  12753  12754     1   0.15375 251793.120000
  12753  12761     1   0.14233 265014.560000
  12754  12755     1   0.15375 251793.120000
  12754  12760     1   0.14233 265014.560000
  12755  12759     1   0.14316 258236.480000
  12755  12771     1   0.14316 258236.480000
  12763  12769     1   0.14233 265014.560000
  12772  12773     1   0.15375 251793.120000
  12772  12786     1   0.15375 251793.120000
  12772  12794     1   0.14316 258236.480000
  12773  12776     1   0.15375 251793.120000
  12773  12785     1   0.14233 265014.560000
  12776  12777     1   0.15375 251793.120000
  12776  12784     1   0.14233 265014.560000
  12777  12778     1   0.15375 251793.120000
  12777  12783     1   0.14233 265014.560000
  12778  12782     1   0.14316 258236.480000
  12778  12794     1   0.14316 258236.480000
  12786  12792     1   0.14233 265014.560000
  12795  12796     1   0.15375 251793.120000
  12795  12809     1   0.15375 251793.120000
  12795  12817     1   0.14316 258236.480000
  12796  12799     1   0.15375 251793.120000
  12796  12808     1   0.14233 265014.560000
  12799  12800     1   0.15375 251793.120000
  12799  12807     1   0.14233 265014.560000
  12800  12801     1   0.15375 251793.120000
  12800  12806     1   0.14233 265014.560000
  12801  12805     1   0.14316 258236.480000
  12801  12817     1   0.14316 258236.480000
  12809  12815     1   0.14233 265014.560000
  12818  12819     1   0.15375 251793.120000
  12818  12832     1   0.15375 251793.120000
  12818  12840     1   0.14316 258236.480000
  12819  12822     1   0.15375 251793.120000
  12819  12831     1   0.14233 265014.560000
  12822  12823     1   0.15375 251793.120000
  12822  12830     1   0.14233 265014.560000
  12823  12824     1   0.15375 251793.120000
  12823  12829     1   0.14233 265014.560000
  12824  12828     1   0.14316 258236.480000
  12824  12840     1   0.14316 258236.480000
  12832  12838     1   0.14233 265014.560000
  12841  12842     1   0.15375 251793.120000
  12841  12855     1   0.15375 251793.120000
  12841  12863     1   0.14316 258236.480000
  12842  12845     1   0.15375 251793.120000
  12842  12854     1   0.14233 265014.560000
  12845  12846     1   0.15375 251793.120000
  12845  12853     1   0.14233 265014.560000
  12846  12847     1   0.15375 251793.120000
  12846  12852     1   0.14233 265014.560000
  12847  12851     1   0.14316 258236.480000
  12847  12863     1   0.14316 258236.480000
  12855  12861     1   0.14233 265014.560000
  12864  12865     1   0.15375 251793.120000
  12864  12878     1   0.15375 251793.120000
  12864  12886     1   0.14316 258236.480000
  12865  12868     1   0.15375 251793.120000
  12865  12877     1   0.14233 265014.560000
  12868  12869     1   0.15375 251793.120000
  12868  12876     1   0.14233 265014.560000
  12869  12870     1   0.15375 251793.120000
  12869  12875     1   0.14233 265014.560000
  12870  12874     1   0.14316 258236.480000
  12870  12886     1   0.14316 258236.480000
  12878  12884     1   0.14233 265014.560000
  12887  12888     1   0.15375 251793.120000
  12887  12901     1   0.15375 251793.120000
  12887  12909     1   0.14316 258236.480000
  12888  12891     1   0.15375 251793.120000
  12888  12900     1   0.14233 265014.560000
  12891  12892     1   0.15375 251793.120000
  12891  12899     1   0.14233 265014.560000
  12892  12893     1   0.15375 251793.120000
  12892  12898     1   0.14233 265014.560000
  12893  12897     1   0.14316 258236.480000
  12893  12909     1   0.14316 258236.480000
  12901  12907     1   0.14233 265014.560000
  12910  12911     1   0.15375 251793.120000
  12910  12924     1   0.15375 251793.120000
  12910  12932     1   0.14316 258236.480000
  12911  12914     1   0.15375 251793.120000
  12911  12923     1   0.14233 265014.560000
  12914  12915     1   0.15375 251793.120000
  12914  12922     1   0.14233 265014.560000
  12915  12916     1   0.15375 251793.120000
  12915  12921     1   0.14233 265014.560000
  12916  12920     1   0.14316 258236.480000
  12916  12932     1   0.14316 258236.480000
  12924  12930     1   0.14233 265014.560000
  12933  12934     1   0.15375 251793.120000
  12933  12947     1   0.15375 251793.120000
  12933  12955     1   0.14316 258236.480000
  12934  12937     1   0.15375 251793.120000
  12934  12946     1   0.14233 265014.560000
  12937  12938     1   0.15375 251793.120000
  12937  12945     1   0.14233 265014.560000
  12938  12939     1   0.15375 251793.120000
  12938  12944     1   0.14233 265014.560000
  12939  12943     1   0.14316 258236.480000
  12939  12955     1   0.14316 258236.480000
  12947  12953     1   0.14233 265014.560000
  12956  12957     1   0.15375 251793.120000
  12956  12970     1   0.15375 251793.120000
  12956  12978     1   0.14316 258236.480000
  12957  12960     1   0.15375 251793.120000
  12957  12969     1   0.14233 265014.560000
  12960  12961     1   0.15375 251793.120000
  12960  12968     1   0.14233 265014.560000
  12961  12962     1   0.15375 251793.120000
  12961  12967     1   0.14233 265014.560000
  12962  12966     1   0.14316 258236.480000
  12962  12978     1   0.14316 258236.480000
  12970  12976     1   0.14233 265014.560000
  12979  12980     1   0.15375 251793.120000
  12979  12993     1   0.15375 251793.120000
  12979  13001     1   0.14316 258236.480000
  12980  12983     1   0.15375 251793.120000
  12980  12992     1   0.14233 265014.560000
  12983  12984     1   0.15375 251793.120000
  12983  12991     1   0.14233 265014.560000
  12984  12985     1   0.15375 251793.120000
  12984  12990     1   0.14233 265014.560000
  12985  12989     1   0.14316 258236.480000
  12985  13001     1   0.14316 258236.480000
  12993  12999     1   0.14233 265014.560000
  13002  13003     1   0.15375 251793.120000
  13002  13016     1   0.15375 251793.120000
  13002  13024     1   0.14316 258236.480000
  13003  13006     1   0.15375 251793.120000
  13003  13015     1   0.14233 265014.560000
  13006  13007     1   0.15375 251793.120000
  13006  13014     1   0.14233 265014.560000
  13007  13008     1   0.15375 251793.120000
  13007  13013     1   0.14233 265014.560000
  13008  13012     1   0.14316 258236.480000
  13008  13024     1   0.14316 258236.480000
  13016  13022     1   0.14233 265014.560000
  13025  13026     1   0.15375 251793.120000
  13025  13039     1   0.15375 251793.120000
  13025  13047     1   0.14316 258236.480000
  13026  13029     1   0.15375 251793.120000
  13026  13038     1   0.14233 265014.560000
  13029  13030     1   0.15375 251793.120000
  13029  13037     1   0.14233 265014.560000
  13030  13031     1   0.15375 251793.120000
  13030  13036     1   0.14233 265014.560000
  13031  13035     1   0.14316 258236.480000
  13031  13047     1   0.14316 258236.480000
  13039  13045     1   0.14233 265014.560000
  13048  13049     1   0.15375 251793.120000
  13048  13062     1   0.15375 251793.120000
  13048  13070     1   0.14316 258236.480000
  13049  13052     1   0.15375 251793.120000
  13049  13061     1   0.14233 265014.560000
  13052  13053     1   0.15375 251793.120000
  13052  13060     1   0.14233 265014.560000
  13053  13054     1   0.15375 251793.120000
  13053  13059     1   0.14233 265014.560000
  13054  13058     1   0.14316 258236.480000
  13054  13070     1   0.14316 258236.480000
  13062  13068     1   0.14233 265014.560000
  13071  13072     1   0.15375 251793.120000
  13071  13085     1   0.15375 251793.120000
  13071  13093     1   0.14316 258236.480000
  13072  13075     1   0.15375 251793.120000
  13072  13084     1   0.14233 265014.560000
  13075  13076     1   0.15375 251793.120000
  13075  13083     1   0.14233 265014.560000
  13076  13077     1   0.15375 251793.120000
  13076  13082     1   0.14233 265014.560000
  13077  13081     1   0.14316 258236.480000
  13077  13093     1   0.14316 258236.480000
  13085  13091     1   0.14233 265014.560000
  13094  13095     1   0.15375 251793.120000
  13094  13108     1   0.15375 251793.120000
  13094  13116     1   0.14316 258236.480000
  13095  13098     1   0.15375 251793.120000
  13095  13107     1   0.14233 265014.560000
  13098  13099     1   0.15375 251793.120000
  13098  13106     1   0.14233 265014.560000
  13099  13100     1   0.15375 251793.120000
  13099  13105     1   0.14233 265014.560000
  13100  13104     1   0.14316 258236.480000
  13100  13116     1   0.14316 258236.480000
  13108  13114     1   0.14233 265014.560000
  13117  13118     1   0.15375 251793.120000
  13117  13131     1   0.15375 251793.120000
  13117  13139     1   0.14316 258236.480000
  13118  13121     1   0.15375 251793.120000
  13118  13130     1   0.14233 265014.560000
  13121  13122     1   0.15375 251793.120000
  13121  13129     1   0.14233 265014.560000
  13122  13123     1   0.15375 251793.120000
  13122  13128     1   0.14233 265014.560000
  13123  13127     1   0.14316 258236.480000
  13123  13139     1   0.14316 258236.480000
  13131  13137     1   0.14233 265014.560000
  13140  13141     1   0.15375 251793.120000
  13140  13154     1   0.15375 251793.120000
  13140  13162     1   0.14316 258236.480000
  13141  13144     1   0.15375 251793.120000
  13141  13153     1   0.14233 265014.560000
  13144  13145     1   0.15375 251793.120000
  13144  13152     1   0.14233 265014.560000
  13145  13146     1   0.15375 251793.120000
  13145  13151     1   0.14233 265014.560000
  13146  13150     1   0.14316 258236.480000
  13146  13162     1   0.14316 258236.480000
  13154  13160     1   0.14233 265014.560000
  13163  13164     1   0.15375 251793.120000
  13163  13177     1   0.15375 251793.120000
  13163  13185     1   0.14316 258236.480000
  13164  13167     1   0.15375 251793.120000
  13164  13176     1   0.14233 265014.560000
  13167  13168     1   0.15375 251793.120000
  13167  13175     1   0.14233 265014.560000
  13168  13169     1   0.15375 251793.120000
  13168  13174     1   0.14233 265014.560000
  13169  13173     1   0.14316 258236.480000
  13169  13185     1   0.14316 258236.480000
  13177  13183     1   0.14233 265014.560000
  13186  13187     1   0.15375 251793.120000
  13186  13200     1   0.15375 251793.120000
  13186  13208     1   0.14316 258236.480000
  13187  13190     1   0.15375 251793.120000
  13187  13199     1   0.14233 265014.560000
  13190  13191     1   0.15375 251793.120000
  13190  13198     1   0.14233 265014.560000
  13191  13192     1   0.15375 251793.120000
  13191  13197     1   0.14233 265014.560000
  13192  13196     1   0.14316 258236.480000
  13192  13208     1   0.14316 258236.480000
  13200  13206     1   0.14233 265014.560000
  13209  13210     1   0.15375 251793.120000
  13209  13223     1   0.15375 251793.120000
  13209  13231     1   0.14316 258236.480000
  13210  13213     1   0.15375 251793.120000
  13210  13222     1   0.14233 265014.560000
  13213  13214     1   0.15375 251793.120000
  13213  13221     1   0.14233 265014.560000
  13214  13215     1   0.15375 251793.120000
  13214  13220     1   0.14233 265014.560000
  13215  13219     1   0.14316 258236.480000
  13215  13231     1   0.14316 258236.480000
  13223  13229     1   0.14233 265014.560000
  13232  13233     1   0.15375 251793.120000
  13232  13246     1   0.15375 251793.120000
  13232  13254     1   0.14316 258236.480000
  13233  13236     1   0.15375 251793.120000
  13233  13245     1   0.14233 265014.560000
  13236  13237     1   0.15375 251793.120000
  13236  13244     1   0.14233 265014.560000
  13237  13238     1   0.15375 251793.120000
  13237  13243     1   0.14233 265014.560000
  13238  13242     1   0.14316 258236.480000
  13238  13254     1   0.14316 258236.480000
  13246  13252     1   0.14233 265014.560000
  13255  13256     1   0.15375 251793.120000
  13255  13269     1   0.15375 251793.120000
  13255  13277     1   0.14316 258236.480000
  13256  13259     1   0.15375 251793.120000
  13256  13268     1   0.14233 265014.560000
  13259  13260     1   0.15375 251793.120000
  13259  13267     1   0.14233 265014.560000
  13260  13261     1   0.15375 251793.120000
  13260  13266     1   0.14233 265014.560000
  13261  13265     1   0.14316 258236.480000
  13261  13277     1   0.14316 258236.480000
  13269  13275     1   0.14233 265014.560000
  13278  13279     1   0.15375 251793.120000
  13278  13292     1   0.15375 251793.120000
  13278  13300     1   0.14316 258236.480000
  13279  13282     1   0.15375 251793.120000
  13279  13291     1   0.14233 265014.560000
  13282  13283     1   0.15375 251793.120000
  13282  13290     1   0.14233 265014.560000
  13283  13284     1   0.15375 251793.120000
  13283  13289     1   0.14233 265014.560000
  13284  13288     1   0.14316 258236.480000
  13284  13300     1   0.14316 258236.480000
  13292  13298     1   0.14233 265014.560000
  13301  13302     1   0.15375 251793.120000
  13301  13315     1   0.15375 251793.120000
  13301  13323     1   0.14316 258236.480000
  13302  13305     1   0.15375 251793.120000
  13302  13314     1   0.14233 265014.560000
  13305  13306     1   0.15375 251793.120000
  13305  13313     1   0.14233 265014.560000
  13306  13307     1   0.15375 251793.120000
  13306  13312     1   0.14233 265014.560000
  13307  13311     1   0.14316 258236.480000
  13307  13323     1   0.14316 258236.480000
  13315  13321     1   0.14233 265014.560000
  13324  13325     1   0.15375 251793.120000
  13324  13338     1   0.15375 251793.120000
  13324  13346     1   0.14316 258236.480000
  13325  13328     1   0.15375 251793.120000
  13325  13337     1   0.14233 265014.560000
  13328  13329     1   0.15375 251793.120000
  13328  13336     1   0.14233 265014.560000
  13329  13330     1   0.15375 251793.120000
  13329  13335     1   0.14233 265014.560000
  13330  13334     1   0.14316 258236.480000
  13330  13346     1   0.14316 258236.480000
  13338  13344     1   0.14233 265014.560000
  13347  13348     1   0.15375 251793.120000
  13347  13361     1   0.15375 251793.120000
  13347  13369     1   0.14316 258236.480000
  13348  13351     1   0.15375 251793.120000
  13348  13360     1   0.14233 265014.560000
  13351  13352     1   0.15375 251793.120000
  13351  13359     1   0.14233 265014.560000
  13352  13353     1   0.15375 251793.120000
  13352  13358     1   0.14233 265014.560000
  13353  13357     1   0.14316 258236.480000
  13353  13369     1   0.14316 258236.480000
  13361  13367     1   0.14233 265014.560000
  13370  13371     1   0.15375 251793.120000
  13370  13384     1   0.15375 251793.120000
  13370  13392     1   0.14316 258236.480000
  13371  13374     1   0.15375 251793.120000
  13371  13383     1   0.14233 265014.560000
  13374  13375     1   0.15375 251793.120000
  13374  13382     1   0.14233 265014.560000
  13375  13376     1   0.15375 251793.120000
  13375  13381     1   0.14233 265014.560000
  13376  13380     1   0.14316 258236.480000
  13376  13392     1   0.14316 258236.480000
  13384  13390     1   0.14233 265014.560000
  13393  13394     1   0.15375 251793.120000
  13393  13407     1   0.15375 251793.120000
  13393  13415     1   0.14316 258236.480000
  13394  13397     1   0.15375 251793.120000
  13394  13406     1   0.14233 265014.560000
  13397  13398     1   0.15375 251793.120000
  13397  13405     1   0.14233 265014.560000
  13398  13399     1   0.15375 251793.120000
  13398  13404     1   0.14233 265014.560000
  13399  13403     1   0.14316 258236.480000
  13399  13415     1   0.14316 258236.480000
  13407  13413     1   0.14233 265014.560000
  13416  13417     1   0.15375 251793.120000
  13416  13430     1   0.15375 251793.120000
  13416  13438     1   0.14316 258236.480000
  13417  13420     1   0.15375 251793.120000
  13417  13429     1   0.14233 265014.560000
  13420  13421     1   0.15375 251793.120000
  13420  13428     1   0.14233 265014.560000
  13421  13422     1   0.15375 251793.120000
  13421  13427     1   0.14233 265014.560000
  13422  13426     1   0.14316 258236.480000
  13422  13438     1   0.14316 258236.480000
  13430  13436     1   0.14233 265014.560000
  13439  13440     1   0.15375 251793.120000
  13439  13453     1   0.15375 251793.120000
  13439  13461     1   0.14316 258236.480000
  13440  13443     1   0.15375 251793.120000
  13440  13452     1   0.14233 265014.560000
  13443  13444     1   0.15375 251793.120000
  13443  13451     1   0.14233 265014.560000
  13444  13445     1   0.15375 251793.120000
  13444  13450     1   0.14233 265014.560000
  13445  13449     1   0.14316 258236.480000
  13445  13461     1   0.14316 258236.480000
  13453  13459     1   0.14233 265014.560000
  13462  13463     1   0.15375 251793.120000
  13462  13476     1   0.15375 251793.120000
  13462  13484     1   0.14316 258236.480000
  13463  13466     1   0.15375 251793.120000
  13463  13475     1   0.14233 265014.560000
  13466  13467     1   0.15375 251793.120000
  13466  13474     1   0.14233 265014.560000
  13467  13468     1   0.15375 251793.120000
  13467  13473     1   0.14233 265014.560000
  13468  13472     1   0.14316 258236.480000
  13468  13484     1   0.14316 258236.480000
  13476  13482     1   0.14233 265014.560000
  13485  13486     1   0.15375 251793.120000
  13485  13499     1   0.15375 251793.120000
  13485  13507     1   0.14316 258236.480000
  13486  13489     1   0.15375 251793.120000
  13486  13498     1   0.14233 265014.560000
  13489  13490     1   0.15375 251793.120000
  13489  13497     1   0.14233 265014.560000
  13490  13491     1   0.15375 251793.120000
  13490  13496     1   0.14233 265014.560000
  13491  13495     1   0.14316 258236.480000
  13491  13507     1   0.14316 258236.480000
  13499  13505     1   0.14233 265014.560000
      2      3     1   0.10969 276646.080000
      2      4     1   0.10969 276646.080000
      5      6     1   0.10969 276646.080000
      5      7     1   0.10969 276646.080000
      8      9     1   0.10969 276646.080000
      8     10     1   0.10969 276646.080000
     11     12     1   0.10969 276646.080000
     11     13     1   0.10969 276646.080000
     14     15     1   0.10910 283424.160000
     14     16     1   0.10910 283424.160000
     17     18     1   0.10910 283424.160000
     17     19     1   0.10910 283424.160000
     20     58     1   0.10304 312293.760000
     21     59     1   0.10304 312293.760000
     22     23     1   0.10910 283424.160000
     22     24     1   0.10910 283424.160000
     25     26     1   0.10910 283424.160000
     25     27     1   0.10910 283424.160000
     28     29     1   0.10910 283424.160000
     28     30     1   0.10910 283424.160000
     31     32     1   0.10910 283424.160000
     31     33     1   0.10910 283424.160000
     34     35     1   0.10969 276646.080000
     34     36     1   0.10969 276646.080000
     37     38     1   0.10969 276646.080000
     37     39     1   0.10969 276646.080000
     40     41     1   0.10969 276646.080000
     40     42     1   0.10969 276646.080000
     43     44     1   0.10969 276646.080000
     43     45     1   0.10969 276646.080000
     46     47     1   0.10969 276646.080000
     46     48     1   0.10969 276646.080000
     49     50     1   0.10969 276646.080000
     49     51     1   0.10969 276646.080000
     52     53     1   0.10969 276646.080000
     52     54     1   0.10969 276646.080000
     55     56     1   0.10969 276646.080000
     55     57     1   0.10969 276646.080000
     60     89     1   0.10304 312293.760000
     61     62     1   0.10910 283424.160000
     61     63     1   0.10910 283424.160000
     64     65     1   0.10910 283424.160000
     64     66     1   0.10910 283424.160000
     67     68     1   0.10910 283424.160000
     67     69     1   0.10910 283424.160000
     70     71     1   0.10969 276646.080000
     70     72     1   0.10969 276646.080000
     73     74     1   0.10969 276646.080000
     73     75     1   0.10969 276646.080000
     76     77     1   0.10969 276646.080000
     76     78     1   0.10969 276646.080000
     79     80     1   0.10969 276646.080000
     79     81     1   0.10969 276646.080000
     82     83     1   0.10969 276646.080000
     82     84     1   0.10969 276646.080000
     85     86     1   0.10969 276646.080000
     85     87     1   0.10969 276646.080000
     90    119     1   0.10304 312293.760000
     91     92     1   0.10910 283424.160000
     91     93     1   0.10910 283424.160000
     94     95     1   0.10910 283424.160000
     94     96     1   0.10910 283424.160000
     97     98     1   0.10910 283424.160000
     97     99     1   0.10910 283424.160000
    100    101     1   0.10969 276646.080000
    100    102     1   0.10969 276646.080000
    103    104     1   0.10969 276646.080000
    103    105     1   0.10969 276646.080000
    106    107     1   0.10969 276646.080000
    106    108     1   0.10969 276646.080000
    109    110     1   0.10969 276646.080000
    109    111     1   0.10969 276646.080000
    112    113     1   0.10969 276646.080000
    112    114     1   0.10969 276646.080000
    115    116     1   0.10969 276646.080000
    115    117     1   0.10969 276646.080000
    120    149     1   0.10304 312293.760000
    121    122     1   0.10910 283424.160000
    121    123     1   0.10910 283424.160000
    124    125     1   0.10910 283424.160000
    124    126     1   0.10910 283424.160000
    127    128     1   0.10910 283424.160000
    127    129     1   0.10910 283424.160000
    130    131     1   0.10969 276646.080000
    130    132     1   0.10969 276646.080000
    133    134     1   0.10969 276646.080000
    133    135     1   0.10969 276646.080000
    136    137     1   0.10969 276646.080000
    136    138     1   0.10969 276646.080000
    139    140     1   0.10969 276646.080000
    139    141     1   0.10969 276646.080000
    142    143     1   0.10969 276646.080000
    142    144     1   0.10969 276646.080000
    145    146     1   0.10969 276646.080000
    145    147     1   0.10969 276646.080000
    150    179     1   0.10304 312293.760000
    151    152     1   0.10910 283424.160000
    151    153     1   0.10910 283424.160000
    154    155     1   0.10910 283424.160000
    154    156     1   0.10910 283424.160000
    157    158     1   0.10910 283424.160000
    157    159     1   0.10910 283424.160000
    160    161     1   0.10969 276646.080000
    160    162     1   0.10969 276646.080000
    163    164     1   0.10969 276646.080000
    163    165     1   0.10969 276646.080000
    166    167     1   0.10969 276646.080000
    166    168     1   0.10969 276646.080000
    169    170     1   0.10969 276646.080000
    169    171     1   0.10969 276646.080000
    172    173     1   0.10969 276646.080000
    172    174     1   0.10969 276646.080000
    175    176     1   0.10969 276646.080000
    175    177     1   0.10969 276646.080000
    180    209     1   0.10304 312293.760000
    181    182     1   0.10910 283424.160000
    181    183     1   0.10910 283424.160000
    184    185     1   0.10910 283424.160000
    184    186     1   0.10910 283424.160000
    187    188     1   0.10910 283424.160000
    187    189     1   0.10910 283424.160000
    190    191     1   0.10969 276646.080000
    190    192     1   0.10969 276646.080000
    193    194     1   0.10969 276646.080000
    193    195     1   0.10969 276646.080000
    196    197     1   0.10969 276646.080000
    196    198     1   0.10969 276646.080000
    199    200     1   0.10969 276646.080000
    199    201     1   0.10969 276646.080000
    202    203     1   0.10969 276646.080000
    202    204     1   0.10969 276646.080000
    205    206     1   0.10969 276646.080000
    205    207     1   0.10969 276646.080000
    210    239     1   0.10304 312293.760000
    211    212     1   0.10910 283424.160000
    211    213     1   0.10910 283424.160000
    214    215     1   0.10910 283424.160000
    214    216     1   0.10910 283424.160000
    217    218     1   0.10910 283424.160000
    217    219     1   0.10910 283424.160000
    220    221     1   0.10969 276646.080000
    220    222     1   0.10969 276646.080000
    223    224     1   0.10969 276646.080000
    223    225     1   0.10969 276646.080000
    226    227     1   0.10969 276646.080000
    226    228     1   0.10969 276646.080000
    229    230     1   0.10969 276646.080000
    229    231     1   0.10969 276646.080000
    232    233     1   0.10969 276646.080000
    232    234     1   0.10969 276646.080000
    235    236     1   0.10969 276646.080000
    235    237     1   0.10969 276646.080000
    240    269     1   0.10304 312293.760000
    241    242     1   0.10910 283424.160000
    241    243     1   0.10910 283424.160000
    244    245     1   0.10910 283424.160000
    244    246     1   0.10910 283424.160000
    247    248     1   0.10910 283424.160000
    247    249     1   0.10910 283424.160000
    250    251     1   0.10969 276646.080000
    250    252     1   0.10969 276646.080000
    253    254     1   0.10969 276646.080000
    253    255     1   0.10969 276646.080000
    256    257     1   0.10969 276646.080000
    256    258     1   0.10969 276646.080000
    259    260     1   0.10969 276646.080000
    259    261     1   0.10969 276646.080000
    262    263     1   0.10969 276646.080000
    262    264     1   0.10969 276646.080000
    265    266     1   0.10969 276646.080000
    265    267     1   0.10969 276646.080000
    270    299     1   0.10304 312293.760000
    271    272     1   0.10910 283424.160000
    271    273     1   0.10910 283424.160000
    274    275     1   0.10910 283424.160000
    274    276     1   0.10910 283424.160000
    277    278     1   0.10910 283424.160000
    277    279     1   0.10910 283424.160000
    280    281     1   0.10969 276646.080000
    280    282     1   0.10969 276646.080000
    283    284     1   0.10969 276646.080000
    283    285     1   0.10969 276646.080000
    286    287     1   0.10969 276646.080000
    286    288     1   0.10969 276646.080000
    289    290     1   0.10969 276646.080000
    289    291     1   0.10969 276646.080000
    292    293     1   0.10969 276646.080000
    292    294     1   0.10969 276646.080000
    295    296     1   0.10969 276646.080000
    295    297     1   0.10969 276646.080000
    300    329     1   0.10304 312293.760000
    301    302     1   0.10910 283424.160000
    301    303     1   0.10910 283424.160000
    304    305     1   0.10910 283424.160000
    304    306     1   0.10910 283424.160000
    307    308     1   0.10910 283424.160000
    307    309     1   0.10910 283424.160000
    310    311     1   0.10969 276646.080000
    310    312     1   0.10969 276646.080000
    313    314     1   0.10969 276646.080000
    313    315     1   0.10969 276646.080000
    316    317     1   0.10969 276646.080000
    316    318     1   0.10969 276646.080000
    319    320     1   0.10969 276646.080000
    319    321     1   0.10969 276646.080000
    322    323     1   0.10969 276646.080000
    322    324     1   0.10969 276646.080000
    325    326     1   0.10969 276646.080000
    325    327     1   0.10969 276646.080000
    330    359     1   0.10304 312293.760000
    331    332     1   0.10910 283424.160000
    331    333     1   0.10910 283424.160000
    334    335     1   0.10910 283424.160000
    334    336     1   0.10910 283424.160000
    337    338     1   0.10910 283424.160000
    337    339     1   0.10910 283424.160000
    340    341     1   0.10969 276646.080000
    340    342     1   0.10969 276646.080000
    343    344     1   0.10969 276646.080000
    343    345     1   0.10969 276646.080000
    346    347     1   0.10969 276646.080000
    346    348     1   0.10969 276646.080000
    349    350     1   0.10969 276646.080000
    349    351     1   0.10969 276646.080000
    352    353     1   0.10969 276646.080000
    352    354     1   0.10969 276646.080000
    355    356     1   0.10969 276646.080000
    355    357     1   0.10969 276646.080000
    360    389     1   0.10304 312293.760000
    361    362     1   0.10910 283424.160000
    361    363     1   0.10910 283424.160000
    364    365     1   0.10910 283424.160000
    364    366     1   0.10910 283424.160000
    367    368     1   0.10910 283424.160000
    367    369     1   0.10910 283424.160000
    370    371     1   0.10969 276646.080000
    370    372     1   0.10969 276646.080000
    373    374     1   0.10969 276646.080000
    373    375     1   0.10969 276646.080000
    376    377     1   0.10969 276646.080000
    376    378     1   0.10969 276646.080000
    379    380     1   0.10969 276646.080000
    379    381     1   0.10969 276646.080000
    382    383     1   0.10969 276646.080000
    382    384     1   0.10969 276646.080000
    385    386     1   0.10969 276646.080000
    385    387     1   0.10969 276646.080000
    390    419     1   0.10304 312293.760000
    391    392     1   0.10910 283424.160000
    391    393     1   0.10910 283424.160000
    394    395     1   0.10910 283424.160000
    394    396     1   0.10910 283424.160000
    397    398     1   0.10910 283424.160000
    397    399     1   0.10910 283424.160000
    400    401     1   0.10969 276646.080000
    400    402     1   0.10969 276646.080000
    403    404     1   0.10969 276646.080000
    403    405     1   0.10969 276646.080000
    406    407     1   0.10969 276646.080000
    406    408     1   0.10969 276646.080000
    409    410     1   0.10969 276646.080000
    409    411     1   0.10969 276646.080000
    412    413     1   0.10969 276646.080000
    412    414     1   0.10969 276646.080000
    415    416     1   0.10969 276646.080000
    415    417     1   0.10969 276646.080000
    420    449     1   0.10304 312293.760000
    421    422     1   0.10910 283424.160000
    421    423     1   0.10910 283424.160000
    424    425     1   0.10910 283424.160000
    424    426     1   0.10910 283424.160000
    427    428     1   0.10910 283424.160000
    427    429     1   0.10910 283424.160000
    430    431     1   0.10969 276646.080000
    430    432     1   0.10969 276646.080000
    433    434     1   0.10969 276646.080000
    433    435     1   0.10969 276646.080000
    436    437     1   0.10969 276646.080000
    436    438     1   0.10969 276646.080000
    439    440     1   0.10969 276646.080000
    439    441     1   0.10969 276646.080000
    442    443     1   0.10969 276646.080000
    442    444     1   0.10969 276646.080000
    445    446     1   0.10969 276646.080000
    445    447     1   0.10969 276646.080000
    450    479     1   0.10304 312293.760000
    451    452     1   0.10910 283424.160000
    451    453     1   0.10910 283424.160000
    454    455     1   0.10910 283424.160000
    454    456     1   0.10910 283424.160000
    457    458     1   0.10910 283424.160000
    457    459     1   0.10910 283424.160000
    460    461     1   0.10969 276646.080000
    460    462     1   0.10969 276646.080000
    463    464     1   0.10969 276646.080000
    463    465     1   0.10969 276646.080000
    466    467     1   0.10969 276646.080000
    466    468     1   0.10969 276646.080000
    469    470     1   0.10969 276646.080000
    469    471     1   0.10969 276646.080000
    472    473     1   0.10969 276646.080000
    472    474     1   0.10969 276646.080000
    475    476     1   0.10969 276646.080000
    475    477     1   0.10969 276646.080000
    480    509     1   0.10304 312293.760000
    481    482     1   0.10910 283424.160000
    481    483     1   0.10910 283424.160000
    484    485     1   0.10910 283424.160000
    484    486     1   0.10910 283424.160000
    487    488     1   0.10910 283424.160000
    487    489     1   0.10910 283424.160000
    490    491     1   0.10969 276646.080000
    490    492     1   0.10969 276646.080000
    493    494     1   0.10969 276646.080000
    493    495     1   0.10969 276646.080000
    496    497     1   0.10969 276646.080000
    496    498     1   0.10969 276646.080000
    499    500     1   0.10969 276646.080000
    499    501     1   0.10969 276646.080000
    502    503     1   0.10969 276646.080000
    502    504     1   0.10969 276646.080000
    505    506     1   0.10969 276646.080000
    505    507     1   0.10969 276646.080000
    510    539     1   0.10304 312293.760000
    511    512     1   0.10910 283424.160000
    511    513     1   0.10910 283424.160000
    514    515     1   0.10910 283424.160000
    514    516     1   0.10910 283424.160000
    517    518     1   0.10910 283424.160000
    517    519     1   0.10910 283424.160000
    520    521     1   0.10969 276646.080000
    520    522     1   0.10969 276646.080000
    523    524     1   0.10969 276646.080000
    523    525     1   0.10969 276646.080000
    526    527     1   0.10969 276646.080000
    526    528     1   0.10969 276646.080000
    529    530     1   0.10969 276646.080000
    529    531     1   0.10969 276646.080000
    532    533     1   0.10969 276646.080000
    532    534     1   0.10969 276646.080000
    535    536     1   0.10969 276646.080000
    535    537     1   0.10969 276646.080000
    540    569     1   0.10304 312293.760000
    541    542     1   0.10910 283424.160000
    541    543     1   0.10910 283424.160000
    544    545     1   0.10910 283424.160000
    544    546     1   0.10910 283424.160000
    547    548     1   0.10910 283424.160000
    547    549     1   0.10910 283424.160000
    550    551     1   0.10969 276646.080000
    550    552     1   0.10969 276646.080000
    553    554     1   0.10969 276646.080000
    553    555     1   0.10969 276646.080000
    556    557     1   0.10969 276646.080000
    556    558     1   0.10969 276646.080000
    559    560     1   0.10969 276646.080000
    559    561     1   0.10969 276646.080000
    562    563     1   0.10969 276646.080000
    562    564     1   0.10969 276646.080000
    565    566     1   0.10969 276646.080000
    565    567     1   0.10969 276646.080000
    570    599     1   0.10304 312293.760000
    571    572     1   0.10910 283424.160000
    571    573     1   0.10910 283424.160000
    574    575     1   0.10910 283424.160000
    574    576     1   0.10910 283424.160000
    577    578     1   0.10910 283424.160000
    577    579     1   0.10910 283424.160000
    580    581     1   0.10969 276646.080000
    580    582     1   0.10969 276646.080000
    583    584     1   0.10969 276646.080000
    583    585     1   0.10969 276646.080000
    586    587     1   0.10969 276646.080000
    586    588     1   0.10969 276646.080000
    589    590     1   0.10969 276646.080000
    589    591     1   0.10969 276646.080000
    592    593     1   0.10969 276646.080000
    592    594     1   0.10969 276646.080000
    595    596     1   0.10969 276646.080000
    595    597     1   0.10969 276646.080000
    600    629     1   0.10304 312293.760000
    601    602     1   0.10910 283424.160000
    601    603     1   0.10910 283424.160000
    604    605     1   0.10910 283424.160000
    604    606     1   0.10910 283424.160000
    607    608     1   0.10910 283424.160000
    607    609     1   0.10910 283424.160000
    610    611     1   0.10969 276646.080000
    610    612     1   0.10969 276646.080000
    613    614     1   0.10969 276646.080000
    613    615     1   0.10969 276646.080000
    616    617     1   0.10969 276646.080000
    616    618     1   0.10969 276646.080000
    619    620     1   0.10969 276646.080000
    619    621     1   0.10969 276646.080000
    622    623     1   0.10969 276646.080000
    622    624     1   0.10969 276646.080000
    625    626     1   0.10969 276646.080000
    625    627     1   0.10969 276646.080000
    630    659     1   0.10304 312293.760000
    631    632     1   0.10910 283424.160000
    631    633     1   0.10910 283424.160000
    634    635     1   0.10910 283424.160000
    634    636     1   0.10910 283424.160000
    637    638     1   0.10910 283424.160000
    637    639     1   0.10910 283424.160000
    640    641     1   0.10969 276646.080000
    640    642     1   0.10969 276646.080000
    643    644     1   0.10969 276646.080000
    643    645     1   0.10969 276646.080000
    646    647     1   0.10969 276646.080000
    646    648     1   0.10969 276646.080000
    649    650     1   0.10969 276646.080000
    649    651     1   0.10969 276646.080000
    652    653     1   0.10969 276646.080000
    652    654     1   0.10969 276646.080000
    655    656     1   0.10969 276646.080000
    655    657     1   0.10969 276646.080000
    660    689     1   0.10304 312293.760000
    661    662     1   0.10910 283424.160000
    661    663     1   0.10910 283424.160000
    664    665     1   0.10910 283424.160000
    664    666     1   0.10910 283424.160000
    667    668     1   0.10910 283424.160000
    667    669     1   0.10910 283424.160000
    670    671     1   0.10969 276646.080000
    670    672     1   0.10969 276646.080000
    673    674     1   0.10969 276646.080000
    673    675     1   0.10969 276646.080000
    676    677     1   0.10969 276646.080000
    676    678     1   0.10969 276646.080000
    679    680     1   0.10969 276646.080000
    679    681     1   0.10969 276646.080000
    682    683     1   0.10969 276646.080000
    682    684     1   0.10969 276646.080000
    685    686     1   0.10969 276646.080000
    685    687     1   0.10969 276646.080000
    690    719     1   0.10304 312293.760000
    691    692     1   0.10910 283424.160000
    691    693     1   0.10910 283424.160000
    694    695     1   0.10910 283424.160000
    694    696     1   0.10910 283424.160000
    697    698     1   0.10910 283424.160000
    697    699     1   0.10910 283424.160000
    700    701     1   0.10969 276646.080000
    700    702     1   0.10969 276646.080000
    703    704     1   0.10969 276646.080000
    703    705     1   0.10969 276646.080000
    706    707     1   0.10969 276646.080000
    706    708     1   0.10969 276646.080000
    709    710     1   0.10969 276646.080000
    709    711     1   0.10969 276646.080000
    712    713     1   0.10969 276646.080000
    712    714     1   0.10969 276646.080000
    715    716     1   0.10969 276646.080000
    715    717     1   0.10969 276646.080000
    720    749     1   0.10304 312293.760000
    721    722     1   0.10910 283424.160000
    721    723     1   0.10910 283424.160000
    724    725     1   0.10910 283424.160000
    724    726     1   0.10910 283424.160000
    727    728     1   0.10910 283424.160000
    727    729     1   0.10910 283424.160000
    730    731     1   0.10969 276646.080000
    730    732     1   0.10969 276646.080000
    733    734     1   0.10969 276646.080000
    733    735     1   0.10969 276646.080000
    736    737     1   0.10969 276646.080000
    736    738     1   0.10969 276646.080000
    739    740     1   0.10969 276646.080000
    739    741     1   0.10969 276646.080000
    742    743     1   0.10969 276646.080000
    742    744     1   0.10969 276646.080000
    745    746     1   0.10969 276646.080000
    745    747     1   0.10969 276646.080000
    750    779     1   0.10304 312293.760000
    751    752     1   0.10910 283424.160000
    751    753     1   0.10910 283424.160000
    754    755     1   0.10910 283424.160000
    754    756     1   0.10910 283424.160000
    757    758     1   0.10910 283424.160000
    757    759     1   0.10910 283424.160000
    760    761     1   0.10969 276646.080000
    760    762     1   0.10969 276646.080000
    763    764     1   0.10969 276646.080000
    763    765     1   0.10969 276646.080000
    766    767     1   0.10969 276646.080000
    766    768     1   0.10969 276646.080000
    769    770     1   0.10969 276646.080000
    769    771     1   0.10969 276646.080000
    772    773     1   0.10969 276646.080000
    772    774     1   0.10969 276646.080000
    775    776     1   0.10969 276646.080000
    775    777     1   0.10969 276646.080000
    780    809     1   0.10304 312293.760000
    781    782     1   0.10910 283424.160000
    781    783     1   0.10910 283424.160000
    784    785     1   0.10910 283424.160000
    784    786     1   0.10910 283424.160000
    787    788     1   0.10910 283424.160000
    787    789     1   0.10910 283424.160000
    790    791     1   0.10969 276646.080000
    790    792     1   0.10969 276646.080000
    793    794     1   0.10969 276646.080000
    793    795     1   0.10969 276646.080000
    796    797     1   0.10969 276646.080000
    796    798     1   0.10969 276646.080000
    799    800     1   0.10969 276646.080000
    799    801     1   0.10969 276646.080000
    802    803     1   0.10969 276646.080000
    802    804     1   0.10969 276646.080000
    805    806     1   0.10969 276646.080000
    805    807     1   0.10969 276646.080000
    810    839     1   0.10304 312293.760000
    811    812     1   0.10910 283424.160000
    811    813     1   0.10910 283424.160000
    814    815     1   0.10910 283424.160000
    814    816     1   0.10910 283424.160000
    817    818     1   0.10910 283424.160000
    817    819     1   0.10910 283424.160000
    820    821     1   0.10969 276646.080000
    820    822     1   0.10969 276646.080000
    823    824     1   0.10969 276646.080000
    823    825     1   0.10969 276646.080000
    826    827     1   0.10969 276646.080000
    826    828     1   0.10969 276646.080000
    829    830     1   0.10969 276646.080000
    829    831     1   0.10969 276646.080000
    832    833     1   0.10969 276646.080000
    832    834     1   0.10969 276646.080000
    835    836     1   0.10969 276646.080000
    835    837     1   0.10969 276646.080000
    840    869     1   0.10304 312293.760000
    841    842     1   0.10910 283424.160000
    841    843     1   0.10910 283424.160000
    844    845     1   0.10910 283424.160000
    844    846     1   0.10910 283424.160000
    847    848     1   0.10910 283424.160000
    847    849     1   0.10910 283424.160000
    850    851     1   0.10969 276646.080000
    850    852     1   0.10969 276646.080000
    853    854     1   0.10969 276646.080000
    853    855     1   0.10969 276646.080000
    856    857     1   0.10969 276646.080000
    856    858     1   0.10969 276646.080000
    859    860     1   0.10969 276646.080000
    859    861     1   0.10969 276646.080000
    862    863     1   0.10969 276646.080000
    862    864     1   0.10969 276646.080000
    865    866     1   0.10969 276646.080000
    865    867     1   0.10969 276646.080000
    870    899     1   0.10304 312293.760000
    871    872     1   0.10910 283424.160000
    871    873     1   0.10910 283424.160000
    874    875     1   0.10910 283424.160000
    874    876     1   0.10910 283424.160000
    877    878     1   0.10910 283424.160000
    877    879     1   0.10910 283424.160000
    880    881     1   0.10969 276646.080000
    880    882     1   0.10969 276646.080000
    883    884     1   0.10969 276646.080000
    883    885     1   0.10969 276646.080000
    886    887     1   0.10969 276646.080000
    886    888     1   0.10969 276646.080000
    889    890     1   0.10969 276646.080000
    889    891     1   0.10969 276646.080000
    892    893     1   0.10969 276646.080000
    892    894     1   0.10969 276646.080000
    895    896     1   0.10969 276646.080000
    895    897     1   0.10969 276646.080000
    900    929     1   0.10304 312293.760000
    901    902     1   0.10910 283424.160000
    901    903     1   0.10910 283424.160000
    904    905     1   0.10910 283424.160000
    904    906     1   0.10910 283424.160000
    907    908     1   0.10910 283424.160000
    907    909     1   0.10910 283424.160000
    910    911     1   0.10969 276646.080000
    910    912     1   0.10969 276646.080000
    913    914     1   0.10969 276646.080000
    913    915     1   0.10969 276646.080000
    916    917     1   0.10969 276646.080000
    916    918     1   0.10969 276646.080000
    919    920     1   0.10969 276646.080000
    919    921     1   0.10969 276646.080000
    922    923     1   0.10969 276646.080000
    922    924     1   0.10969 276646.080000
    925    926     1   0.10969 276646.080000
    925    927     1   0.10969 276646.080000
    930    959     1   0.10304 312293.760000
    931    932     1   0.10910 283424.160000
    931    933     1   0.10910 283424.160000
    934    935     1   0.10910 283424.160000
    934    936     1   0.10910 283424.160000
    937    938     1   0.10910 283424.160000
    937    939     1   0.10910 283424.160000
    940    941     1   0.10969 276646.080000
    940    942     1   0.10969 276646.080000
    943    944     1   0.10969 276646.080000
    943    945     1   0.10969 276646.080000
    946    947     1   0.10969 276646.080000
    946    948     1   0.10969 276646.080000
    949    950     1   0.10969 276646.080000
    949    951     1   0.10969 276646.080000
    952    953     1   0.10969 276646.080000
    952    954     1   0.10969 276646.080000
    955    956     1   0.10969 276646.080000
    955    957     1   0.10969 276646.080000
    960    989     1   0.10304 312293.760000
    961    962     1   0.10910 283424.160000
    961    963     1   0.10910 283424.160000
    964    965     1   0.10910 283424.160000
    964    966     1   0.10910 283424.160000
    967    968     1   0.10910 283424.160000
    967    969     1   0.10910 283424.160000
    970    971     1   0.10969 276646.080000
    970    972     1   0.10969 276646.080000
    973    974     1   0.10969 276646.080000
    973    975     1   0.10969 276646.080000
    976    977     1   0.10969 276646.080000
    976    978     1   0.10969 276646.080000
    979    980     1   0.10969 276646.080000
    979    981     1   0.10969 276646.080000
    982    983     1   0.10969 276646.080000
    982    984     1   0.10969 276646.080000
    985    986     1   0.10969 276646.080000
    985    987     1   0.10969 276646.080000
    990   1019     1   0.10304 312293.760000
    991    992     1   0.10910 283424.160000
    991    993     1   0.10910 283424.160000
    994    995     1   0.10910 283424.160000
    994    996     1   0.10910 283424.160000
    997    998     1   0.10910 283424.160000
    997    999     1   0.10910 283424.160000
   1000   1001     1   0.10969 276646.080000
   1000   1002     1   0.10969 276646.080000
   1003   1004     1   0.10969 276646.080000
   1003   1005     1   0.10969 276646.080000
   1006   1007     1   0.10969 276646.080000
   1006   1008     1   0.10969 276646.080000
   1009   1010     1   0.10969 276646.080000
   1009   1011     1   0.10969 276646.080000
   1012   1013     1   0.10969 276646.080000
   1012   1014     1   0.10969 276646.080000
   1015   1016     1   0.10969 276646.080000
   1015   1017     1   0.10969 276646.080000
   1020   1049     1   0.10304 312293.760000
   1021   1022     1   0.10910 283424.160000
   1021   1023     1   0.10910 283424.160000
   1024   1025     1   0.10910 283424.160000
   1024   1026     1   0.10910 283424.160000
   1027   1028     1   0.10910 283424.160000
   1027   1029     1   0.10910 283424.160000
   1030   1031     1   0.10969 276646.080000
   1030   1032     1   0.10969 276646.080000
   1033   1034     1   0.10969 276646.080000
   1033   1035     1   0.10969 276646.080000
   1036   1037     1   0.10969 276646.080000
   1036   1038     1   0.10969 276646.080000
   1039   1040     1   0.10969 276646.080000
   1039   1041     1   0.10969 276646.080000
   1042   1043     1   0.10969 276646.080000
   1042   1044     1   0.10969 276646.080000
   1045   1046     1   0.10969 276646.080000
   1045   1047     1   0.10969 276646.080000
   1050   1079     1   0.10304 312293.760000
   1051   1052     1   0.10910 283424.160000
   1051   1053     1   0.10910 283424.160000
   1054   1055     1   0.10910 283424.160000
   1054   1056     1   0.10910 283424.160000
   1057   1058     1   0.10910 283424.160000
   1057   1059     1   0.10910 283424.160000
   1060   1061     1   0.10969 276646.080000
   1060   1062     1   0.10969 276646.080000
   1063   1064     1   0.10969 276646.080000
   1063   1065     1   0.10969 276646.080000
   1066   1067     1   0.10969 276646.080000
   1066   1068     1   0.10969 276646.080000
   1069   1070     1   0.10969 276646.080000
   1069   1071     1   0.10969 276646.080000
   1072   1073     1   0.10969 276646.080000
   1072   1074     1   0.10969 276646.080000
   1075   1076     1   0.10969 276646.080000
   1075   1077     1   0.10969 276646.080000
   1080   1109     1   0.10304 312293.760000
   1081   1082     1   0.10910 283424.160000
   1081   1083     1   0.10910 283424.160000
   1084   1085     1   0.10910 283424.160000
   1084   1086     1   0.10910 283424.160000
   1087   1088     1   0.10910 283424.160000
   1087   1089     1   0.10910 283424.160000
   1090   1091     1   0.10969 276646.080000
   1090   1092     1   0.10969 276646.080000
   1093   1094     1   0.10969 276646.080000
   1093   1095     1   0.10969 276646.080000
   1096   1097     1   0.10969 276646.080000
   1096   1098     1   0.10969 276646.080000
   1099   1100     1   0.10969 276646.080000
   1099   1101     1   0.10969 276646.080000
   1102   1103     1   0.10969 276646.080000
   1102   1104     1   0.10969 276646.080000
   1105   1106     1   0.10969 276646.080000
   1105   1107     1   0.10969 276646.080000
   1110   1139     1   0.10304 312293.760000
   1111   1112     1   0.10910 283424.160000
   1111   1113     1   0.10910 283424.160000
   1114   1115     1   0.10910 283424.160000
   1114   1116     1   0.10910 283424.160000
   1117   1118     1   0.10910 283424.160000
   1117   1119     1   0.10910 283424.160000
   1120   1121     1   0.10969 276646.080000
   1120   1122     1   0.10969 276646.080000
   1123   1124     1   0.10969 276646.080000
   1123   1125     1   0.10969 276646.080000
   1126   1127     1   0.10969 276646.080000
   1126   1128     1   0.10969 276646.080000
   1129   1130     1   0.10969 276646.080000
   1129   1131     1   0.10969 276646.080000
   1132   1133     1   0.10969 276646.080000
   1132   1134     1   0.10969 276646.080000
   1135   1136     1   0.10969 276646.080000
   1135   1137     1   0.10969 276646.080000
   1140   1169     1   0.10304 312293.760000
   1141   1142     1   0.10910 283424.160000
   1141   1143     1   0.10910 283424.160000
   1144   1145     1   0.10910 283424.160000
   1144   1146     1   0.10910 283424.160000
   1147   1148     1   0.10910 283424.160000
   1147   1149     1   0.10910 283424.160000
   1150   1151     1   0.10969 276646.080000
   1150   1152     1   0.10969 276646.080000
   1153   1154     1   0.10969 276646.080000
   1153   1155     1   0.10969 276646.080000
   1156   1157     1   0.10969 276646.080000
   1156   1158     1   0.10969 276646.080000
   1159   1160     1   0.10969 276646.080000
   1159   1161     1   0.10969 276646.080000
   1162   1163     1   0.10969 276646.080000
   1162   1164     1   0.10969 276646.080000
   1165   1166     1   0.10969 276646.080000
   1165   1167     1   0.10969 276646.080000
   1170   1199     1   0.10304 312293.760000
   1171   1172     1   0.10910 283424.160000
   1171   1173     1   0.10910 283424.160000
   1174   1175     1   0.10910 283424.160000
   1174   1176     1   0.10910 283424.160000
   1177   1178     1   0.10910 283424.160000
   1177   1179     1   0.10910 283424.160000
   1180   1181     1   0.10969 276646.080000
   1180   1182     1   0.10969 276646.080000
   1183   1184     1   0.10969 276646.080000
   1183   1185     1   0.10969 276646.080000
   1186   1187     1   0.10969 276646.080000
   1186   1188     1   0.10969 276646.080000
   1189   1190     1   0.10969 276646.080000
   1189   1191     1   0.10969 276646.080000
   1192   1193     1   0.10969 276646.080000
   1192   1194     1   0.10969 276646.080000
   1195   1196     1   0.10969 276646.080000
   1195   1197     1   0.10969 276646.080000
   1200   1229     1   0.10304 312293.760000
   1201   1202     1   0.10910 283424.160000
   1201   1203     1   0.10910 283424.160000
   1204   1205     1   0.10910 283424.160000
   1204   1206     1   0.10910 283424.160000
   1207   1208     1   0.10910 283424.160000
   1207   1209     1   0.10910 283424.160000
   1210   1211     1   0.10969 276646.080000
   1210   1212     1   0.10969 276646.080000
   1213   1214     1   0.10969 276646.080000
   1213   1215     1   0.10969 276646.080000
   1216   1217     1   0.10969 276646.080000
   1216   1218     1   0.10969 276646.080000
   1219   1220     1   0.10969 276646.080000
   1219   1221     1   0.10969 276646.080000
   1222   1223     1   0.10969 276646.080000
   1222   1224     1   0.10969 276646.080000
   1225   1226     1   0.10969 276646.080000
   1225   1227     1   0.10969 276646.080000
   1230   1259     1   0.10304 312293.760000
   1231   1232     1   0.10910 283424.160000
   1231   1233     1   0.10910 283424.160000
   1234   1235     1   0.10910 283424.160000
   1234   1236     1   0.10910 283424.160000
   1237   1238     1   0.10910 283424.160000
   1237   1239     1   0.10910 283424.160000
   1240   1241     1   0.10969 276646.080000
   1240   1242     1   0.10969 276646.080000
   1243   1244     1   0.10969 276646.080000
   1243   1245     1   0.10969 276646.080000
   1246   1247     1   0.10969 276646.080000
   1246   1248     1   0.10969 276646.080000
   1249   1250     1   0.10969 276646.080000
   1249   1251     1   0.10969 276646.080000
   1252   1253     1   0.10969 276646.080000
   1252   1254     1   0.10969 276646.080000
   1255   1256     1   0.10969 276646.080000
   1255   1257     1   0.10969 276646.080000
   1260   1289     1   0.10304 312293.760000
   1261   1262     1   0.10910 283424.160000
   1261   1263     1   0.10910 283424.160000
   1264   1265     1   0.10910 283424.160000
   1264   1266     1   0.10910 283424.160000
   1267   1268     1   0.10910 283424.160000
   1267   1269     1   0.10910 283424.160000
   1270   1271     1   0.10969 276646.080000
   1270   1272     1   0.10969 276646.080000
   1273   1274     1   0.10969 276646.080000
   1273   1275     1   0.10969 276646.080000
   1276   1277     1   0.10969 276646.080000
   1276   1278     1   0.10969 276646.080000
   1279   1280     1   0.10969 276646.080000
   1279   1281     1   0.10969 276646.080000
   1282   1283     1   0.10969 276646.080000
   1282   1284     1   0.10969 276646.080000
   1285   1286     1   0.10969 276646.080000
   1285   1287     1   0.10969 276646.080000
   1290   1319     1   0.10304 312293.760000
   1291   1292     1   0.10910 283424.160000
   1291   1293     1   0.10910 283424.160000
   1294   1295     1   0.10910 283424.160000
   1294   1296     1   0.10910 283424.160000
   1297   1298     1   0.10910 283424.160000
   1297   1299     1   0.10910 283424.160000
   1300   1301     1   0.10969 276646.080000
   1300   1302     1   0.10969 276646.080000
   1303   1304     1   0.10969 276646.080000
   1303   1305     1   0.10969 276646.080000
   1306   1307     1   0.10969 276646.080000
   1306   1308     1   0.10969 276646.080000
   1309   1310     1   0.10969 276646.080000
   1309   1311     1   0.10969 276646.080000
   1312   1313     1   0.10969 276646.080000
   1312   1314     1   0.10969 276646.080000
   1315   1316     1   0.10969 276646.080000
   1315   1317     1   0.10969 276646.080000
   1320   1349     1   0.10304 312293.760000
   1321   1322     1   0.10910 283424.160000
   1321   1323     1   0.10910 283424.160000
   1324   1325     1   0.10910 283424.160000
   1324   1326     1   0.10910 283424.160000
   1327   1328     1   0.10910 283424.160000
   1327   1329     1   0.10910 283424.160000
   1330   1331     1   0.10969 276646.080000
   1330   1332     1   0.10969 276646.080000
   1333   1334     1   0.10969 276646.080000
   1333   1335     1   0.10969 276646.080000
   1336   1337     1   0.10969 276646.080000
   1336   1338     1   0.10969 276646.080000
   1339   1340     1   0.10969 276646.080000
   1339   1341     1   0.10969 276646.080000
   1342   1343     1   0.10969 276646.080000
   1342   1344     1   0.10969 276646.080000
   1345   1346     1   0.10969 276646.080000
   1345   1347     1   0.10969 276646.080000
   1350   1379     1   0.10304 312293.760000
   1351   1352     1   0.10910 283424.160000
   1351   1353     1   0.10910 283424.160000
   1354   1355     1   0.10910 283424.160000
   1354   1356     1   0.10910 283424.160000
   1357   1358     1   0.10910 283424.160000
   1357   1359     1   0.10910 283424.160000
   1360   1361     1   0.10969 276646.080000
   1360   1362     1   0.10969 276646.080000
   1363   1364     1   0.10969 276646.080000
   1363   1365     1   0.10969 276646.080000
   1366   1367     1   0.10969 276646.080000
   1366   1368     1   0.10969 276646.080000
   1369   1370     1   0.10969 276646.080000
   1369   1371     1   0.10969 276646.080000
   1372   1373     1   0.10969 276646.080000
   1372   1374     1   0.10969 276646.080000
   1375   1376     1   0.10969 276646.080000
   1375   1377     1   0.10969 276646.080000
   1380   1409     1   0.10304 312293.760000
   1381   1382     1   0.10910 283424.160000
   1381   1383     1   0.10910 283424.160000
   1384   1385     1   0.10910 283424.160000
   1384   1386     1   0.10910 283424.160000
   1387   1388     1   0.10910 283424.160000
   1387   1389     1   0.10910 283424.160000
   1390   1391     1   0.10969 276646.080000
   1390   1392     1   0.10969 276646.080000
   1393   1394     1   0.10969 276646.080000
   1393   1395     1   0.10969 276646.080000
   1396   1397     1   0.10969 276646.080000
   1396   1398     1   0.10969 276646.080000
   1399   1400     1   0.10969 276646.080000
   1399   1401     1   0.10969 276646.080000
   1402   1403     1   0.10969 276646.080000
   1402   1404     1   0.10969 276646.080000
   1405   1406     1   0.10969 276646.080000
   1405   1407     1   0.10969 276646.080000
   1410   1439     1   0.10304 312293.760000
   1411   1412     1   0.10910 283424.160000
   1411   1413     1   0.10910 283424.160000
   1414   1415     1   0.10910 283424.160000
   1414   1416     1   0.10910 283424.160000
   1417   1418     1   0.10910 283424.160000
   1417   1419     1   0.10910 283424.160000
   1420   1421     1   0.10969 276646.080000
   1420   1422     1   0.10969 276646.080000
   1423   1424     1   0.10969 276646.080000
   1423   1425     1   0.10969 276646.080000
   1426   1427     1   0.10969 276646.080000
   1426   1428     1   0.10969 276646.080000
   1429   1430     1   0.10969 276646.080000
   1429   1431     1   0.10969 276646.080000
   1432   1433     1   0.10969 276646.080000
   1432   1434     1   0.10969 276646.080000
   1435   1436     1   0.10969 276646.080000
   1435   1437     1   0.10969 276646.080000
   1440   1469     1   0.10304 312293.760000
   1441   1442     1   0.10910 283424.160000
   1441   1443     1   0.10910 283424.160000
   1444   1445     1   0.10910 283424.160000
   1444   1446     1   0.10910 283424.160000
   1447   1448     1   0.10910 283424.160000
   1447   1449     1   0.10910 283424.160000
   1450   1451     1   0.10969 276646.080000
   1450   1452     1   0.10969 276646.080000
   1453   1454     1   0.10969 276646.080000
   1453   1455     1   0.10969 276646.080000
   1456   1457     1   0.10969 276646.080000
   1456   1458     1   0.10969 276646.080000
   1459   1460     1   0.10969 276646.080000
   1459   1461     1   0.10969 276646.080000
   1462   1463     1   0.10969 276646.080000
   1462   1464     1   0.10969 276646.080000
   1465   1466     1   0.10969 276646.080000
   1465   1467     1   0.10969 276646.080000
   1470   1499     1   0.10304 312293.760000
   1471   1472     1   0.10910 283424.160000
   1471   1473     1   0.10910 283424.160000
   1474   1475     1   0.10910 283424.160000
   1474   1476     1   0.10910 283424.160000
   1477   1478     1   0.10910 283424.160000
   1477   1479     1   0.10910 283424.160000
   1480   1481     1   0.10969 276646.080000
   1480   1482     1   0.10969 276646.080000
   1483   1484     1   0.10969 276646.080000
   1483   1485     1   0.10969 276646.080000
   1486   1487     1   0.10969 276646.080000
   1486   1488     1   0.10969 276646.080000
   1489   1490     1   0.10969 276646.080000
   1489   1491     1   0.10969 276646.080000
   1492   1493     1   0.10969 276646.080000
   1492   1494     1   0.10969 276646.080000
   1495   1496     1   0.10969 276646.080000
   1495   1497     1   0.10969 276646.080000
   1500   1529     1   0.10304 312293.760000
   1501   1502     1   0.10910 283424.160000
   1501   1503     1   0.10910 283424.160000
   1504   1505     1   0.10910 283424.160000
   1504   1506     1   0.10910 283424.160000
   1507   1508     1   0.10910 283424.160000
   1507   1509     1   0.10910 283424.160000
   1510   1511     1   0.10969 276646.080000
   1510   1512     1   0.10969 276646.080000
   1513   1514     1   0.10969 276646.080000
   1513   1515     1   0.10969 276646.080000
   1516   1517     1   0.10969 276646.080000
   1516   1518     1   0.10969 276646.080000
   1519   1520     1   0.10969 276646.080000
   1519   1521     1   0.10969 276646.080000
   1522   1523     1   0.10969 276646.080000
   1522   1524     1   0.10969 276646.080000
   1525   1526     1   0.10969 276646.080000
   1525   1527     1   0.10969 276646.080000
   1530   1559     1   0.10304 312293.760000
   1531   1532     1   0.10910 283424.160000
   1531   1533     1   0.10910 283424.160000
   1534   1535     1   0.10910 283424.160000
   1534   1536     1   0.10910 283424.160000
   1537   1538     1   0.10910 283424.160000
   1537   1539     1   0.10910 283424.160000
   1540   1541     1   0.10969 276646.080000
   1540   1542     1   0.10969 276646.080000
   1543   1544     1   0.10969 276646.080000
   1543   1545     1   0.10969 276646.080000
   1546   1547     1   0.10969 276646.080000
   1546   1548     1   0.10969 276646.080000
   1549   1550     1   0.10969 276646.080000
   1549   1551     1   0.10969 276646.080000
   1552   1553     1   0.10969 276646.080000
   1552   1554     1   0.10969 276646.080000
   1555   1556     1   0.10969 276646.080000
   1555   1557     1   0.10969 276646.080000
   1560   1589     1   0.10304 312293.760000
   1561   1562     1   0.10910 283424.160000
   1561   1563     1   0.10910 283424.160000
   1564   1565     1   0.10910 283424.160000
   1564   1566     1   0.10910 283424.160000
   1567   1568     1   0.10910 283424.160000
   1567   1569     1   0.10910 283424.160000
   1570   1571     1   0.10969 276646.080000
   1570   1572     1   0.10969 276646.080000
   1573   1574     1   0.10969 276646.080000
   1573   1575     1   0.10969 276646.080000
   1576   1577     1   0.10969 276646.080000
   1576   1578     1   0.10969 276646.080000
   1579   1580     1   0.10969 276646.080000
   1579   1581     1   0.10969 276646.080000
   1582   1583     1   0.10969 276646.080000
   1582   1584     1   0.10969 276646.080000
   1585   1586     1   0.10969 276646.080000
   1585   1587     1   0.10969 276646.080000
   1590   1619     1   0.10304 312293.760000
   1591   1592     1   0.10910 283424.160000
   1591   1593     1   0.10910 283424.160000
   1594   1595     1   0.10910 283424.160000
   1594   1596     1   0.10910 283424.160000
   1597   1598     1   0.10910 283424.160000
   1597   1599     1   0.10910 283424.160000
   1600   1601     1   0.10969 276646.080000
   1600   1602     1   0.10969 276646.080000
   1603   1604     1   0.10969 276646.080000
   1603   1605     1   0.10969 276646.080000
   1606   1607     1   0.10969 276646.080000
   1606   1608     1   0.10969 276646.080000
   1609   1610     1   0.10969 276646.080000
   1609   1611     1   0.10969 276646.080000
   1612   1613     1   0.10969 276646.080000
   1612   1614     1   0.10969 276646.080000
   1615   1616     1   0.10969 276646.080000
   1615   1617     1   0.10969 276646.080000
   1620   1649     1   0.10304 312293.760000
   1621   1622     1   0.10910 283424.160000
   1621   1623     1   0.10910 283424.160000
   1624   1625     1   0.10910 283424.160000
   1624   1626     1   0.10910 283424.160000
   1627   1628     1   0.10910 283424.160000
   1627   1629     1   0.10910 283424.160000
   1630   1631     1   0.10969 276646.080000
   1630   1632     1   0.10969 276646.080000
   1633   1634     1   0.10969 276646.080000
   1633   1635     1   0.10969 276646.080000
   1636   1637     1   0.10969 276646.080000
   1636   1638     1   0.10969 276646.080000
   1639   1640     1   0.10969 276646.080000
   1639   1641     1   0.10969 276646.080000
   1642   1643     1   0.10969 276646.080000
   1642   1644     1   0.10969 276646.080000
   1645   1646     1   0.10969 276646.080000
   1645   1647     1   0.10969 276646.080000
   1650   1679     1   0.10304 312293.760000
   1651   1652     1   0.10910 283424.160000
   1651   1653     1   0.10910 283424.160000
   1654   1655     1   0.10910 283424.160000
   1654   1656     1   0.10910 283424.160000
   1657   1658     1   0.10910 283424.160000
   1657   1659     1   0.10910 283424.160000
   1660   1661     1   0.10969 276646.080000
   1660   1662     1   0.10969 276646.080000
   1663   1664     1   0.10969 276646.080000
   1663   1665     1   0.10969 276646.080000
   1666   1667     1   0.10969 276646.080000
   1666   1668     1   0.10969 276646.080000
   1669   1670     1   0.10969 276646.080000
   1669   1671     1   0.10969 276646.080000
   1672   1673     1   0.10969 276646.080000
   1672   1674     1   0.10969 276646.080000
   1675   1676     1   0.10969 276646.080000
   1675   1677     1   0.10969 276646.080000
   1680   1709     1   0.10304 312293.760000
   1681   1682     1   0.10910 283424.160000
   1681   1683     1   0.10910 283424.160000
   1684   1685     1   0.10910 283424.160000
   1684   1686     1   0.10910 283424.160000
   1687   1688     1   0.10910 283424.160000
   1687   1689     1   0.10910 283424.160000
   1690   1691     1   0.10969 276646.080000
   1690   1692     1   0.10969 276646.080000
   1693   1694     1   0.10969 276646.080000
   1693   1695     1   0.10969 276646.080000
   1696   1697     1   0.10969 276646.080000
   1696   1698     1   0.10969 276646.080000
   1699   1700     1   0.10969 276646.080000
   1699   1701     1   0.10969 276646.080000
   1702   1703     1   0.10969 276646.080000
   1702   1704     1   0.10969 276646.080000
   1705   1706     1   0.10969 276646.080000
   1705   1707     1   0.10969 276646.080000
   1710   1739     1   0.10304 312293.760000
   1711   1712     1   0.10910 283424.160000
   1711   1713     1   0.10910 283424.160000
   1714   1715     1   0.10910 283424.160000
   1714   1716     1   0.10910 283424.160000
   1717   1718     1   0.10910 283424.160000
   1717   1719     1   0.10910 283424.160000
   1720   1721     1   0.10969 276646.080000
   1720   1722     1   0.10969 276646.080000
   1723   1724     1   0.10969 276646.080000
   1723   1725     1   0.10969 276646.080000
   1726   1727     1   0.10969 276646.080000
   1726   1728     1   0.10969 276646.080000
   1729   1730     1   0.10969 276646.080000
   1729   1731     1   0.10969 276646.080000
   1732   1733     1   0.10969 276646.080000
   1732   1734     1   0.10969 276646.080000
   1735   1736     1   0.10969 276646.080000
   1735   1737     1   0.10969 276646.080000
   1740   1769     1   0.10304 312293.760000
   1741   1742     1   0.10910 283424.160000
   1741   1743     1   0.10910 283424.160000
   1744   1745     1   0.10910 283424.160000
   1744   1746     1   0.10910 283424.160000
   1747   1748     1   0.10910 283424.160000
   1747   1749     1   0.10910 283424.160000
   1750   1751     1   0.10969 276646.080000
   1750   1752     1   0.10969 276646.080000
   1753   1754     1   0.10969 276646.080000
   1753   1755     1   0.10969 276646.080000
   1756   1757     1   0.10969 276646.080000
   1756   1758     1   0.10969 276646.080000
   1759   1760     1   0.10969 276646.080000
   1759   1761     1   0.10969 276646.080000
   1762   1763     1   0.10969 276646.080000
   1762   1764     1   0.10969 276646.080000
   1765   1766     1   0.10969 276646.080000
   1765   1767     1   0.10969 276646.080000
   1770   1799     1   0.10304 312293.760000
   1771   1772     1   0.10910 283424.160000
   1771   1773     1   0.10910 283424.160000
   1774   1775     1   0.10910 283424.160000
   1774   1776     1   0.10910 283424.160000
   1777   1778     1   0.10910 283424.160000
   1777   1779     1   0.10910 283424.160000
   1780   1781     1   0.10969 276646.080000
   1780   1782     1   0.10969 276646.080000
   1783   1784     1   0.10969 276646.080000
   1783   1785     1   0.10969 276646.080000
   1786   1787     1   0.10969 276646.080000
   1786   1788     1   0.10969 276646.080000
   1789   1790     1   0.10969 276646.080000
   1789   1791     1   0.10969 276646.080000
   1792   1793     1   0.10969 276646.080000
   1792   1794     1   0.10969 276646.080000
   1795   1796     1   0.10969 276646.080000
   1795   1797     1   0.10969 276646.080000
   1800   1829     1   0.10304 312293.760000
   1801   1802     1   0.10910 283424.160000
   1801   1803     1   0.10910 283424.160000
   1804   1805     1   0.10910 283424.160000
   1804   1806     1   0.10910 283424.160000
   1807   1808     1   0.10910 283424.160000
   1807   1809     1   0.10910 283424.160000
   1810   1811     1   0.10969 276646.080000
   1810   1812     1   0.10969 276646.080000
   1813   1814     1   0.10969 276646.080000
   1813   1815     1   0.10969 276646.080000
   1816   1817     1   0.10969 276646.080000
   1816   1818     1   0.10969 276646.080000
   1819   1820     1   0.10969 276646.080000
   1819   1821     1   0.10969 276646.080000
   1822   1823     1   0.10969 276646.080000
   1822   1824     1   0.10969 276646.080000
   1825   1826     1   0.10969 276646.080000
   1825   1827     1   0.10969 276646.080000
   1830   1859     1   0.10304 312293.760000
   1831   1832     1   0.10910 283424.160000
   1831   1833     1   0.10910 283424.160000
   1834   1835     1   0.10910 283424.160000
   1834   1836     1   0.10910 283424.160000
   1837   1838     1   0.10910 283424.160000
   1837   1839     1   0.10910 283424.160000
   1840   1841     1   0.10969 276646.080000
   1840   1842     1   0.10969 276646.080000
   1843   1844     1   0.10969 276646.080000
   1843   1845     1   0.10969 276646.080000
   1846   1847     1   0.10969 276646.080000
   1846   1848     1   0.10969 276646.080000
   1849   1850     1   0.10969 276646.080000
   1849   1851     1   0.10969 276646.080000
   1852   1853     1   0.10969 276646.080000
   1852   1854     1   0.10969 276646.080000
   1855   1856     1   0.10969 276646.080000
   1855   1857     1   0.10969 276646.080000
   1860   1889     1   0.10304 312293.760000
   1861   1862     1   0.10910 283424.160000
   1861   1863     1   0.10910 283424.160000
   1864   1865     1   0.10910 283424.160000
   1864   1866     1   0.10910 283424.160000
   1867   1868     1   0.10910 283424.160000
   1867   1869     1   0.10910 283424.160000
   1870   1871     1   0.10969 276646.080000
   1870   1872     1   0.10969 276646.080000
   1873   1874     1   0.10969 276646.080000
   1873   1875     1   0.10969 276646.080000
   1876   1877     1   0.10969 276646.080000
   1876   1878     1   0.10969 276646.080000
   1879   1880     1   0.10969 276646.080000
   1879   1881     1   0.10969 276646.080000
   1882   1883     1   0.10969 276646.080000
   1882   1884     1   0.10969 276646.080000
   1885   1886     1   0.10969 276646.080000
   1885   1887     1   0.10969 276646.080000
   1890   1919     1   0.10304 312293.760000
   1891   1892     1   0.10910 283424.160000
   1891   1893     1   0.10910 283424.160000
   1894   1895     1   0.10910 283424.160000
   1894   1896     1   0.10910 283424.160000
   1897   1898     1   0.10910 283424.160000
   1897   1899     1   0.10910 283424.160000
   1900   1901     1   0.10969 276646.080000
   1900   1902     1   0.10969 276646.080000
   1903   1904     1   0.10969 276646.080000
   1903   1905     1   0.10969 276646.080000
   1906   1907     1   0.10969 276646.080000
   1906   1908     1   0.10969 276646.080000
   1909   1910     1   0.10969 276646.080000
   1909   1911     1   0.10969 276646.080000
   1912   1913     1   0.10969 276646.080000
   1912   1914     1   0.10969 276646.080000
   1915   1916     1   0.10969 276646.080000
   1915   1917     1   0.10969 276646.080000
   1920   1949     1   0.10304 312293.760000
   1921   1922     1   0.10910 283424.160000
   1921   1923     1   0.10910 283424.160000
   1924   1925     1   0.10910 283424.160000
   1924   1926     1   0.10910 283424.160000
   1927   1928     1   0.10910 283424.160000
   1927   1929     1   0.10910 283424.160000
   1930   1931     1   0.10969 276646.080000
   1930   1932     1   0.10969 276646.080000
   1933   1934     1   0.10969 276646.080000
   1933   1935     1   0.10969 276646.080000
   1936   1937     1   0.10969 276646.080000
   1936   1938     1   0.10969 276646.080000
   1939   1940     1   0.10969 276646.080000
   1939   1941     1   0.10969 276646.080000
   1942   1943     1   0.10969 276646.080000
   1942   1944     1   0.10969 276646.080000
   1945   1946     1   0.10969 276646.080000
   1945   1947     1   0.10969 276646.080000
   1950   1979     1   0.10304 312293.760000
   1951   1952     1   0.10910 283424.160000
   1951   1953     1   0.10910 283424.160000
   1954   1955     1   0.10910 283424.160000
   1954   1956     1   0.10910 283424.160000
   1957   1958     1   0.10910 283424.160000
   1957   1959     1   0.10910 283424.160000
   1960   1961     1   0.10969 276646.080000
   1960   1962     1   0.10969 276646.080000
   1963   1964     1   0.10969 276646.080000
   1963   1965     1   0.10969 276646.080000
   1966   1967     1   0.10969 276646.080000
   1966   1968     1   0.10969 276646.080000
   1969   1970     1   0.10969 276646.080000
   1969   1971     1   0.10969 276646.080000
   1972   1973     1   0.10969 276646.080000
   1972   1974     1   0.10969 276646.080000
   1975   1976     1   0.10969 276646.080000
   1975   1977     1   0.10969 276646.080000
   1980   2009     1   0.10304 312293.760000
   1981   1982     1   0.10910 283424.160000
   1981   1983     1   0.10910 283424.160000
   1984   1985     1   0.10910 283424.160000
   1984   1986     1   0.10910 283424.160000
   1987   1988     1   0.10910 283424.160000
   1987   1989     1   0.10910 283424.160000
   1990   1991     1   0.10969 276646.080000
   1990   1992     1   0.10969 276646.080000
   1993   1994     1   0.10969 276646.080000
   1993   1995     1   0.10969 276646.080000
   1996   1997     1   0.10969 276646.080000
   1996   1998     1   0.10969 276646.080000
   1999   2000     1   0.10969 276646.080000
   1999   2001     1   0.10969 276646.080000
   2002   2003     1   0.10969 276646.080000
   2002   2004     1   0.10969 276646.080000
   2005   2006     1   0.10969 276646.080000
   2005   2007     1   0.10969 276646.080000
   2010   2039     1   0.10304 312293.760000
   2011   2012     1   0.10910 283424.160000
   2011   2013     1   0.10910 283424.160000
   2014   2015     1   0.10910 283424.160000
   2014   2016     1   0.10910 283424.160000
   2017   2018     1   0.10910 283424.160000
   2017   2019     1   0.10910 283424.160000
   2020   2021     1   0.10969 276646.080000
   2020   2022     1   0.10969 276646.080000
   2023   2024     1   0.10969 276646.080000
   2023   2025     1   0.10969 276646.080000
   2026   2027     1   0.10969 276646.080000
   2026   2028     1   0.10969 276646.080000
   2029   2030     1   0.10969 276646.080000
   2029   2031     1   0.10969 276646.080000
   2032   2033     1   0.10969 276646.080000
   2032   2034     1   0.10969 276646.080000
   2035   2036     1   0.10969 276646.080000
   2035   2037     1   0.10969 276646.080000
   2040   2069     1   0.10304 312293.760000
   2041   2042     1   0.10910 283424.160000
   2041   2043     1   0.10910 283424.160000
   2044   2045     1   0.10910 283424.160000
   2044   2046     1   0.10910 283424.160000
   2047   2048     1   0.10910 283424.160000
   2047   2049     1   0.10910 283424.160000
   2050   2051     1   0.10969 276646.080000
   2050   2052     1   0.10969 276646.080000
   2053   2054     1   0.10969 276646.080000
   2053   2055     1   0.10969 276646.080000
   2056   2057     1   0.10969 276646.080000
   2056   2058     1   0.10969 276646.080000
   2059   2060     1   0.10969 276646.080000
   2059   2061     1   0.10969 276646.080000
   2062   2063     1   0.10969 276646.080000
   2062   2064     1   0.10969 276646.080000
   2065   2066     1   0.10969 276646.080000
   2065   2067     1   0.10969 276646.080000
   2070   2099     1   0.10304 312293.760000
   2071   2072     1   0.10910 283424.160000
   2071   2073     1   0.10910 283424.160000
   2074   2075     1   0.10910 283424.160000
   2074   2076     1   0.10910 283424.160000
   2077   2078     1   0.10910 283424.160000
   2077   2079     1   0.10910 283424.160000
   2080   2081     1   0.10969 276646.080000
   2080   2082     1   0.10969 276646.080000
   2083   2084     1   0.10969 276646.080000
   2083   2085     1   0.10969 276646.080000
   2086   2087     1   0.10969 276646.080000
   2086   2088     1   0.10969 276646.080000
   2089   2090     1   0.10969 276646.080000
   2089   2091     1   0.10969 276646.080000
   2092   2093     1   0.10969 276646.080000
   2092   2094     1   0.10969 276646.080000
   2095   2096     1   0.10969 276646.080000
   2095   2097     1   0.10969 276646.080000
   2100   2129     1   0.10304 312293.760000
   2101   2102     1   0.10910 283424.160000
   2101   2103     1   0.10910 283424.160000
   2104   2105     1   0.10910 283424.160000
   2104   2106     1   0.10910 283424.160000
   2107   2108     1   0.10910 283424.160000
   2107   2109     1   0.10910 283424.160000
   2110   2111     1   0.10969 276646.080000
   2110   2112     1   0.10969 276646.080000
   2113   2114     1   0.10969 276646.080000
   2113   2115     1   0.10969 276646.080000
   2116   2117     1   0.10969 276646.080000
   2116   2118     1   0.10969 276646.080000
   2119   2120     1   0.10969 276646.080000
   2119   2121     1   0.10969 276646.080000
   2122   2123     1   0.10969 276646.080000
   2122   2124     1   0.10969 276646.080000
   2125   2126     1   0.10969 276646.080000
   2125   2127     1   0.10969 276646.080000
   2130   2159     1   0.10304 312293.760000
   2131   2132     1   0.10910 283424.160000
   2131   2133     1   0.10910 283424.160000
   2134   2135     1   0.10910 283424.160000
   2134   2136     1   0.10910 283424.160000
   2137   2138     1   0.10910 283424.160000
   2137   2139     1   0.10910 283424.160000
   2140   2141     1   0.10969 276646.080000
   2140   2142     1   0.10969 276646.080000
   2143   2144     1   0.10969 276646.080000
   2143   2145     1   0.10969 276646.080000
   2146   2147     1   0.10969 276646.080000
   2146   2148     1   0.10969 276646.080000
   2149   2150     1   0.10969 276646.080000
   2149   2151     1   0.10969 276646.080000
   2152   2153     1   0.10969 276646.080000
   2152   2154     1   0.10969 276646.080000
   2155   2156     1   0.10969 276646.080000
   2155   2157     1   0.10969 276646.080000
   2160   2189     1   0.10304 312293.760000
   2161   2162     1   0.10910 283424.160000
   2161   2163     1   0.10910 283424.160000
   2164   2165     1   0.10910 283424.160000
   2164   2166     1   0.10910 283424.160000
   2167   2168     1   0.10910 283424.160000
   2167   2169     1   0.10910 283424.160000
   2170   2171     1   0.10969 276646.080000
   2170   2172     1   0.10969 276646.080000
   2173   2174     1   0.10969 276646.080000
   2173   2175     1   0.10969 276646.080000
   2176   2177     1   0.10969 276646.080000
   2176   2178     1   0.10969 276646.080000
   2179   2180     1   0.10969 276646.080000
   2179   2181     1   0.10969 276646.080000
   2182   2183     1   0.10969 276646.080000
   2182   2184     1   0.10969 276646.080000
   2185   2186     1   0.10969 276646.080000
   2185   2187     1   0.10969 276646.080000
   2190   2219     1   0.10304 312293.760000
   2191   2192     1   0.10910 283424.160000
   2191   2193     1   0.10910 283424.160000
   2194   2195     1   0.10910 283424.160000
   2194   2196     1   0.10910 283424.160000
   2197   2198     1   0.10910 283424.160000
   2197   2199     1   0.10910 283424.160000
   2200   2201     1   0.10969 276646.080000
   2200   2202     1   0.10969 276646.080000
   2203   2204     1   0.10969 276646.080000
   2203   2205     1   0.10969 276646.080000
   2206   2207     1   0.10969 276646.080000
   2206   2208     1   0.10969 276646.080000
   2209   2210     1   0.10969 276646.080000
   2209   2211     1   0.10969 276646.080000
   2212   2213     1   0.10969 276646.080000
   2212   2214     1   0.10969 276646.080000
   2215   2216     1   0.10969 276646.080000
   2215   2217     1   0.10969 276646.080000
   2220   2249     1   0.10304 312293.760000
   2221   2222     1   0.10910 283424.160000
   2221   2223     1   0.10910 283424.160000
   2224   2225     1   0.10910 283424.160000
   2224   2226     1   0.10910 283424.160000
   2227   2228     1   0.10910 283424.160000
   2227   2229     1   0.10910 283424.160000
   2230   2231     1   0.10969 276646.080000
   2230   2232     1   0.10969 276646.080000
   2233   2234     1   0.10969 276646.080000
   2233   2235     1   0.10969 276646.080000
   2236   2237     1   0.10969 276646.080000
   2236   2238     1   0.10969 276646.080000
   2239   2240     1   0.10969 276646.080000
   2239   2241     1   0.10969 276646.080000
   2242   2243     1   0.10969 276646.080000
   2242   2244     1   0.10969 276646.080000
   2245   2246     1   0.10969 276646.080000
   2245   2247     1   0.10969 276646.080000
   2250   2279     1   0.10304 312293.760000
   2251   2252     1   0.10910 283424.160000
   2251   2253     1   0.10910 283424.160000
   2254   2255     1   0.10910 283424.160000
   2254   2256     1   0.10910 283424.160000
   2257   2258     1   0.10910 283424.160000
   2257   2259     1   0.10910 283424.160000
   2260   2261     1   0.10969 276646.080000
   2260   2262     1   0.10969 276646.080000
   2263   2264     1   0.10969 276646.080000
   2263   2265     1   0.10969 276646.080000
   2266   2267     1   0.10969 276646.080000
   2266   2268     1   0.10969 276646.080000
   2269   2270     1   0.10969 276646.080000
   2269   2271     1   0.10969 276646.080000
   2272   2273     1   0.10969 276646.080000
   2272   2274     1   0.10969 276646.080000
   2275   2276     1   0.10969 276646.080000
   2275   2277     1   0.10969 276646.080000
   2280   2309     1   0.10304 312293.760000
   2281   2282     1   0.10910 283424.160000
   2281   2283     1   0.10910 283424.160000
   2284   2285     1   0.10910 283424.160000
   2284   2286     1   0.10910 283424.160000
   2287   2288     1   0.10910 283424.160000
   2287   2289     1   0.10910 283424.160000
   2290   2291     1   0.10969 276646.080000
   2290   2292     1   0.10969 276646.080000
   2293   2294     1   0.10969 276646.080000
   2293   2295     1   0.10969 276646.080000
   2296   2297     1   0.10969 276646.080000
   2296   2298     1   0.10969 276646.080000
   2299   2300     1   0.10969 276646.080000
   2299   2301     1   0.10969 276646.080000
   2302   2303     1   0.10969 276646.080000
   2302   2304     1   0.10969 276646.080000
   2305   2306     1   0.10969 276646.080000
   2305   2307     1   0.10969 276646.080000
   2310   2339     1   0.10304 312293.760000
   2311   2312     1   0.10910 283424.160000
   2311   2313     1   0.10910 283424.160000
   2314   2315     1   0.10910 283424.160000
   2314   2316     1   0.10910 283424.160000
   2317   2318     1   0.10910 283424.160000
   2317   2319     1   0.10910 283424.160000
   2320   2321     1   0.10969 276646.080000
   2320   2322     1   0.10969 276646.080000
   2323   2324     1   0.10969 276646.080000
   2323   2325     1   0.10969 276646.080000
   2326   2327     1   0.10969 276646.080000
   2326   2328     1   0.10969 276646.080000
   2329   2330     1   0.10969 276646.080000
   2329   2331     1   0.10969 276646.080000
   2332   2333     1   0.10969 276646.080000
   2332   2334     1   0.10969 276646.080000
   2335   2336     1   0.10969 276646.080000
   2335   2337     1   0.10969 276646.080000
   2340   2369     1   0.10304 312293.760000
   2341   2342     1   0.10910 283424.160000
   2341   2343     1   0.10910 283424.160000
   2344   2345     1   0.10910 283424.160000
   2344   2346     1   0.10910 283424.160000
   2347   2348     1   0.10910 283424.160000
   2347   2349     1   0.10910 283424.160000
   2350   2351     1   0.10969 276646.080000
   2350   2352     1   0.10969 276646.080000
   2353   2354     1   0.10969 276646.080000
   2353   2355     1   0.10969 276646.080000
   2356   2357     1   0.10969 276646.080000
   2356   2358     1   0.10969 276646.080000
   2359   2360     1   0.10969 276646.080000
   2359   2361     1   0.10969 276646.080000
   2362   2363     1   0.10969 276646.080000
   2362   2364     1   0.10969 276646.080000
   2365   2366     1   0.10969 276646.080000
   2365   2367     1   0.10969 276646.080000
   2370   2399     1   0.10304 312293.760000
   2371   2372     1   0.10910 283424.160000
   2371   2373     1   0.10910 283424.160000
   2374   2375     1   0.10910 283424.160000
   2374   2376     1   0.10910 283424.160000
   2377   2378     1   0.10910 283424.160000
   2377   2379     1   0.10910 283424.160000
   2380   2381     1   0.10969 276646.080000
   2380   2382     1   0.10969 276646.080000
   2383   2384     1   0.10969 276646.080000
   2383   2385     1   0.10969 276646.080000
   2386   2387     1   0.10969 276646.080000
   2386   2388     1   0.10969 276646.080000
   2389   2390     1   0.10969 276646.080000
   2389   2391     1   0.10969 276646.080000
   2392   2393     1   0.10969 276646.080000
   2392   2394     1   0.10969 276646.080000
   2395   2396     1   0.10969 276646.080000
   2395   2397     1   0.10969 276646.080000
   2400   2429     1   0.10304 312293.760000
   2401   2402     1   0.10910 283424.160000
   2401   2403     1   0.10910 283424.160000
   2404   2405     1   0.10910 283424.160000
   2404   2406     1   0.10910 283424.160000
   2407   2408     1   0.10910 283424.160000
   2407   2409     1   0.10910 283424.160000
   2410   2411     1   0.10969 276646.080000
   2410   2412     1   0.10969 276646.080000
   2413   2414     1   0.10969 276646.080000
   2413   2415     1   0.10969 276646.080000
   2416   2417     1   0.10969 276646.080000
   2416   2418     1   0.10969 276646.080000
   2419   2420     1   0.10969 276646.080000
   2419   2421     1   0.10969 276646.080000
   2422   2423     1   0.10969 276646.080000
   2422   2424     1   0.10969 276646.080000
   2425   2426     1   0.10969 276646.080000
   2425   2427     1   0.10969 276646.080000
   2430   2459     1   0.10304 312293.760000
   2431   2432     1   0.10910 283424.160000
   2431   2433     1   0.10910 283424.160000
   2434   2435     1   0.10910 283424.160000
   2434   2436     1   0.10910 283424.160000
   2437   2438     1   0.10910 283424.160000
   2437   2439     1   0.10910 283424.160000
   2440   2441     1   0.10969 276646.080000
   2440   2442     1   0.10969 276646.080000
   2443   2444     1   0.10969 276646.080000
   2443   2445     1   0.10969 276646.080000
   2446   2447     1   0.10969 276646.080000
   2446   2448     1   0.10969 276646.080000
   2449   2450     1   0.10969 276646.080000
   2449   2451     1   0.10969 276646.080000
   2452   2453     1   0.10969 276646.080000
   2452   2454     1   0.10969 276646.080000
   2455   2456     1   0.10969 276646.080000
   2455   2457     1   0.10969 276646.080000
   2460   2489     1   0.10304 312293.760000
   2461   2462     1   0.10910 283424.160000
   2461   2463     1   0.10910 283424.160000
   2464   2465     1   0.10910 283424.160000
   2464   2466     1   0.10910 283424.160000
   2467   2468     1   0.10910 283424.160000
   2467   2469     1   0.10910 283424.160000
   2470   2471     1   0.10969 276646.080000
   2470   2472     1   0.10969 276646.080000
   2473   2474     1   0.10969 276646.080000
   2473   2475     1   0.10969 276646.080000
   2476   2477     1   0.10969 276646.080000
   2476   2478     1   0.10969 276646.080000
   2479   2480     1   0.10969 276646.080000
   2479   2481     1   0.10969 276646.080000
   2482   2483     1   0.10969 276646.080000
   2482   2484     1   0.10969 276646.080000
   2485   2486     1   0.10969 276646.080000
   2485   2487     1   0.10969 276646.080000
   2490   2519     1   0.10304 312293.760000
   2491   2492     1   0.10910 283424.160000
   2491   2493     1   0.10910 283424.160000
   2494   2495     1   0.10910 283424.160000
   2494   2496     1   0.10910 283424.160000
   2497   2498     1   0.10910 283424.160000
   2497   2499     1   0.10910 283424.160000
   2500   2501     1   0.10969 276646.080000
   2500   2502     1   0.10969 276646.080000
   2503   2504     1   0.10969 276646.080000
   2503   2505     1   0.10969 276646.080000
   2506   2507     1   0.10969 276646.080000
   2506   2508     1   0.10969 276646.080000
   2509   2510     1   0.10969 276646.080000
   2509   2511     1   0.10969 276646.080000
   2512   2513     1   0.10969 276646.080000
   2512   2514     1   0.10969 276646.080000
   2515   2516     1   0.10969 276646.080000
   2515   2517     1   0.10969 276646.080000
   2520   2549     1   0.10304 312293.760000
   2521   2522     1   0.10910 283424.160000
   2521   2523     1   0.10910 283424.160000
   2524   2525     1   0.10910 283424.160000
   2524   2526     1   0.10910 283424.160000
   2527   2528     1   0.10910 283424.160000
   2527   2529     1   0.10910 283424.160000
   2530   2531     1   0.10969 276646.080000
   2530   2532     1   0.10969 276646.080000
   2533   2534     1   0.10969 276646.080000
   2533   2535     1   0.10969 276646.080000
   2536   2537     1   0.10969 276646.080000
   2536   2538     1   0.10969 276646.080000
   2539   2540     1   0.10969 276646.080000
   2539   2541     1   0.10969 276646.080000
   2542   2543     1   0.10969 276646.080000
   2542   2544     1   0.10969 276646.080000
   2545   2546     1   0.10969 276646.080000
   2545   2547     1   0.10969 276646.080000
   2550   2579     1   0.10304 312293.760000
   2551   2552     1   0.10910 283424.160000
   2551   2553     1   0.10910 283424.160000
   2554   2555     1   0.10910 283424.160000
   2554   2556     1   0.10910 283424.160000
   2557   2558     1   0.10910 283424.160000
   2557   2559     1   0.10910 283424.160000
   2560   2561     1   0.10969 276646.080000
   2560   2562     1   0.10969 276646.080000
   2563   2564     1   0.10969 276646.080000
   2563   2565     1   0.10969 276646.080000
   2566   2567     1   0.10969 276646.080000
   2566   2568     1   0.10969 276646.080000
   2569   2570     1   0.10969 276646.080000
   2569   2571     1   0.10969 276646.080000
   2572   2573     1   0.10969 276646.080000
   2572   2574     1   0.10969 276646.080000
   2575   2576     1   0.10969 276646.080000
   2575   2577     1   0.10969 276646.080000
   2580   2609     1   0.10304 312293.760000
   2581   2582     1   0.10910 283424.160000
   2581   2583     1   0.10910 283424.160000
   2584   2585     1   0.10910 283424.160000
   2584   2586     1   0.10910 283424.160000
   2587   2588     1   0.10910 283424.160000
   2587   2589     1   0.10910 283424.160000
   2590   2591     1   0.10969 276646.080000
   2590   2592     1   0.10969 276646.080000
   2593   2594     1   0.10969 276646.080000
   2593   2595     1   0.10969 276646.080000
   2596   2597     1   0.10969 276646.080000
   2596   2598     1   0.10969 276646.080000
   2599   2600     1   0.10969 276646.080000
   2599   2601     1   0.10969 276646.080000
   2602   2603     1   0.10969 276646.080000
   2602   2604     1   0.10969 276646.080000
   2605   2606     1   0.10969 276646.080000
   2605   2607     1   0.10969 276646.080000
   2610   2639     1   0.10304 312293.760000
   2611   2612     1   0.10910 283424.160000
   2611   2613     1   0.10910 283424.160000
   2614   2615     1   0.10910 283424.160000
   2614   2616     1   0.10910 283424.160000
   2617   2618     1   0.10910 283424.160000
   2617   2619     1   0.10910 283424.160000
   2620   2621     1   0.10969 276646.080000
   2620   2622     1   0.10969 276646.080000
   2623   2624     1   0.10969 276646.080000
   2623   2625     1   0.10969 276646.080000
   2626   2627     1   0.10969 276646.080000
   2626   2628     1   0.10969 276646.080000
   2629   2630     1   0.10969 276646.080000
   2629   2631     1   0.10969 276646.080000
   2632   2633     1   0.10969 276646.080000
   2632   2634     1   0.10969 276646.080000
   2635   2636     1   0.10969 276646.080000
   2635   2637     1   0.10969 276646.080000
   2640   2669     1   0.10304 312293.760000
   2641   2642     1   0.10910 283424.160000
   2641   2643     1   0.10910 283424.160000
   2644   2645     1   0.10910 283424.160000
   2644   2646     1   0.10910 283424.160000
   2647   2648     1   0.10910 283424.160000
   2647   2649     1   0.10910 283424.160000
   2650   2651     1   0.10969 276646.080000
   2650   2652     1   0.10969 276646.080000
   2653   2654     1   0.10969 276646.080000
   2653   2655     1   0.10969 276646.080000
   2656   2657     1   0.10969 276646.080000
   2656   2658     1   0.10969 276646.080000
   2659   2660     1   0.10969 276646.080000
   2659   2661     1   0.10969 276646.080000
   2662   2663     1   0.10969 276646.080000
   2662   2664     1   0.10969 276646.080000
   2665   2666     1   0.10969 276646.080000
   2665   2667     1   0.10969 276646.080000
   2670   2699     1   0.10304 312293.760000
   2671   2672     1   0.10910 283424.160000
   2671   2673     1   0.10910 283424.160000
   2674   2675     1   0.10910 283424.160000
   2674   2676     1   0.10910 283424.160000
   2677   2678     1   0.10910 283424.160000
   2677   2679     1   0.10910 283424.160000
   2680   2681     1   0.10969 276646.080000
   2680   2682     1   0.10969 276646.080000
   2683   2684     1   0.10969 276646.080000
   2683   2685     1   0.10969 276646.080000
   2686   2687     1   0.10969 276646.080000
   2686   2688     1   0.10969 276646.080000
   2689   2690     1   0.10969 276646.080000
   2689   2691     1   0.10969 276646.080000
   2692   2693     1   0.10969 276646.080000
   2692   2694     1   0.10969 276646.080000
   2695   2696     1   0.10969 276646.080000
   2695   2697     1   0.10969 276646.080000
   2700   2729     1   0.10304 312293.760000
   2701   2702     1   0.10910 283424.160000
   2701   2703     1   0.10910 283424.160000
   2704   2705     1   0.10910 283424.160000
   2704   2706     1   0.10910 283424.160000
   2707   2708     1   0.10910 283424.160000
   2707   2709     1   0.10910 283424.160000
   2710   2711     1   0.10969 276646.080000
   2710   2712     1   0.10969 276646.080000
   2713   2714     1   0.10969 276646.080000
   2713   2715     1   0.10969 276646.080000
   2716   2717     1   0.10969 276646.080000
   2716   2718     1   0.10969 276646.080000
   2719   2720     1   0.10969 276646.080000
   2719   2721     1   0.10969 276646.080000
   2722   2723     1   0.10969 276646.080000
   2722   2724     1   0.10969 276646.080000
   2725   2726     1   0.10969 276646.080000
   2725   2727     1   0.10969 276646.080000
   2730   2759     1   0.10304 312293.760000
   2731   2732     1   0.10910 283424.160000
   2731   2733     1   0.10910 283424.160000
   2734   2735     1   0.10910 283424.160000
   2734   2736     1   0.10910 283424.160000
   2737   2738     1   0.10910 283424.160000
   2737   2739     1   0.10910 283424.160000
   2740   2741     1   0.10969 276646.080000
   2740   2742     1   0.10969 276646.080000
   2743   2744     1   0.10969 276646.080000
   2743   2745     1   0.10969 276646.080000
   2746   2747     1   0.10969 276646.080000
   2746   2748     1   0.10969 276646.080000
   2749   2750     1   0.10969 276646.080000
   2749   2751     1   0.10969 276646.080000
   2752   2753     1   0.10969 276646.080000
   2752   2754     1   0.10969 276646.080000
   2755   2756     1   0.10969 276646.080000
   2755   2757     1   0.10969 276646.080000
   2760   2789     1   0.10304 312293.760000
   2761   2762     1   0.10910 283424.160000
   2761   2763     1   0.10910 283424.160000
   2764   2765     1   0.10910 283424.160000
   2764   2766     1   0.10910 283424.160000
   2767   2768     1   0.10910 283424.160000
   2767   2769     1   0.10910 283424.160000
   2770   2771     1   0.10969 276646.080000
   2770   2772     1   0.10969 276646.080000
   2773   2774     1   0.10969 276646.080000
   2773   2775     1   0.10969 276646.080000
   2776   2777     1   0.10969 276646.080000
   2776   2778     1   0.10969 276646.080000
   2779   2780     1   0.10969 276646.080000
   2779   2781     1   0.10969 276646.080000
   2782   2783     1   0.10969 276646.080000
   2782   2784     1   0.10969 276646.080000
   2785   2786     1   0.10969 276646.080000
   2785   2787     1   0.10969 276646.080000
   2790   2819     1   0.10304 312293.760000
   2791   2792     1   0.10910 283424.160000
   2791   2793     1   0.10910 283424.160000
   2794   2795     1   0.10910 283424.160000
   2794   2796     1   0.10910 283424.160000
   2797   2798     1   0.10910 283424.160000
   2797   2799     1   0.10910 283424.160000
   2800   2801     1   0.10969 276646.080000
   2800   2802     1   0.10969 276646.080000
   2803   2804     1   0.10969 276646.080000
   2803   2805     1   0.10969 276646.080000
   2806   2807     1   0.10969 276646.080000
   2806   2808     1   0.10969 276646.080000
   2809   2810     1   0.10969 276646.080000
   2809   2811     1   0.10969 276646.080000
   2812   2813     1   0.10969 276646.080000
   2812   2814     1   0.10969 276646.080000
   2815   2816     1   0.10969 276646.080000
   2815   2817     1   0.10969 276646.080000
   2820   2849     1   0.10304 312293.760000
   2821   2822     1   0.10910 283424.160000
   2821   2823     1   0.10910 283424.160000
   2824   2825     1   0.10910 283424.160000
   2824   2826     1   0.10910 283424.160000
   2827   2828     1   0.10910 283424.160000
   2827   2829     1   0.10910 283424.160000
   2830   2831     1   0.10969 276646.080000
   2830   2832     1   0.10969 276646.080000
   2833   2834     1   0.10969 276646.080000
   2833   2835     1   0.10969 276646.080000
   2836   2837     1   0.10969 276646.080000
   2836   2838     1   0.10969 276646.080000
   2839   2840     1   0.10969 276646.080000
   2839   2841     1   0.10969 276646.080000
   2842   2843     1   0.10969 276646.080000
   2842   2844     1   0.10969 276646.080000
   2845   2846     1   0.10969 276646.080000
   2845   2847     1   0.10969 276646.080000
   2850   2879     1   0.10304 312293.760000
   2851   2852     1   0.10910 283424.160000
   2851   2853     1   0.10910 283424.160000
   2854   2855     1   0.10910 283424.160000
   2854   2856     1   0.10910 283424.160000
   2857   2858     1   0.10910 283424.160000
   2857   2859     1   0.10910 283424.160000
   2860   2861     1   0.10969 276646.080000
   2860   2862     1   0.10969 276646.080000
   2863   2864     1   0.10969 276646.080000
   2863   2865     1   0.10969 276646.080000
   2866   2867     1   0.10969 276646.080000
   2866   2868     1   0.10969 276646.080000
   2869   2870     1   0.10969 276646.080000
   2869   2871     1   0.10969 276646.080000
   2872   2873     1   0.10969 276646.080000
   2872   2874     1   0.10969 276646.080000
   2875   2876     1   0.10969 276646.080000
   2875   2877     1   0.10969 276646.080000
   2880   2909     1   0.10304 312293.760000
   2881   2882     1   0.10910 283424.160000
   2881   2883     1   0.10910 283424.160000
   2884   2885     1   0.10910 283424.160000
   2884   2886     1   0.10910 283424.160000
   2887   2888     1   0.10910 283424.160000
   2887   2889     1   0.10910 283424.160000
   2890   2891     1   0.10969 276646.080000
   2890   2892     1   0.10969 276646.080000
   2893   2894     1   0.10969 276646.080000
   2893   2895     1   0.10969 276646.080000
   2896   2897     1   0.10969 276646.080000
   2896   2898     1   0.10969 276646.080000
   2899   2900     1   0.10969 276646.080000
   2899   2901     1   0.10969 276646.080000
   2902   2903     1   0.10969 276646.080000
   2902   2904     1   0.10969 276646.080000
   2905   2906     1   0.10969 276646.080000
   2905   2907     1   0.10969 276646.080000
   2910   2939     1   0.10304 312293.760000
   2911   2912     1   0.10910 283424.160000
   2911   2913     1   0.10910 283424.160000
   2914   2915     1   0.10910 283424.160000
   2914   2916     1   0.10910 283424.160000
   2917   2918     1   0.10910 283424.160000
   2917   2919     1   0.10910 283424.160000
   2920   2921     1   0.10969 276646.080000
   2920   2922     1   0.10969 276646.080000
   2923   2924     1   0.10969 276646.080000
   2923   2925     1   0.10969 276646.080000
   2926   2927     1   0.10969 276646.080000
   2926   2928     1   0.10969 276646.080000
   2929   2930     1   0.10969 276646.080000
   2929   2931     1   0.10969 276646.080000
   2932   2933     1   0.10969 276646.080000
   2932   2934     1   0.10969 276646.080000
   2935   2936     1   0.10969 276646.080000
   2935   2937     1   0.10969 276646.080000
   2940   2969     1   0.10304 312293.760000
   2941   2942     1   0.10910 283424.160000
   2941   2943     1   0.10910 283424.160000
   2944   2945     1   0.10910 283424.160000
   2944   2946     1   0.10910 283424.160000
   2947   2948     1   0.10910 283424.160000
   2947   2949     1   0.10910 283424.160000
   2950   2951     1   0.10969 276646.080000
   2950   2952     1   0.10969 276646.080000
   2953   2954     1   0.10969 276646.080000
   2953   2955     1   0.10969 276646.080000
   2956   2957     1   0.10969 276646.080000
   2956   2958     1   0.10969 276646.080000
   2959   2960     1   0.10969 276646.080000
   2959   2961     1   0.10969 276646.080000
   2962   2963     1   0.10969 276646.080000
   2962   2964     1   0.10969 276646.080000
   2965   2966     1   0.10969 276646.080000
   2965   2967     1   0.10969 276646.080000
   2970   2999     1   0.10304 312293.760000
   2971   2972     1   0.10910 283424.160000
   2971   2973     1   0.10910 283424.160000
   2974   2975     1   0.10910 283424.160000
   2974   2976     1   0.10910 283424.160000
   2977   2978     1   0.10910 283424.160000
   2977   2979     1   0.10910 283424.160000
   2980   2981     1   0.10969 276646.080000
   2980   2982     1   0.10969 276646.080000
   2983   2984     1   0.10969 276646.080000
   2983   2985     1   0.10969 276646.080000
   2986   2987     1   0.10969 276646.080000
   2986   2988     1   0.10969 276646.080000
   2989   2990     1   0.10969 276646.080000
   2989   2991     1   0.10969 276646.080000
   2992   2993     1   0.10969 276646.080000
   2992   2994     1   0.10969 276646.080000
   2995   2996     1   0.10969 276646.080000
   2995   2997     1   0.10969 276646.080000
   3000   3029     1   0.10304 312293.760000
   3001   3002     1   0.10910 283424.160000
   3001   3003     1   0.10910 283424.160000
   3004   3005     1   0.10910 283424.160000
   3004   3006     1   0.10910 283424.160000
   3007   3008     1   0.10910 283424.160000
   3007   3009     1   0.10910 283424.160000
   3010   3011     1   0.10969 276646.080000
   3010   3012     1   0.10969 276646.080000
   3013   3014     1   0.10969 276646.080000
   3013   3015     1   0.10969 276646.080000
   3016   3017     1   0.10969 276646.080000
   3016   3018     1   0.10969 276646.080000
   3019   3020     1   0.10969 276646.080000
   3019   3021     1   0.10969 276646.080000
   3022   3023     1   0.10969 276646.080000
   3022   3024     1   0.10969 276646.080000
   3025   3026     1   0.10969 276646.080000
   3025   3027     1   0.10969 276646.080000
   3030   3059     1   0.10304 312293.760000
   3031   3032     1   0.10910 283424.160000
   3031   3033     1   0.10910 283424.160000
   3034   3035     1   0.10910 283424.160000
   3034   3036     1   0.10910 283424.160000
   3037   3038     1   0.10910 283424.160000
   3037   3039     1   0.10910 283424.160000
   3040   3041     1   0.10969 276646.080000
   3040   3042     1   0.10969 276646.080000
   3043   3044     1   0.10969 276646.080000
   3043   3045     1   0.10969 276646.080000
   3046   3047     1   0.10969 276646.080000
   3046   3048     1   0.10969 276646.080000
   3049   3050     1   0.10969 276646.080000
   3049   3051     1   0.10969 276646.080000
   3052   3053     1   0.10969 276646.080000
   3052   3054     1   0.10969 276646.080000
   3055   3056     1   0.10969 276646.080000
   3055   3057     1   0.10969 276646.080000
   3060   3089     1   0.10304 312293.760000
   3061   3062     1   0.10910 283424.160000
   3061   3063     1   0.10910 283424.160000
   3064   3065     1   0.10910 283424.160000
   3064   3066     1   0.10910 283424.160000
   3067   3068     1   0.10910 283424.160000
   3067   3069     1   0.10910 283424.160000
   3070   3071     1   0.10969 276646.080000
   3070   3072     1   0.10969 276646.080000
   3073   3074     1   0.10969 276646.080000
   3073   3075     1   0.10969 276646.080000
   3076   3077     1   0.10969 276646.080000
   3076   3078     1   0.10969 276646.080000
   3079   3080     1   0.10969 276646.080000
   3079   3081     1   0.10969 276646.080000
   3082   3083     1   0.10969 276646.080000
   3082   3084     1   0.10969 276646.080000
   3085   3086     1   0.10969 276646.080000
   3085   3087     1   0.10969 276646.080000
   3090   3119     1   0.10304 312293.760000
   3091   3092     1   0.10910 283424.160000
   3091   3093     1   0.10910 283424.160000
   3094   3095     1   0.10910 283424.160000
   3094   3096     1   0.10910 283424.160000
   3097   3098     1   0.10910 283424.160000
   3097   3099     1   0.10910 283424.160000
   3100   3101     1   0.10969 276646.080000
   3100   3102     1   0.10969 276646.080000
   3103   3104     1   0.10969 276646.080000
   3103   3105     1   0.10969 276646.080000
   3106   3107     1   0.10969 276646.080000
   3106   3108     1   0.10969 276646.080000
   3109   3110     1   0.10969 276646.080000
   3109   3111     1   0.10969 276646.080000
   3112   3113     1   0.10969 276646.080000
   3112   3114     1   0.10969 276646.080000
   3115   3116     1   0.10969 276646.080000
   3115   3117     1   0.10969 276646.080000
   3120   3149     1   0.10304 312293.760000
   3121   3122     1   0.10910 283424.160000
   3121   3123     1   0.10910 283424.160000
   3124   3125     1   0.10910 283424.160000
   3124   3126     1   0.10910 283424.160000
   3127   3128     1   0.10910 283424.160000
   3127   3129     1   0.10910 283424.160000
   3130   3131     1   0.10969 276646.080000
   3130   3132     1   0.10969 276646.080000
   3133   3134     1   0.10969 276646.080000
   3133   3135     1   0.10969 276646.080000
   3136   3137     1   0.10969 276646.080000
   3136   3138     1   0.10969 276646.080000
   3139   3140     1   0.10969 276646.080000
   3139   3141     1   0.10969 276646.080000
   3142   3143     1   0.10969 276646.080000
   3142   3144     1   0.10969 276646.080000
   3145   3146     1   0.10969 276646.080000
   3145   3147     1   0.10969 276646.080000
   3150   3179     1   0.10304 312293.760000
   3151   3152     1   0.10910 283424.160000
   3151   3153     1   0.10910 283424.160000
   3154   3155     1   0.10910 283424.160000
   3154   3156     1   0.10910 283424.160000
   3157   3158     1   0.10910 283424.160000
   3157   3159     1   0.10910 283424.160000
   3160   3161     1   0.10969 276646.080000
   3160   3162     1   0.10969 276646.080000
   3163   3164     1   0.10969 276646.080000
   3163   3165     1   0.10969 276646.080000
   3166   3167     1   0.10969 276646.080000
   3166   3168     1   0.10969 276646.080000
   3169   3170     1   0.10969 276646.080000
   3169   3171     1   0.10969 276646.080000
   3172   3173     1   0.10969 276646.080000
   3172   3174     1   0.10969 276646.080000
   3175   3176     1   0.10969 276646.080000
   3175   3177     1   0.10969 276646.080000
   3180   3209     1   0.10304 312293.760000
   3181   3182     1   0.10910 283424.160000
   3181   3183     1   0.10910 283424.160000
   3184   3185     1   0.10910 283424.160000
   3184   3186     1   0.10910 283424.160000
   3187   3188     1   0.10910 283424.160000
   3187   3189     1   0.10910 283424.160000
   3190   3191     1   0.10969 276646.080000
   3190   3192     1   0.10969 276646.080000
   3193   3194     1   0.10969 276646.080000
   3193   3195     1   0.10969 276646.080000
   3196   3197     1   0.10969 276646.080000
   3196   3198     1   0.10969 276646.080000
   3199   3200     1   0.10969 276646.080000
   3199   3201     1   0.10969 276646.080000
   3202   3203     1   0.10969 276646.080000
   3202   3204     1   0.10969 276646.080000
   3205   3206     1   0.10969 276646.080000
   3205   3207     1   0.10969 276646.080000
   3210   3239     1   0.10304 312293.760000
   3211   3212     1   0.10910 283424.160000
   3211   3213     1   0.10910 283424.160000
   3214   3215     1   0.10910 283424.160000
   3214   3216     1   0.10910 283424.160000
   3217   3218     1   0.10910 283424.160000
   3217   3219     1   0.10910 283424.160000
   3220   3221     1   0.10969 276646.080000
   3220   3222     1   0.10969 276646.080000
   3223   3224     1   0.10969 276646.080000
   3223   3225     1   0.10969 276646.080000
   3226   3227     1   0.10969 276646.080000
   3226   3228     1   0.10969 276646.080000
   3229   3230     1   0.10969 276646.080000
   3229   3231     1   0.10969 276646.080000
   3232   3233     1   0.10969 276646.080000
   3232   3234     1   0.10969 276646.080000
   3235   3236     1   0.10969 276646.080000
   3235   3237     1   0.10969 276646.080000
   3240   3269     1   0.10304 312293.760000
   3241   3242     1   0.10910 283424.160000
   3241   3243     1   0.10910 283424.160000
   3244   3245     1   0.10910 283424.160000
   3244   3246     1   0.10910 283424.160000
   3247   3248     1   0.10910 283424.160000
   3247   3249     1   0.10910 283424.160000
   3250   3251     1   0.10969 276646.080000
   3250   3252     1   0.10969 276646.080000
   3253   3254     1   0.10969 276646.080000
   3253   3255     1   0.10969 276646.080000
   3256   3257     1   0.10969 276646.080000
   3256   3258     1   0.10969 276646.080000
   3259   3260     1   0.10969 276646.080000
   3259   3261     1   0.10969 276646.080000
   3262   3263     1   0.10969 276646.080000
   3262   3264     1   0.10969 276646.080000
   3265   3266     1   0.10969 276646.080000
   3265   3267     1   0.10969 276646.080000
   3270   3299     1   0.10304 312293.760000
   3271   3272     1   0.10910 283424.160000
   3271   3273     1   0.10910 283424.160000
   3274   3275     1   0.10910 283424.160000
   3274   3276     1   0.10910 283424.160000
   3277   3278     1   0.10910 283424.160000
   3277   3279     1   0.10910 283424.160000
   3280   3281     1   0.10969 276646.080000
   3280   3282     1   0.10969 276646.080000
   3283   3284     1   0.10969 276646.080000
   3283   3285     1   0.10969 276646.080000
   3286   3287     1   0.10969 276646.080000
   3286   3288     1   0.10969 276646.080000
   3289   3290     1   0.10969 276646.080000
   3289   3291     1   0.10969 276646.080000
   3292   3293     1   0.10969 276646.080000
   3292   3294     1   0.10969 276646.080000
   3295   3296     1   0.10969 276646.080000
   3295   3297     1   0.10969 276646.080000
   3300   3329     1   0.10304 312293.760000
   3301   3302     1   0.10910 283424.160000
   3301   3303     1   0.10910 283424.160000
   3304   3305     1   0.10910 283424.160000
   3304   3306     1   0.10910 283424.160000
   3307   3308     1   0.10910 283424.160000
   3307   3309     1   0.10910 283424.160000
   3310   3311     1   0.10969 276646.080000
   3310   3312     1   0.10969 276646.080000
   3313   3314     1   0.10969 276646.080000
   3313   3315     1   0.10969 276646.080000
   3316   3317     1   0.10969 276646.080000
   3316   3318     1   0.10969 276646.080000
   3319   3320     1   0.10969 276646.080000
   3319   3321     1   0.10969 276646.080000
   3322   3323     1   0.10969 276646.080000
   3322   3324     1   0.10969 276646.080000
   3325   3326     1   0.10969 276646.080000
   3325   3327     1   0.10969 276646.080000
   3330   3359     1   0.10304 312293.760000
   3331   3332     1   0.10910 283424.160000
   3331   3333     1   0.10910 283424.160000
   3334   3335     1   0.10910 283424.160000
   3334   3336     1   0.10910 283424.160000
   3337   3338     1   0.10910 283424.160000
   3337   3339     1   0.10910 283424.160000
   3340   3341     1   0.10969 276646.080000
   3340   3342     1   0.10969 276646.080000
   3343   3344     1   0.10969 276646.080000
   3343   3345     1   0.10969 276646.080000
   3346   3347     1   0.10969 276646.080000
   3346   3348     1   0.10969 276646.080000
   3349   3350     1   0.10969 276646.080000
   3349   3351     1   0.10969 276646.080000
   3352   3353     1   0.10969 276646.080000
   3352   3354     1   0.10969 276646.080000
   3355   3356     1   0.10969 276646.080000
   3355   3357     1   0.10969 276646.080000
   3360   3389     1   0.10304 312293.760000
   3361   3362     1   0.10910 283424.160000
   3361   3363     1   0.10910 283424.160000
   3364   3365     1   0.10910 283424.160000
   3364   3366     1   0.10910 283424.160000
   3367   3368     1   0.10910 283424.160000
   3367   3369     1   0.10910 283424.160000
   3370   3371     1   0.10969 276646.080000
   3370   3372     1   0.10969 276646.080000
   3373   3374     1   0.10969 276646.080000
   3373   3375     1   0.10969 276646.080000
   3376   3377     1   0.10969 276646.080000
   3376   3378     1   0.10969 276646.080000
   3379   3380     1   0.10969 276646.080000
   3379   3381     1   0.10969 276646.080000
   3382   3383     1   0.10969 276646.080000
   3382   3384     1   0.10969 276646.080000
   3385   3386     1   0.10969 276646.080000
   3385   3387     1   0.10969 276646.080000
   3390   3419     1   0.10304 312293.760000
   3391   3392     1   0.10910 283424.160000
   3391   3393     1   0.10910 283424.160000
   3394   3395     1   0.10910 283424.160000
   3394   3396     1   0.10910 283424.160000
   3397   3398     1   0.10910 283424.160000
   3397   3399     1   0.10910 283424.160000
   3400   3401     1   0.10969 276646.080000
   3400   3402     1   0.10969 276646.080000
   3403   3404     1   0.10969 276646.080000
   3403   3405     1   0.10969 276646.080000
   3406   3407     1   0.10969 276646.080000
   3406   3408     1   0.10969 276646.080000
   3409   3410     1   0.10969 276646.080000
   3409   3411     1   0.10969 276646.080000
   3412   3413     1   0.10969 276646.080000
   3412   3414     1   0.10969 276646.080000
   3415   3416     1   0.10969 276646.080000
   3415   3417     1   0.10969 276646.080000
   3420   3449     1   0.10304 312293.760000
   3421   3422     1   0.10910 283424.160000
   3421   3423     1   0.10910 283424.160000
   3424   3425     1   0.10910 283424.160000
   3424   3426     1   0.10910 283424.160000
   3427   3428     1   0.10910 283424.160000
   3427   3429     1   0.10910 283424.160000
   3430   3431     1   0.10969 276646.080000
   3430   3432     1   0.10969 276646.080000
   3433   3434     1   0.10969 276646.080000
   3433   3435     1   0.10969 276646.080000
   3436   3437     1   0.10969 276646.080000
   3436   3438     1   0.10969 276646.080000
   3439   3440     1   0.10969 276646.080000
   3439   3441     1   0.10969 276646.080000
   3442   3443     1   0.10969 276646.080000
   3442   3444     1   0.10969 276646.080000
   3445   3446     1   0.10969 276646.080000
   3445   3447     1   0.10969 276646.080000
   3450   3479     1   0.10304 312293.760000
   3451   3452     1   0.10910 283424.160000
   3451   3453     1   0.10910 283424.160000
   3454   3455     1   0.10910 283424.160000
   3454   3456     1   0.10910 283424.160000
   3457   3458     1   0.10910 283424.160000
   3457   3459     1   0.10910 283424.160000
   3460   3461     1   0.10969 276646.080000
   3460   3462     1   0.10969 276646.080000
   3463   3464     1   0.10969 276646.080000
   3463   3465     1   0.10969 276646.080000
   3466   3467     1   0.10969 276646.080000
   3466   3468     1   0.10969 276646.080000
   3469   3470     1   0.10969 276646.080000
   3469   3471     1   0.10969 276646.080000
   3472   3473     1   0.10969 276646.080000
   3472   3474     1   0.10969 276646.080000
   3475   3476     1   0.10969 276646.080000
   3475   3477     1   0.10969 276646.080000
   3480   3509     1   0.10304 312293.760000
   3481   3482     1   0.10910 283424.160000
   3481   3483     1   0.10910 283424.160000
   3484   3485     1   0.10910 283424.160000
   3484   3486     1   0.10910 283424.160000
   3487   3488     1   0.10910 283424.160000
   3487   3489     1   0.10910 283424.160000
   3490   3491     1   0.10969 276646.080000
   3490   3492     1   0.10969 276646.080000
   3493   3494     1   0.10969 276646.080000
   3493   3495     1   0.10969 276646.080000
   3496   3497     1   0.10969 276646.080000
   3496   3498     1   0.10969 276646.080000
   3499   3500     1   0.10969 276646.080000
   3499   3501     1   0.10969 276646.080000
   3502   3503     1   0.10969 276646.080000
   3502   3504     1   0.10969 276646.080000
   3505   3506     1   0.10969 276646.080000
   3505   3507     1   0.10969 276646.080000
   3510   3539     1   0.10304 312293.760000
   3511   3512     1   0.10910 283424.160000
   3511   3513     1   0.10910 283424.160000
   3514   3515     1   0.10910 283424.160000
   3514   3516     1   0.10910 283424.160000
   3517   3518     1   0.10910 283424.160000
   3517   3519     1   0.10910 283424.160000
   3520   3521     1   0.10969 276646.080000
   3520   3522     1   0.10969 276646.080000
   3523   3524     1   0.10969 276646.080000
   3523   3525     1   0.10969 276646.080000
   3526   3527     1   0.10969 276646.080000
   3526   3528     1   0.10969 276646.080000
   3529   3530     1   0.10969 276646.080000
   3529   3531     1   0.10969 276646.080000
   3532   3533     1   0.10969 276646.080000
   3532   3534     1   0.10969 276646.080000
   3535   3536     1   0.10969 276646.080000
   3535   3537     1   0.10969 276646.080000
   3540   3569     1   0.10304 312293.760000
   3541   3542     1   0.10910 283424.160000
   3541   3543     1   0.10910 283424.160000
   3544   3545     1   0.10910 283424.160000
   3544   3546     1   0.10910 283424.160000
   3547   3548     1   0.10910 283424.160000
   3547   3549     1   0.10910 283424.160000
   3550   3551     1   0.10969 276646.080000
   3550   3552     1   0.10969 276646.080000
   3553   3554     1   0.10969 276646.080000
   3553   3555     1   0.10969 276646.080000
   3556   3557     1   0.10969 276646.080000
   3556   3558     1   0.10969 276646.080000
   3559   3560     1   0.10969 276646.080000
   3559   3561     1   0.10969 276646.080000
   3562   3563     1   0.10969 276646.080000
   3562   3564     1   0.10969 276646.080000
   3565   3566     1   0.10969 276646.080000
   3565   3567     1   0.10969 276646.080000
   3570   3599     1   0.10304 312293.760000
   3571   3572     1   0.10910 283424.160000
   3571   3573     1   0.10910 283424.160000
   3574   3575     1   0.10910 283424.160000
   3574   3576     1   0.10910 283424.160000
   3577   3578     1   0.10910 283424.160000
   3577   3579     1   0.10910 283424.160000
   3580   3581     1   0.10969 276646.080000
   3580   3582     1   0.10969 276646.080000
   3583   3584     1   0.10969 276646.080000
   3583   3585     1   0.10969 276646.080000
   3586   3587     1   0.10969 276646.080000
   3586   3588     1   0.10969 276646.080000
   3589   3590     1   0.10969 276646.080000
   3589   3591     1   0.10969 276646.080000
   3592   3593     1   0.10969 276646.080000
   3592   3594     1   0.10969 276646.080000
   3595   3596     1   0.10969 276646.080000
   3595   3597     1   0.10969 276646.080000
   3600   3629     1   0.10304 312293.760000
   3601   3602     1   0.10910 283424.160000
   3601   3603     1   0.10910 283424.160000
   3604   3605     1   0.10910 283424.160000
   3604   3606     1   0.10910 283424.160000
   3607   3608     1   0.10910 283424.160000
   3607   3609     1   0.10910 283424.160000
   3610   3611     1   0.10969 276646.080000
   3610   3612     1   0.10969 276646.080000
   3613   3614     1   0.10969 276646.080000
   3613   3615     1   0.10969 276646.080000
   3616   3617     1   0.10969 276646.080000
   3616   3618     1   0.10969 276646.080000
   3619   3620     1   0.10969 276646.080000
   3619   3621     1   0.10969 276646.080000
   3622   3623     1   0.10969 276646.080000
   3622   3624     1   0.10969 276646.080000
   3625   3626     1   0.10969 276646.080000
   3625   3627     1   0.10969 276646.080000
   3630   3659     1   0.10304 312293.760000
   3631   3632     1   0.10910 283424.160000
   3631   3633     1   0.10910 283424.160000
   3634   3635     1   0.10910 283424.160000
   3634   3636     1   0.10910 283424.160000
   3637   3638     1   0.10910 283424.160000
   3637   3639     1   0.10910 283424.160000
   3640   3641     1   0.10969 276646.080000
   3640   3642     1   0.10969 276646.080000
   3643   3644     1   0.10969 276646.080000
   3643   3645     1   0.10969 276646.080000
   3646   3647     1   0.10969 276646.080000
   3646   3648     1   0.10969 276646.080000
   3649   3650     1   0.10969 276646.080000
   3649   3651     1   0.10969 276646.080000
   3652   3653     1   0.10969 276646.080000
   3652   3654     1   0.10969 276646.080000
   3655   3656     1   0.10969 276646.080000
   3655   3657     1   0.10969 276646.080000
   3660   3689     1   0.10304 312293.760000
   3661   3662     1   0.10910 283424.160000
   3661   3663     1   0.10910 283424.160000
   3664   3665     1   0.10910 283424.160000
   3664   3666     1   0.10910 283424.160000
   3667   3668     1   0.10910 283424.160000
   3667   3669     1   0.10910 283424.160000
   3670   3671     1   0.10969 276646.080000
   3670   3672     1   0.10969 276646.080000
   3673   3674     1   0.10969 276646.080000
   3673   3675     1   0.10969 276646.080000
   3676   3677     1   0.10969 276646.080000
   3676   3678     1   0.10969 276646.080000
   3679   3680     1   0.10969 276646.080000
   3679   3681     1   0.10969 276646.080000
   3682   3683     1   0.10969 276646.080000
   3682   3684     1   0.10969 276646.080000
   3685   3686     1   0.10969 276646.080000
   3685   3687     1   0.10969 276646.080000
   3690   3719     1   0.10304 312293.760000
   3691   3692     1   0.10910 283424.160000
   3691   3693     1   0.10910 283424.160000
   3694   3695     1   0.10910 283424.160000
   3694   3696     1   0.10910 283424.160000
   3697   3698     1   0.10910 283424.160000
   3697   3699     1   0.10910 283424.160000
   3700   3701     1   0.10969 276646.080000
   3700   3702     1   0.10969 276646.080000
   3703   3704     1   0.10969 276646.080000
   3703   3705     1   0.10969 276646.080000
   3706   3707     1   0.10969 276646.080000
   3706   3708     1   0.10969 276646.080000
   3709   3710     1   0.10969 276646.080000
   3709   3711     1   0.10969 276646.080000
   3712   3713     1   0.10969 276646.080000
   3712   3714     1   0.10969 276646.080000
   3715   3716     1   0.10969 276646.080000
   3715   3717     1   0.10969 276646.080000
   3720   3749     1   0.10304 312293.760000
   3721   3722     1   0.10910 283424.160000
   3721   3723     1   0.10910 283424.160000
   3724   3725     1   0.10910 283424.160000
   3724   3726     1   0.10910 283424.160000
   3727   3728     1   0.10910 283424.160000
   3727   3729     1   0.10910 283424.160000
   3730   3731     1   0.10969 276646.080000
   3730   3732     1   0.10969 276646.080000
   3733   3734     1   0.10969 276646.080000
   3733   3735     1   0.10969 276646.080000
   3736   3737     1   0.10969 276646.080000
   3736   3738     1   0.10969 276646.080000
   3739   3740     1   0.10969 276646.080000
   3739   3741     1   0.10969 276646.080000
   3742   3743     1   0.10969 276646.080000
   3742   3744     1   0.10969 276646.080000
   3745   3746     1   0.10969 276646.080000
   3745   3747     1   0.10969 276646.080000
   3750   3779     1   0.10304 312293.760000
   3751   3752     1   0.10910 283424.160000
   3751   3753     1   0.10910 283424.160000
   3754   3755     1   0.10910 283424.160000
   3754   3756     1   0.10910 283424.160000
   3757   3758     1   0.10910 283424.160000
   3757   3759     1   0.10910 283424.160000
   3760   3761     1   0.10969 276646.080000
   3760   3762     1   0.10969 276646.080000
   3763   3764     1   0.10969 276646.080000
   3763   3765     1   0.10969 276646.080000
   3766   3767     1   0.10969 276646.080000
   3766   3768     1   0.10969 276646.080000
   3769   3770     1   0.10969 276646.080000
   3769   3771     1   0.10969 276646.080000
   3772   3773     1   0.10969 276646.080000
   3772   3774     1   0.10969 276646.080000
   3775   3776     1   0.10969 276646.080000
   3775   3777     1   0.10969 276646.080000
   3780   3809     1   0.10304 312293.760000
   3781   3782     1   0.10910 283424.160000
   3781   3783     1   0.10910 283424.160000
   3784   3785     1   0.10910 283424.160000
   3784   3786     1   0.10910 283424.160000
   3787   3788     1   0.10910 283424.160000
   3787   3789     1   0.10910 283424.160000
   3790   3791     1   0.10969 276646.080000
   3790   3792     1   0.10969 276646.080000
   3793   3794     1   0.10969 276646.080000
   3793   3795     1   0.10969 276646.080000
   3796   3797     1   0.10969 276646.080000
   3796   3798     1   0.10969 276646.080000
   3799   3800     1   0.10969 276646.080000
   3799   3801     1   0.10969 276646.080000
   3802   3803     1   0.10969 276646.080000
   3802   3804     1   0.10969 276646.080000
   3805   3806     1   0.10969 276646.080000
   3805   3807     1   0.10969 276646.080000
   3810   3839     1   0.10304 312293.760000
   3811   3812     1   0.10910 283424.160000
   3811   3813     1   0.10910 283424.160000
   3814   3815     1   0.10910 283424.160000
   3814   3816     1   0.10910 283424.160000
   3817   3818     1   0.10910 283424.160000
   3817   3819     1   0.10910 283424.160000
   3820   3821     1   0.10969 276646.080000
   3820   3822     1   0.10969 276646.080000
   3823   3824     1   0.10969 276646.080000
   3823   3825     1   0.10969 276646.080000
   3826   3827     1   0.10969 276646.080000
   3826   3828     1   0.10969 276646.080000
   3829   3830     1   0.10969 276646.080000
   3829   3831     1   0.10969 276646.080000
   3832   3833     1   0.10969 276646.080000
   3832   3834     1   0.10969 276646.080000
   3835   3836     1   0.10969 276646.080000
   3835   3837     1   0.10969 276646.080000
   3840   3869     1   0.10304 312293.760000
   3841   3842     1   0.10910 283424.160000
   3841   3843     1   0.10910 283424.160000
   3844   3845     1   0.10910 283424.160000
   3844   3846     1   0.10910 283424.160000
   3847   3848     1   0.10910 283424.160000
   3847   3849     1   0.10910 283424.160000
   3850   3851     1   0.10969 276646.080000
   3850   3852     1   0.10969 276646.080000
   3853   3854     1   0.10969 276646.080000
   3853   3855     1   0.10969 276646.080000
   3856   3857     1   0.10969 276646.080000
   3856   3858     1   0.10969 276646.080000
   3859   3860     1   0.10969 276646.080000
   3859   3861     1   0.10969 276646.080000
   3862   3863     1   0.10969 276646.080000
   3862   3864     1   0.10969 276646.080000
   3865   3866     1   0.10969 276646.080000
   3865   3867     1   0.10969 276646.080000
   3870   3899     1   0.10304 312293.760000
   3871   3872     1   0.10910 283424.160000
   3871   3873     1   0.10910 283424.160000
   3874   3875     1   0.10910 283424.160000
   3874   3876     1   0.10910 283424.160000
   3877   3878     1   0.10910 283424.160000
   3877   3879     1   0.10910 283424.160000
   3880   3881     1   0.10969 276646.080000
   3880   3882     1   0.10969 276646.080000
   3883   3884     1   0.10969 276646.080000
   3883   3885     1   0.10969 276646.080000
   3886   3887     1   0.10969 276646.080000
   3886   3888     1   0.10969 276646.080000
   3889   3890     1   0.10969 276646.080000
   3889   3891     1   0.10969 276646.080000
   3892   3893     1   0.10969 276646.080000
   3892   3894     1   0.10969 276646.080000
   3895   3896     1   0.10969 276646.080000
   3895   3897     1   0.10969 276646.080000
   3900   3929     1   0.10304 312293.760000
   3901   3902     1   0.10910 283424.160000
   3901   3903     1   0.10910 283424.160000
   3904   3905     1   0.10910 283424.160000
   3904   3906     1   0.10910 283424.160000
   3907   3908     1   0.10910 283424.160000
   3907   3909     1   0.10910 283424.160000
   3910   3911     1   0.10969 276646.080000
   3910   3912     1   0.10969 276646.080000
   3913   3914     1   0.10969 276646.080000
   3913   3915     1   0.10969 276646.080000
   3916   3917     1   0.10969 276646.080000
   3916   3918     1   0.10969 276646.080000
   3919   3920     1   0.10969 276646.080000
   3919   3921     1   0.10969 276646.080000
   3922   3923     1   0.10969 276646.080000
   3922   3924     1   0.10969 276646.080000
   3925   3926     1   0.10969 276646.080000
   3925   3927     1   0.10969 276646.080000
   3930   3959     1   0.10304 312293.760000
   3931   3932     1   0.10910 283424.160000
   3931   3933     1   0.10910 283424.160000
   3934   3935     1   0.10910 283424.160000
   3934   3936     1   0.10910 283424.160000
   3937   3938     1   0.10910 283424.160000
   3937   3939     1   0.10910 283424.160000
   3940   3941     1   0.10969 276646.080000
   3940   3942     1   0.10969 276646.080000
   3943   3944     1   0.10969 276646.080000
   3943   3945     1   0.10969 276646.080000
   3946   3947     1   0.10969 276646.080000
   3946   3948     1   0.10969 276646.080000
   3949   3950     1   0.10969 276646.080000
   3949   3951     1   0.10969 276646.080000
   3952   3953     1   0.10969 276646.080000
   3952   3954     1   0.10969 276646.080000
   3955   3956     1   0.10969 276646.080000
   3955   3957     1   0.10969 276646.080000
   3960   3989     1   0.10304 312293.760000
   3961   3962     1   0.10910 283424.160000
   3961   3963     1   0.10910 283424.160000
   3964   3965     1   0.10910 283424.160000
   3964   3966     1   0.10910 283424.160000
   3967   3968     1   0.10910 283424.160000
   3967   3969     1   0.10910 283424.160000
   3970   3971     1   0.10969 276646.080000
   3970   3972     1   0.10969 276646.080000
   3973   3974     1   0.10969 276646.080000
   3973   3975     1   0.10969 276646.080000
   3976   3977     1   0.10969 276646.080000
   3976   3978     1   0.10969 276646.080000
   3979   3980     1   0.10969 276646.080000
   3979   3981     1   0.10969 276646.080000
   3982   3983     1   0.10969 276646.080000
   3982   3984     1   0.10969 276646.080000
   3985   3986     1   0.10969 276646.080000
   3985   3987     1   0.10969 276646.080000
   3990   4019     1   0.10304 312293.760000
   3991   3992     1   0.10910 283424.160000
   3991   3993     1   0.10910 283424.160000
   3994   3995     1   0.10910 283424.160000
   3994   3996     1   0.10910 283424.160000
   3997   3998     1   0.10910 283424.160000
   3997   3999     1   0.10910 283424.160000
   4000   4001     1   0.10969 276646.080000
   4000   4002     1   0.10969 276646.080000
   4003   4004     1   0.10969 276646.080000
   4003   4005     1   0.10969 276646.080000
   4006   4007     1   0.10969 276646.080000
   4006   4008     1   0.10969 276646.080000
   4009   4010     1   0.10969 276646.080000
   4009   4011     1   0.10969 276646.080000
   4012   4013     1   0.10969 276646.080000
   4012   4014     1   0.10969 276646.080000
   4015   4016     1   0.10969 276646.080000
   4015   4017     1   0.10969 276646.080000
   4020   4049     1   0.10304 312293.760000
   4021   4022     1   0.10910 283424.160000
   4021   4023     1   0.10910 283424.160000
   4024   4025     1   0.10910 283424.160000
   4024   4026     1   0.10910 283424.160000
   4027   4028     1   0.10910 283424.160000
   4027   4029     1   0.10910 283424.160000
   4030   4031     1   0.10969 276646.080000
   4030   4032     1   0.10969 276646.080000
   4033   4034     1   0.10969 276646.080000
   4033   4035     1   0.10969 276646.080000
   4036   4037     1   0.10969 276646.080000
   4036   4038     1   0.10969 276646.080000
   4039   4040     1   0.10969 276646.080000
   4039   4041     1   0.10969 276646.080000
   4042   4043     1   0.10969 276646.080000
   4042   4044     1   0.10969 276646.080000
   4045   4046     1   0.10969 276646.080000
   4045   4047     1   0.10969 276646.080000
   4050   4079     1   0.10304 312293.760000
   4051   4052     1   0.10910 283424.160000
   4051   4053     1   0.10910 283424.160000
   4054   4055     1   0.10910 283424.160000
   4054   4056     1   0.10910 283424.160000
   4057   4058     1   0.10910 283424.160000
   4057   4059     1   0.10910 283424.160000
   4060   4061     1   0.10969 276646.080000
   4060   4062     1   0.10969 276646.080000
   4063   4064     1   0.10969 276646.080000
   4063   4065     1   0.10969 276646.080000
   4066   4067     1   0.10969 276646.080000
   4066   4068     1   0.10969 276646.080000
   4069   4070     1   0.10969 276646.080000
   4069   4071     1   0.10969 276646.080000
   4072   4073     1   0.10969 276646.080000
   4072   4074     1   0.10969 276646.080000
   4075   4076     1   0.10969 276646.080000
   4075   4077     1   0.10969 276646.080000
   4080   4109     1   0.10304 312293.760000
   4081   4082     1   0.10910 283424.160000
   4081   4083     1   0.10910 283424.160000
   4084   4085     1   0.10910 283424.160000
   4084   4086     1   0.10910 283424.160000
   4087   4088     1   0.10910 283424.160000
   4087   4089     1   0.10910 283424.160000
   4090   4091     1   0.10969 276646.080000
   4090   4092     1   0.10969 276646.080000
   4093   4094     1   0.10969 276646.080000
   4093   4095     1   0.10969 276646.080000
   4096   4097     1   0.10969 276646.080000
   4096   4098     1   0.10969 276646.080000
   4099   4100     1   0.10969 276646.080000
   4099   4101     1   0.10969 276646.080000
   4102   4103     1   0.10969 276646.080000
   4102   4104     1   0.10969 276646.080000
   4105   4106     1   0.10969 276646.080000
   4105   4107     1   0.10969 276646.080000
   4110   4139     1   0.10304 312293.760000
   4111   4112     1   0.10910 283424.160000
   4111   4113     1   0.10910 283424.160000
   4114   4115     1   0.10910 283424.160000
   4114   4116     1   0.10910 283424.160000
   4117   4118     1   0.10910 283424.160000
   4117   4119     1   0.10910 283424.160000
   4120   4121     1   0.10969 276646.080000
   4120   4122     1   0.10969 276646.080000
   4123   4124     1   0.10969 276646.080000
   4123   4125     1   0.10969 276646.080000
   4126   4127     1   0.10969 276646.080000
   4126   4128     1   0.10969 276646.080000
   4129   4130     1   0.10969 276646.080000
   4129   4131     1   0.10969 276646.080000
   4132   4133     1   0.10969 276646.080000
   4132   4134     1   0.10969 276646.080000
   4135   4136     1   0.10969 276646.080000
   4135   4137     1   0.10969 276646.080000
   4140   4169     1   0.10304 312293.760000
   4141   4142     1   0.10910 283424.160000
   4141   4143     1   0.10910 283424.160000
   4144   4145     1   0.10910 283424.160000
   4144   4146     1   0.10910 283424.160000
   4147   4148     1   0.10910 283424.160000
   4147   4149     1   0.10910 283424.160000
   4150   4151     1   0.10969 276646.080000
   4150   4152     1   0.10969 276646.080000
   4153   4154     1   0.10969 276646.080000
   4153   4155     1   0.10969 276646.080000
   4156   4157     1   0.10969 276646.080000
   4156   4158     1   0.10969 276646.080000
   4159   4160     1   0.10969 276646.080000
   4159   4161     1   0.10969 276646.080000
   4162   4163     1   0.10969 276646.080000
   4162   4164     1   0.10969 276646.080000
   4165   4166     1   0.10969 276646.080000
   4165   4167     1   0.10969 276646.080000
   4170   4199     1   0.10304 312293.760000
   4171   4172     1   0.10910 283424.160000
   4171   4173     1   0.10910 283424.160000
   4174   4175     1   0.10910 283424.160000
   4174   4176     1   0.10910 283424.160000
   4177   4178     1   0.10910 283424.160000
   4177   4179     1   0.10910 283424.160000
   4180   4181     1   0.10969 276646.080000
   4180   4182     1   0.10969 276646.080000
   4183   4184     1   0.10969 276646.080000
   4183   4185     1   0.10969 276646.080000
   4186   4187     1   0.10969 276646.080000
   4186   4188     1   0.10969 276646.080000
   4189   4190     1   0.10969 276646.080000
   4189   4191     1   0.10969 276646.080000
   4192   4193     1   0.10969 276646.080000
   4192   4194     1   0.10969 276646.080000
   4195   4196     1   0.10969 276646.080000
   4195   4197     1   0.10969 276646.080000
   4200   4229     1   0.10304 312293.760000
   4201   4202     1   0.10910 283424.160000
   4201   4203     1   0.10910 283424.160000
   4204   4205     1   0.10910 283424.160000
   4204   4206     1   0.10910 283424.160000
   4207   4208     1   0.10910 283424.160000
   4207   4209     1   0.10910 283424.160000
   4210   4211     1   0.10969 276646.080000
   4210   4212     1   0.10969 276646.080000
   4213   4214     1   0.10969 276646.080000
   4213   4215     1   0.10969 276646.080000
   4216   4217     1   0.10969 276646.080000
   4216   4218     1   0.10969 276646.080000
   4219   4220     1   0.10969 276646.080000
   4219   4221     1   0.10969 276646.080000
   4222   4223     1   0.10969 276646.080000
   4222   4224     1   0.10969 276646.080000
   4225   4226     1   0.10969 276646.080000
   4225   4227     1   0.10969 276646.080000
   4230   4259     1   0.10304 312293.760000
   4231   4232     1   0.10910 283424.160000
   4231   4233     1   0.10910 283424.160000
   4234   4235     1   0.10910 283424.160000
   4234   4236     1   0.10910 283424.160000
   4237   4238     1   0.10910 283424.160000
   4237   4239     1   0.10910 283424.160000
   4240   4241     1   0.10969 276646.080000
   4240   4242     1   0.10969 276646.080000
   4243   4244     1   0.10969 276646.080000
   4243   4245     1   0.10969 276646.080000
   4246   4247     1   0.10969 276646.080000
   4246   4248     1   0.10969 276646.080000
   4249   4250     1   0.10969 276646.080000
   4249   4251     1   0.10969 276646.080000
   4252   4253     1   0.10969 276646.080000
   4252   4254     1   0.10969 276646.080000
   4255   4256     1   0.10969 276646.080000
   4255   4257     1   0.10969 276646.080000
   4260   4289     1   0.10304 312293.760000
   4261   4262     1   0.10910 283424.160000
   4261   4263     1   0.10910 283424.160000
   4264   4265     1   0.10910 283424.160000
   4264   4266     1   0.10910 283424.160000
   4267   4268     1   0.10910 283424.160000
   4267   4269     1   0.10910 283424.160000
   4270   4271     1   0.10969 276646.080000
   4270   4272     1   0.10969 276646.080000
   4273   4274     1   0.10969 276646.080000
   4273   4275     1   0.10969 276646.080000
   4276   4277     1   0.10969 276646.080000
   4276   4278     1   0.10969 276646.080000
   4279   4280     1   0.10969 276646.080000
   4279   4281     1   0.10969 276646.080000
   4282   4283     1   0.10969 276646.080000
   4282   4284     1   0.10969 276646.080000
   4285   4286     1   0.10969 276646.080000
   4285   4287     1   0.10969 276646.080000
   4290   4319     1   0.10304 312293.760000
   4291   4292     1   0.10910 283424.160000
   4291   4293     1   0.10910 283424.160000
   4294   4295     1   0.10910 283424.160000
   4294   4296     1   0.10910 283424.160000
   4297   4298     1   0.10910 283424.160000
   4297   4299     1   0.10910 283424.160000
   4300   4301     1   0.10969 276646.080000
   4300   4302     1   0.10969 276646.080000
   4303   4304     1   0.10969 276646.080000
   4303   4305     1   0.10969 276646.080000
   4306   4307     1   0.10969 276646.080000
   4306   4308     1   0.10969 276646.080000
   4309   4310     1   0.10969 276646.080000
   4309   4311     1   0.10969 276646.080000
   4312   4313     1   0.10969 276646.080000
   4312   4314     1   0.10969 276646.080000
   4315   4316     1   0.10969 276646.080000
   4315   4317     1   0.10969 276646.080000
   4320   4349     1   0.10304 312293.760000
   4321   4322     1   0.10910 283424.160000
   4321   4323     1   0.10910 283424.160000
   4324   4325     1   0.10910 283424.160000
   4324   4326     1   0.10910 283424.160000
   4327   4328     1   0.10910 283424.160000
   4327   4329     1   0.10910 283424.160000
   4330   4331     1   0.10969 276646.080000
   4330   4332     1   0.10969 276646.080000
   4333   4334     1   0.10969 276646.080000
   4333   4335     1   0.10969 276646.080000
   4336   4337     1   0.10969 276646.080000
   4336   4338     1   0.10969 276646.080000
   4339   4340     1   0.10969 276646.080000
   4339   4341     1   0.10969 276646.080000
   4342   4343     1   0.10969 276646.080000
   4342   4344     1   0.10969 276646.080000
   4345   4346     1   0.10969 276646.080000
   4345   4347     1   0.10969 276646.080000
   4350   4379     1   0.10304 312293.760000
   4351   4352     1   0.10910 283424.160000
   4351   4353     1   0.10910 283424.160000
   4354   4355     1   0.10910 283424.160000
   4354   4356     1   0.10910 283424.160000
   4357   4358     1   0.10910 283424.160000
   4357   4359     1   0.10910 283424.160000
   4360   4361     1   0.10969 276646.080000
   4360   4362     1   0.10969 276646.080000
   4363   4364     1   0.10969 276646.080000
   4363   4365     1   0.10969 276646.080000
   4366   4367     1   0.10969 276646.080000
   4366   4368     1   0.10969 276646.080000
   4369   4370     1   0.10969 276646.080000
   4369   4371     1   0.10969 276646.080000
   4372   4373     1   0.10969 276646.080000
   4372   4374     1   0.10969 276646.080000
   4375   4376     1   0.10969 276646.080000
   4375   4377     1   0.10969 276646.080000
   4380   4409     1   0.10304 312293.760000
   4381   4382     1   0.10910 283424.160000
   4381   4383     1   0.10910 283424.160000
   4384   4385     1   0.10910 283424.160000
   4384   4386     1   0.10910 283424.160000
   4387   4388     1   0.10910 283424.160000
   4387   4389     1   0.10910 283424.160000
   4390   4391     1   0.10969 276646.080000
   4390   4392     1   0.10969 276646.080000
   4393   4394     1   0.10969 276646.080000
   4393   4395     1   0.10969 276646.080000
   4396   4397     1   0.10969 276646.080000
   4396   4398     1   0.10969 276646.080000
   4399   4400     1   0.10969 276646.080000
   4399   4401     1   0.10969 276646.080000
   4402   4403     1   0.10969 276646.080000
   4402   4404     1   0.10969 276646.080000
   4405   4406     1   0.10969 276646.080000
   4405   4407     1   0.10969 276646.080000
   4410   4439     1   0.10304 312293.760000
   4411   4412     1   0.10910 283424.160000
   4411   4413     1   0.10910 283424.160000
   4414   4415     1   0.10910 283424.160000
   4414   4416     1   0.10910 283424.160000
   4417   4418     1   0.10910 283424.160000
   4417   4419     1   0.10910 283424.160000
   4420   4421     1   0.10969 276646.080000
   4420   4422     1   0.10969 276646.080000
   4423   4424     1   0.10969 276646.080000
   4423   4425     1   0.10969 276646.080000
   4426   4427     1   0.10969 276646.080000
   4426   4428     1   0.10969 276646.080000
   4429   4430     1   0.10969 276646.080000
   4429   4431     1   0.10969 276646.080000
   4432   4433     1   0.10969 276646.080000
   4432   4434     1   0.10969 276646.080000
   4435   4436     1   0.10969 276646.080000
   4435   4437     1   0.10969 276646.080000
   4440   4469     1   0.10304 312293.760000
   4441   4442     1   0.10910 283424.160000
   4441   4443     1   0.10910 283424.160000
   4444   4445     1   0.10910 283424.160000
   4444   4446     1   0.10910 283424.160000
   4447   4448     1   0.10910 283424.160000
   4447   4449     1   0.10910 283424.160000
   4450   4451     1   0.10969 276646.080000
   4450   4452     1   0.10969 276646.080000
   4453   4454     1   0.10969 276646.080000
   4453   4455     1   0.10969 276646.080000
   4456   4457     1   0.10969 276646.080000
   4456   4458     1   0.10969 276646.080000
   4459   4460     1   0.10969 276646.080000
   4459   4461     1   0.10969 276646.080000
   4462   4463     1   0.10969 276646.080000
   4462   4464     1   0.10969 276646.080000
   4465   4466     1   0.10969 276646.080000
   4465   4467     1   0.10969 276646.080000
   4470   4499     1   0.10304 312293.760000
   4471   4472     1   0.10910 283424.160000
   4471   4473     1   0.10910 283424.160000
   4474   4475     1   0.10910 283424.160000
   4474   4476     1   0.10910 283424.160000
   4477   4478     1   0.10910 283424.160000
   4477   4479     1   0.10910 283424.160000
   4480   4481     1   0.10969 276646.080000
   4480   4482     1   0.10969 276646.080000
   4483   4484     1   0.10969 276646.080000
   4483   4485     1   0.10969 276646.080000
   4486   4487     1   0.10969 276646.080000
   4486   4488     1   0.10969 276646.080000
   4489   4490     1   0.10969 276646.080000
   4489   4491     1   0.10969 276646.080000
   4492   4493     1   0.10969 276646.080000
   4492   4494     1   0.10969 276646.080000
   4495   4496     1   0.10969 276646.080000
   4495   4497     1   0.10969 276646.080000
   4500   4529     1   0.10304 312293.760000
   4501   4502     1   0.10910 283424.160000
   4501   4503     1   0.10910 283424.160000
   4504   4505     1   0.10910 283424.160000
   4504   4506     1   0.10910 283424.160000
   4507   4508     1   0.10910 283424.160000
   4507   4509     1   0.10910 283424.160000
   4510   4511     1   0.10969 276646.080000
   4510   4512     1   0.10969 276646.080000
   4513   4514     1   0.10969 276646.080000
   4513   4515     1   0.10969 276646.080000
   4516   4517     1   0.10969 276646.080000
   4516   4518     1   0.10969 276646.080000
   4519   4520     1   0.10969 276646.080000
   4519   4521     1   0.10969 276646.080000
   4522   4523     1   0.10969 276646.080000
   4522   4524     1   0.10969 276646.080000
   4525   4526     1   0.10969 276646.080000
   4525   4527     1   0.10969 276646.080000
   4530   4559     1   0.10304 312293.760000
   4531   4532     1   0.10910 283424.160000
   4531   4533     1   0.10910 283424.160000
   4534   4535     1   0.10910 283424.160000
   4534   4536     1   0.10910 283424.160000
   4537   4538     1   0.10910 283424.160000
   4537   4539     1   0.10910 283424.160000
   4540   4541     1   0.10969 276646.080000
   4540   4542     1   0.10969 276646.080000
   4543   4544     1   0.10969 276646.080000
   4543   4545     1   0.10969 276646.080000
   4546   4547     1   0.10969 276646.080000
   4546   4548     1   0.10969 276646.080000
   4549   4550     1   0.10969 276646.080000
   4549   4551     1   0.10969 276646.080000
   4552   4553     1   0.10969 276646.080000
   4552   4554     1   0.10969 276646.080000
   4555   4556     1   0.10969 276646.080000
   4555   4557     1   0.10969 276646.080000
   4560   4589     1   0.10304 312293.760000
   4561   4562     1   0.10910 283424.160000
   4561   4563     1   0.10910 283424.160000
   4564   4565     1   0.10910 283424.160000
   4564   4566     1   0.10910 283424.160000
   4567   4568     1   0.10910 283424.160000
   4567   4569     1   0.10910 283424.160000
   4570   4571     1   0.10969 276646.080000
   4570   4572     1   0.10969 276646.080000
   4573   4574     1   0.10969 276646.080000
   4573   4575     1   0.10969 276646.080000
   4576   4577     1   0.10969 276646.080000
   4576   4578     1   0.10969 276646.080000
   4579   4580     1   0.10969 276646.080000
   4579   4581     1   0.10969 276646.080000
   4582   4583     1   0.10969 276646.080000
   4582   4584     1   0.10969 276646.080000
   4585   4586     1   0.10969 276646.080000
   4585   4587     1   0.10969 276646.080000
   4590   4619     1   0.10304 312293.760000
   4591   4592     1   0.10910 283424.160000
   4591   4593     1   0.10910 283424.160000
   4594   4595     1   0.10910 283424.160000
   4594   4596     1   0.10910 283424.160000
   4597   4598     1   0.10910 283424.160000
   4597   4599     1   0.10910 283424.160000
   4600   4601     1   0.10969 276646.080000
   4600   4602     1   0.10969 276646.080000
   4603   4604     1   0.10969 276646.080000
   4603   4605     1   0.10969 276646.080000
   4606   4607     1   0.10969 276646.080000
   4606   4608     1   0.10969 276646.080000
   4609   4610     1   0.10969 276646.080000
   4609   4611     1   0.10969 276646.080000
   4612   4613     1   0.10969 276646.080000
   4612   4614     1   0.10969 276646.080000
   4615   4616     1   0.10969 276646.080000
   4615   4617     1   0.10969 276646.080000
   4620   4649     1   0.10304 312293.760000
   4621   4622     1   0.10910 283424.160000
   4621   4623     1   0.10910 283424.160000
   4624   4625     1   0.10910 283424.160000
   4624   4626     1   0.10910 283424.160000
   4627   4628     1   0.10910 283424.160000
   4627   4629     1   0.10910 283424.160000
   4630   4631     1   0.10969 276646.080000
   4630   4632     1   0.10969 276646.080000
   4633   4634     1   0.10969 276646.080000
   4633   4635     1   0.10969 276646.080000
   4636   4637     1   0.10969 276646.080000
   4636   4638     1   0.10969 276646.080000
   4639   4640     1   0.10969 276646.080000
   4639   4641     1   0.10969 276646.080000
   4642   4643     1   0.10969 276646.080000
   4642   4644     1   0.10969 276646.080000
   4645   4646     1   0.10969 276646.080000
   4645   4647     1   0.10969 276646.080000
   4650   4679     1   0.10304 312293.760000
   4651   4652     1   0.10910 283424.160000
   4651   4653     1   0.10910 283424.160000
   4654   4655     1   0.10910 283424.160000
   4654   4656     1   0.10910 283424.160000
   4657   4658     1   0.10910 283424.160000
   4657   4659     1   0.10910 283424.160000
   4660   4661     1   0.10969 276646.080000
   4660   4662     1   0.10969 276646.080000
   4663   4664     1   0.10969 276646.080000
   4663   4665     1   0.10969 276646.080000
   4666   4667     1   0.10969 276646.080000
   4666   4668     1   0.10969 276646.080000
   4669   4670     1   0.10969 276646.080000
   4669   4671     1   0.10969 276646.080000
   4672   4673     1   0.10969 276646.080000
   4672   4674     1   0.10969 276646.080000
   4675   4676     1   0.10969 276646.080000
   4675   4677     1   0.10969 276646.080000
   4680   4709     1   0.10304 312293.760000
   4681   4682     1   0.10910 283424.160000
   4681   4683     1   0.10910 283424.160000
   4684   4685     1   0.10910 283424.160000
   4684   4686     1   0.10910 283424.160000
   4687   4688     1   0.10910 283424.160000
   4687   4689     1   0.10910 283424.160000
   4690   4691     1   0.10969 276646.080000
   4690   4692     1   0.10969 276646.080000
   4693   4694     1   0.10969 276646.080000
   4693   4695     1   0.10969 276646.080000
   4696   4697     1   0.10969 276646.080000
   4696   4698     1   0.10969 276646.080000
   4699   4700     1   0.10969 276646.080000
   4699   4701     1   0.10969 276646.080000
   4702   4703     1   0.10969 276646.080000
   4702   4704     1   0.10969 276646.080000
   4705   4706     1   0.10969 276646.080000
   4705   4707     1   0.10969 276646.080000
   4710   4739     1   0.10304 312293.760000
   4711   4712     1   0.10910 283424.160000
   4711   4713     1   0.10910 283424.160000
   4714   4715     1   0.10910 283424.160000
   4714   4716     1   0.10910 283424.160000
   4717   4718     1   0.10910 283424.160000
   4717   4719     1   0.10910 283424.160000
   4720   4721     1   0.10969 276646.080000
   4720   4722     1   0.10969 276646.080000
   4723   4724     1   0.10969 276646.080000
   4723   4725     1   0.10969 276646.080000
   4726   4727     1   0.10969 276646.080000
   4726   4728     1   0.10969 276646.080000
   4729   4730     1   0.10969 276646.080000
   4729   4731     1   0.10969 276646.080000
   4732   4733     1   0.10969 276646.080000
   4732   4734     1   0.10969 276646.080000
   4735   4736     1   0.10969 276646.080000
   4735   4737     1   0.10969 276646.080000
   4740   4769     1   0.10304 312293.760000
   4741   4742     1   0.10910 283424.160000
   4741   4743     1   0.10910 283424.160000
   4744   4745     1   0.10910 283424.160000
   4744   4746     1   0.10910 283424.160000
   4747   4748     1   0.10910 283424.160000
   4747   4749     1   0.10910 283424.160000
   4750   4751     1   0.10969 276646.080000
   4750   4752     1   0.10969 276646.080000
   4753   4754     1   0.10969 276646.080000
   4753   4755     1   0.10969 276646.080000
   4756   4757     1   0.10969 276646.080000
   4756   4758     1   0.10969 276646.080000
   4759   4760     1   0.10969 276646.080000
   4759   4761     1   0.10969 276646.080000
   4762   4763     1   0.10969 276646.080000
   4762   4764     1   0.10969 276646.080000
   4765   4766     1   0.10969 276646.080000
   4765   4767     1   0.10969 276646.080000
   4770   4799     1   0.10304 312293.760000
   4771   4772     1   0.10910 283424.160000
   4771   4773     1   0.10910 283424.160000
   4774   4775     1   0.10910 283424.160000
   4774   4776     1   0.10910 283424.160000
   4777   4778     1   0.10910 283424.160000
   4777   4779     1   0.10910 283424.160000
   4780   4781     1   0.10969 276646.080000
   4780   4782     1   0.10969 276646.080000
   4783   4784     1   0.10969 276646.080000
   4783   4785     1   0.10969 276646.080000
   4786   4787     1   0.10969 276646.080000
   4786   4788     1   0.10969 276646.080000
   4789   4790     1   0.10969 276646.080000
   4789   4791     1   0.10969 276646.080000
   4792   4793     1   0.10969 276646.080000
   4792   4794     1   0.10969 276646.080000
   4795   4796     1   0.10969 276646.080000
   4795   4797     1   0.10969 276646.080000
   4800   4829     1   0.10304 312293.760000
   4801   4802     1   0.10910 283424.160000
   4801   4803     1   0.10910 283424.160000
   4804   4805     1   0.10910 283424.160000
   4804   4806     1   0.10910 283424.160000
   4807   4808     1   0.10910 283424.160000
   4807   4809     1   0.10910 283424.160000
   4810   4811     1   0.10969 276646.080000
   4810   4812     1   0.10969 276646.080000
   4813   4814     1   0.10969 276646.080000
   4813   4815     1   0.10969 276646.080000
   4816   4817     1   0.10969 276646.080000
   4816   4818     1   0.10969 276646.080000
   4819   4820     1   0.10969 276646.080000
   4819   4821     1   0.10969 276646.080000
   4822   4823     1   0.10969 276646.080000
   4822   4824     1   0.10969 276646.080000
   4825   4826     1   0.10969 276646.080000
   4825   4827     1   0.10969 276646.080000
   4830   4859     1   0.10304 312293.760000
   4831   4832     1   0.10910 283424.160000
   4831   4833     1   0.10910 283424.160000
   4834   4835     1   0.10910 283424.160000
   4834   4836     1   0.10910 283424.160000
   4837   4838     1   0.10910 283424.160000
   4837   4839     1   0.10910 283424.160000
   4840   4841     1   0.10969 276646.080000
   4840   4842     1   0.10969 276646.080000
   4843   4844     1   0.10969 276646.080000
   4843   4845     1   0.10969 276646.080000
   4846   4847     1   0.10969 276646.080000
   4846   4848     1   0.10969 276646.080000
   4849   4850     1   0.10969 276646.080000
   4849   4851     1   0.10969 276646.080000
   4852   4853     1   0.10969 276646.080000
   4852   4854     1   0.10969 276646.080000
   4855   4856     1   0.10969 276646.080000
   4855   4857     1   0.10969 276646.080000
   4860   4889     1   0.10304 312293.760000
   4861   4862     1   0.10910 283424.160000
   4861   4863     1   0.10910 283424.160000
   4864   4865     1   0.10910 283424.160000
   4864   4866     1   0.10910 283424.160000
   4867   4868     1   0.10910 283424.160000
   4867   4869     1   0.10910 283424.160000
   4870   4871     1   0.10969 276646.080000
   4870   4872     1   0.10969 276646.080000
   4873   4874     1   0.10969 276646.080000
   4873   4875     1   0.10969 276646.080000
   4876   4877     1   0.10969 276646.080000
   4876   4878     1   0.10969 276646.080000
   4879   4880     1   0.10969 276646.080000
   4879   4881     1   0.10969 276646.080000
   4882   4883     1   0.10969 276646.080000
   4882   4884     1   0.10969 276646.080000
   4885   4886     1   0.10969 276646.080000
   4885   4887     1   0.10969 276646.080000
   4890   4919     1   0.10304 312293.760000
   4891   4892     1   0.10910 283424.160000
   4891   4893     1   0.10910 283424.160000
   4894   4895     1   0.10910 283424.160000
   4894   4896     1   0.10910 283424.160000
   4897   4898     1   0.10910 283424.160000
   4897   4899     1   0.10910 283424.160000
   4900   4901     1   0.10969 276646.080000
   4900   4902     1   0.10969 276646.080000
   4903   4904     1   0.10969 276646.080000
   4903   4905     1   0.10969 276646.080000
   4906   4907     1   0.10969 276646.080000
   4906   4908     1   0.10969 276646.080000
   4909   4910     1   0.10969 276646.080000
   4909   4911     1   0.10969 276646.080000
   4912   4913     1   0.10969 276646.080000
   4912   4914     1   0.10969 276646.080000
   4915   4916     1   0.10969 276646.080000
   4915   4917     1   0.10969 276646.080000
   4920   4949     1   0.10304 312293.760000
   4921   4922     1   0.10910 283424.160000
   4921   4923     1   0.10910 283424.160000
   4924   4925     1   0.10910 283424.160000
   4924   4926     1   0.10910 283424.160000
   4927   4928     1   0.10910 283424.160000
   4927   4929     1   0.10910 283424.160000
   4930   4931     1   0.10969 276646.080000
   4930   4932     1   0.10969 276646.080000
   4933   4934     1   0.10969 276646.080000
   4933   4935     1   0.10969 276646.080000
   4936   4937     1   0.10969 276646.080000
   4936   4938     1   0.10969 276646.080000
   4939   4940     1   0.10969 276646.080000
   4939   4941     1   0.10969 276646.080000
   4942   4943     1   0.10969 276646.080000
   4942   4944     1   0.10969 276646.080000
   4945   4946     1   0.10969 276646.080000
   4945   4947     1   0.10969 276646.080000
   4950   4979     1   0.10304 312293.760000
   4951   4952     1   0.10910 283424.160000
   4951   4953     1   0.10910 283424.160000
   4954   4955     1   0.10910 283424.160000
   4954   4956     1   0.10910 283424.160000
   4957   4958     1   0.10910 283424.160000
   4957   4959     1   0.10910 283424.160000
   4960   4961     1   0.10969 276646.080000
   4960   4962     1   0.10969 276646.080000
   4963   4964     1   0.10969 276646.080000
   4963   4965     1   0.10969 276646.080000
   4966   4967     1   0.10969 276646.080000
   4966   4968     1   0.10969 276646.080000
   4969   4970     1   0.10969 276646.080000
   4969   4971     1   0.10969 276646.080000
   4972   4973     1   0.10969 276646.080000
   4972   4974     1   0.10969 276646.080000
   4975   4976     1   0.10969 276646.080000
   4975   4977     1   0.10969 276646.080000
   4980   5009     1   0.10304 312293.760000
   4981   4982     1   0.10910 283424.160000
   4981   4983     1   0.10910 283424.160000
   4984   4985     1   0.10910 283424.160000
   4984   4986     1   0.10910 283424.160000
   4987   4988     1   0.10910 283424.160000
   4987   4989     1   0.10910 283424.160000
   4990   4991     1   0.10969 276646.080000
   4990   4992     1   0.10969 276646.080000
   4993   4994     1   0.10969 276646.080000
   4993   4995     1   0.10969 276646.080000
   4996   4997     1   0.10969 276646.080000
   4996   4998     1   0.10969 276646.080000
   4999   5000     1   0.10969 276646.080000
   4999   5001     1   0.10969 276646.080000
   5002   5003     1   0.10969 276646.080000
   5002   5004     1   0.10969 276646.080000
   5005   5006     1   0.10969 276646.080000
   5005   5007     1   0.10969 276646.080000
   5010   5039     1   0.10304 312293.760000
   5011   5012     1   0.10910 283424.160000
   5011   5013     1   0.10910 283424.160000
   5014   5015     1   0.10910 283424.160000
   5014   5016     1   0.10910 283424.160000
   5017   5018     1   0.10910 283424.160000
   5017   5019     1   0.10910 283424.160000
   5020   5021     1   0.10969 276646.080000
   5020   5022     1   0.10969 276646.080000
   5023   5024     1   0.10969 276646.080000
   5023   5025     1   0.10969 276646.080000
   5026   5027     1   0.10969 276646.080000
   5026   5028     1   0.10969 276646.080000
   5029   5030     1   0.10969 276646.080000
   5029   5031     1   0.10969 276646.080000
   5032   5033     1   0.10969 276646.080000
   5032   5034     1   0.10969 276646.080000
   5035   5036     1   0.10969 276646.080000
   5035   5037     1   0.10969 276646.080000
   5040   5069     1   0.10304 312293.760000
   5041   5042     1   0.10910 283424.160000
   5041   5043     1   0.10910 283424.160000
   5044   5045     1   0.10910 283424.160000
   5044   5046     1   0.10910 283424.160000
   5047   5048     1   0.10910 283424.160000
   5047   5049     1   0.10910 283424.160000
   5050   5051     1   0.10969 276646.080000
   5050   5052     1   0.10969 276646.080000
   5053   5054     1   0.10969 276646.080000
   5053   5055     1   0.10969 276646.080000
   5056   5057     1   0.10969 276646.080000
   5056   5058     1   0.10969 276646.080000
   5059   5060     1   0.10969 276646.080000
   5059   5061     1   0.10969 276646.080000
   5062   5063     1   0.10969 276646.080000
   5062   5064     1   0.10969 276646.080000
   5065   5066     1   0.10969 276646.080000
   5065   5067     1   0.10969 276646.080000
   5070   5099     1   0.10304 312293.760000
   5071   5072     1   0.10910 283424.160000
   5071   5073     1   0.10910 283424.160000
   5074   5075     1   0.10910 283424.160000
   5074   5076     1   0.10910 283424.160000
   5077   5078     1   0.10910 283424.160000
   5077   5079     1   0.10910 283424.160000
   5080   5081     1   0.10969 276646.080000
   5080   5082     1   0.10969 276646.080000
   5083   5084     1   0.10969 276646.080000
   5083   5085     1   0.10969 276646.080000
   5086   5087     1   0.10969 276646.080000
   5086   5088     1   0.10969 276646.080000
   5089   5090     1   0.10969 276646.080000
   5089   5091     1   0.10969 276646.080000
   5092   5093     1   0.10969 276646.080000
   5092   5094     1   0.10969 276646.080000
   5095   5096     1   0.10969 276646.080000
   5095   5097     1   0.10969 276646.080000
   5100   5129     1   0.10304 312293.760000
   5101   5102     1   0.10910 283424.160000
   5101   5103     1   0.10910 283424.160000
   5104   5105     1   0.10910 283424.160000
   5104   5106     1   0.10910 283424.160000
   5107   5108     1   0.10910 283424.160000
   5107   5109     1   0.10910 283424.160000
   5110   5111     1   0.10969 276646.080000
   5110   5112     1   0.10969 276646.080000
   5113   5114     1   0.10969 276646.080000
   5113   5115     1   0.10969 276646.080000
   5116   5117     1   0.10969 276646.080000
   5116   5118     1   0.10969 276646.080000
   5119   5120     1   0.10969 276646.080000
   5119   5121     1   0.10969 276646.080000
   5122   5123     1   0.10969 276646.080000
   5122   5124     1   0.10969 276646.080000
   5125   5126     1   0.10969 276646.080000
   5125   5127     1   0.10969 276646.080000
   5130   5159     1   0.10304 312293.760000
   5131   5132     1   0.10910 283424.160000
   5131   5133     1   0.10910 283424.160000
   5134   5135     1   0.10910 283424.160000
   5134   5136     1   0.10910 283424.160000
   5137   5138     1   0.10910 283424.160000
   5137   5139     1   0.10910 283424.160000
   5140   5141     1   0.10969 276646.080000
   5140   5142     1   0.10969 276646.080000
   5143   5144     1   0.10969 276646.080000
   5143   5145     1   0.10969 276646.080000
   5146   5147     1   0.10969 276646.080000
   5146   5148     1   0.10969 276646.080000
   5149   5150     1   0.10969 276646.080000
   5149   5151     1   0.10969 276646.080000
   5152   5153     1   0.10969 276646.080000
   5152   5154     1   0.10969 276646.080000
   5155   5156     1   0.10969 276646.080000
   5155   5157     1   0.10969 276646.080000
   5160   5189     1   0.10304 312293.760000
   5161   5162     1   0.10910 283424.160000
   5161   5163     1   0.10910 283424.160000
   5164   5165     1   0.10910 283424.160000
   5164   5166     1   0.10910 283424.160000
   5167   5168     1   0.10910 283424.160000
   5167   5169     1   0.10910 283424.160000
   5170   5171     1   0.10969 276646.080000
   5170   5172     1   0.10969 276646.080000
   5173   5174     1   0.10969 276646.080000
   5173   5175     1   0.10969 276646.080000
   5176   5177     1   0.10969 276646.080000
   5176   5178     1   0.10969 276646.080000
   5179   5180     1   0.10969 276646.080000
   5179   5181     1   0.10969 276646.080000
   5182   5183     1   0.10969 276646.080000
   5182   5184     1   0.10969 276646.080000
   5185   5186     1   0.10969 276646.080000
   5185   5187     1   0.10969 276646.080000
   5190   5219     1   0.10304 312293.760000
   5191   5192     1   0.10910 283424.160000
   5191   5193     1   0.10910 283424.160000
   5194   5195     1   0.10910 283424.160000
   5194   5196     1   0.10910 283424.160000
   5197   5198     1   0.10910 283424.160000
   5197   5199     1   0.10910 283424.160000
   5200   5201     1   0.10969 276646.080000
   5200   5202     1   0.10969 276646.080000
   5203   5204     1   0.10969 276646.080000
   5203   5205     1   0.10969 276646.080000
   5206   5207     1   0.10969 276646.080000
   5206   5208     1   0.10969 276646.080000
   5209   5210     1   0.10969 276646.080000
   5209   5211     1   0.10969 276646.080000
   5212   5213     1   0.10969 276646.080000
   5212   5214     1   0.10969 276646.080000
   5215   5216     1   0.10969 276646.080000
   5215   5217     1   0.10969 276646.080000
   5220   5249     1   0.10304 312293.760000
   5221   5222     1   0.10910 283424.160000
   5221   5223     1   0.10910 283424.160000
   5224   5225     1   0.10910 283424.160000
   5224   5226     1   0.10910 283424.160000
   5227   5228     1   0.10910 283424.160000
   5227   5229     1   0.10910 283424.160000
   5230   5231     1   0.10969 276646.080000
   5230   5232     1   0.10969 276646.080000
   5233   5234     1   0.10969 276646.080000
   5233   5235     1   0.10969 276646.080000
   5236   5237     1   0.10969 276646.080000
   5236   5238     1   0.10969 276646.080000
   5239   5240     1   0.10969 276646.080000
   5239   5241     1   0.10969 276646.080000
   5242   5243     1   0.10969 276646.080000
   5242   5244     1   0.10969 276646.080000
   5245   5246     1   0.10969 276646.080000
   5245   5247     1   0.10969 276646.080000
   5250   5279     1   0.10304 312293.760000
   5251   5252     1   0.10910 283424.160000
   5251   5253     1   0.10910 283424.160000
   5254   5255     1   0.10910 283424.160000
   5254   5256     1   0.10910 283424.160000
   5257   5258     1   0.10910 283424.160000
   5257   5259     1   0.10910 283424.160000
   5260   5261     1   0.10969 276646.080000
   5260   5262     1   0.10969 276646.080000
   5263   5264     1   0.10969 276646.080000
   5263   5265     1   0.10969 276646.080000
   5266   5267     1   0.10969 276646.080000
   5266   5268     1   0.10969 276646.080000
   5269   5270     1   0.10969 276646.080000
   5269   5271     1   0.10969 276646.080000
   5272   5273     1   0.10969 276646.080000
   5272   5274     1   0.10969 276646.080000
   5275   5276     1   0.10969 276646.080000
   5275   5277     1   0.10969 276646.080000
   5280   5309     1   0.10304 312293.760000
   5281   5282     1   0.10910 283424.160000
   5281   5283     1   0.10910 283424.160000
   5284   5285     1   0.10910 283424.160000
   5284   5286     1   0.10910 283424.160000
   5287   5288     1   0.10910 283424.160000
   5287   5289     1   0.10910 283424.160000
   5290   5291     1   0.10969 276646.080000
   5290   5292     1   0.10969 276646.080000
   5293   5294     1   0.10969 276646.080000
   5293   5295     1   0.10969 276646.080000
   5296   5297     1   0.10969 276646.080000
   5296   5298     1   0.10969 276646.080000
   5299   5300     1   0.10969 276646.080000
   5299   5301     1   0.10969 276646.080000
   5302   5303     1   0.10969 276646.080000
   5302   5304     1   0.10969 276646.080000
   5305   5306     1   0.10969 276646.080000
   5305   5307     1   0.10969 276646.080000
   5310   5339     1   0.10304 312293.760000
   5311   5312     1   0.10910 283424.160000
   5311   5313     1   0.10910 283424.160000
   5314   5315     1   0.10910 283424.160000
   5314   5316     1   0.10910 283424.160000
   5317   5318     1   0.10910 283424.160000
   5317   5319     1   0.10910 283424.160000
   5320   5321     1   0.10969 276646.080000
   5320   5322     1   0.10969 276646.080000
   5323   5324     1   0.10969 276646.080000
   5323   5325     1   0.10969 276646.080000
   5326   5327     1   0.10969 276646.080000
   5326   5328     1   0.10969 276646.080000
   5329   5330     1   0.10969 276646.080000
   5329   5331     1   0.10969 276646.080000
   5332   5333     1   0.10969 276646.080000
   5332   5334     1   0.10969 276646.080000
   5335   5336     1   0.10969 276646.080000
   5335   5337     1   0.10969 276646.080000
   5340   5369     1   0.10304 312293.760000
   5341   5342     1   0.10910 283424.160000
   5341   5343     1   0.10910 283424.160000
   5344   5345     1   0.10910 283424.160000
   5344   5346     1   0.10910 283424.160000
   5347   5348     1   0.10910 283424.160000
   5347   5349     1   0.10910 283424.160000
   5350   5351     1   0.10969 276646.080000
   5350   5352     1   0.10969 276646.080000
   5353   5354     1   0.10969 276646.080000
   5353   5355     1   0.10969 276646.080000
   5356   5357     1   0.10969 276646.080000
   5356   5358     1   0.10969 276646.080000
   5359   5360     1   0.10969 276646.080000
   5359   5361     1   0.10969 276646.080000
   5362   5363     1   0.10969 276646.080000
   5362   5364     1   0.10969 276646.080000
   5365   5366     1   0.10969 276646.080000
   5365   5367     1   0.10969 276646.080000
   5370   5399     1   0.10304 312293.760000
   5371   5372     1   0.10910 283424.160000
   5371   5373     1   0.10910 283424.160000
   5374   5375     1   0.10910 283424.160000
   5374   5376     1   0.10910 283424.160000
   5377   5378     1   0.10910 283424.160000
   5377   5379     1   0.10910 283424.160000
   5380   5381     1   0.10969 276646.080000
   5380   5382     1   0.10969 276646.080000
   5383   5384     1   0.10969 276646.080000
   5383   5385     1   0.10969 276646.080000
   5386   5387     1   0.10969 276646.080000
   5386   5388     1   0.10969 276646.080000
   5389   5390     1   0.10969 276646.080000
   5389   5391     1   0.10969 276646.080000
   5392   5393     1   0.10969 276646.080000
   5392   5394     1   0.10969 276646.080000
   5395   5396     1   0.10969 276646.080000
   5395   5397     1   0.10969 276646.080000
   5400   5429     1   0.10304 312293.760000
   5401   5402     1   0.10910 283424.160000
   5401   5403     1   0.10910 283424.160000
   5404   5405     1   0.10910 283424.160000
   5404   5406     1   0.10910 283424.160000
   5407   5408     1   0.10910 283424.160000
   5407   5409     1   0.10910 283424.160000
   5410   5411     1   0.10969 276646.080000
   5410   5412     1   0.10969 276646.080000
   5413   5414     1   0.10969 276646.080000
   5413   5415     1   0.10969 276646.080000
   5416   5417     1   0.10969 276646.080000
   5416   5418     1   0.10969 276646.080000
   5419   5420     1   0.10969 276646.080000
   5419   5421     1   0.10969 276646.080000
   5422   5423     1   0.10969 276646.080000
   5422   5424     1   0.10969 276646.080000
   5425   5426     1   0.10969 276646.080000
   5425   5427     1   0.10969 276646.080000
   5430   5459     1   0.10304 312293.760000
   5431   5432     1   0.10910 283424.160000
   5431   5433     1   0.10910 283424.160000
   5434   5435     1   0.10910 283424.160000
   5434   5436     1   0.10910 283424.160000
   5437   5438     1   0.10910 283424.160000
   5437   5439     1   0.10910 283424.160000
   5440   5441     1   0.10969 276646.080000
   5440   5442     1   0.10969 276646.080000
   5443   5444     1   0.10969 276646.080000
   5443   5445     1   0.10969 276646.080000
   5446   5447     1   0.10969 276646.080000
   5446   5448     1   0.10969 276646.080000
   5449   5450     1   0.10969 276646.080000
   5449   5451     1   0.10969 276646.080000
   5452   5453     1   0.10969 276646.080000
   5452   5454     1   0.10969 276646.080000
   5455   5456     1   0.10969 276646.080000
   5455   5457     1   0.10969 276646.080000
   5460   5489     1   0.10304 312293.760000
   5461   5462     1   0.10910 283424.160000
   5461   5463     1   0.10910 283424.160000
   5464   5465     1   0.10910 283424.160000
   5464   5466     1   0.10910 283424.160000
   5467   5468     1   0.10910 283424.160000
   5467   5469     1   0.10910 283424.160000
   5470   5471     1   0.10969 276646.080000
   5470   5472     1   0.10969 276646.080000
   5473   5474     1   0.10969 276646.080000
   5473   5475     1   0.10969 276646.080000
   5476   5477     1   0.10969 276646.080000
   5476   5478     1   0.10969 276646.080000
   5479   5480     1   0.10969 276646.080000
   5479   5481     1   0.10969 276646.080000
   5482   5483     1   0.10969 276646.080000
   5482   5484     1   0.10969 276646.080000
   5485   5486     1   0.10969 276646.080000
   5485   5487     1   0.10969 276646.080000
   5490   5519     1   0.10304 312293.760000
   5491   5492     1   0.10910 283424.160000
   5491   5493     1   0.10910 283424.160000
   5494   5495     1   0.10910 283424.160000
   5494   5496     1   0.10910 283424.160000
   5497   5498     1   0.10910 283424.160000
   5497   5499     1   0.10910 283424.160000
   5500   5501     1   0.10969 276646.080000
   5500   5502     1   0.10969 276646.080000
   5503   5504     1   0.10969 276646.080000
   5503   5505     1   0.10969 276646.080000
   5506   5507     1   0.10969 276646.080000
   5506   5508     1   0.10969 276646.080000
   5509   5510     1   0.10969 276646.080000
   5509   5511     1   0.10969 276646.080000
   5512   5513     1   0.10969 276646.080000
   5512   5514     1   0.10969 276646.080000
   5515   5516     1   0.10969 276646.080000
   5515   5517     1   0.10969 276646.080000
   5520   5549     1   0.10304 312293.760000
   5521   5522     1   0.10910 283424.160000
   5521   5523     1   0.10910 283424.160000
   5524   5525     1   0.10910 283424.160000
   5524   5526     1   0.10910 283424.160000
   5527   5528     1   0.10910 283424.160000
   5527   5529     1   0.10910 283424.160000
   5530   5531     1   0.10969 276646.080000
   5530   5532     1   0.10969 276646.080000
   5533   5534     1   0.10969 276646.080000
   5533   5535     1   0.10969 276646.080000
   5536   5537     1   0.10969 276646.080000
   5536   5538     1   0.10969 276646.080000
   5539   5540     1   0.10969 276646.080000
   5539   5541     1   0.10969 276646.080000
   5542   5543     1   0.10969 276646.080000
   5542   5544     1   0.10969 276646.080000
   5545   5546     1   0.10969 276646.080000
   5545   5547     1   0.10969 276646.080000
   5550   5579     1   0.10304 312293.760000
   5551   5552     1   0.10910 283424.160000
   5551   5553     1   0.10910 283424.160000
   5554   5555     1   0.10910 283424.160000
   5554   5556     1   0.10910 283424.160000
   5557   5558     1   0.10910 283424.160000
   5557   5559     1   0.10910 283424.160000
   5560   5561     1   0.10969 276646.080000
   5560   5562     1   0.10969 276646.080000
   5563   5564     1   0.10969 276646.080000
   5563   5565     1   0.10969 276646.080000
   5566   5567     1   0.10969 276646.080000
   5566   5568     1   0.10969 276646.080000
   5569   5570     1   0.10969 276646.080000
   5569   5571     1   0.10969 276646.080000
   5572   5573     1   0.10969 276646.080000
   5572   5574     1   0.10969 276646.080000
   5575   5576     1   0.10969 276646.080000
   5575   5577     1   0.10969 276646.080000
   5580   5609     1   0.10304 312293.760000
   5581   5582     1   0.10910 283424.160000
   5581   5583     1   0.10910 283424.160000
   5584   5585     1   0.10910 283424.160000
   5584   5586     1   0.10910 283424.160000
   5587   5588     1   0.10910 283424.160000
   5587   5589     1   0.10910 283424.160000
   5590   5591     1   0.10969 276646.080000
   5590   5592     1   0.10969 276646.080000
   5593   5594     1   0.10969 276646.080000
   5593   5595     1   0.10969 276646.080000
   5596   5597     1   0.10969 276646.080000
   5596   5598     1   0.10969 276646.080000
   5599   5600     1   0.10969 276646.080000
   5599   5601     1   0.10969 276646.080000
   5602   5603     1   0.10969 276646.080000
   5602   5604     1   0.10969 276646.080000
   5605   5606     1   0.10969 276646.080000
   5605   5607     1   0.10969 276646.080000
   5610   5639     1   0.10304 312293.760000
   5611   5612     1   0.10910 283424.160000
   5611   5613     1   0.10910 283424.160000
   5614   5615     1   0.10910 283424.160000
   5614   5616     1   0.10910 283424.160000
   5617   5618     1   0.10910 283424.160000
   5617   5619     1   0.10910 283424.160000
   5620   5621     1   0.10969 276646.080000
   5620   5622     1   0.10969 276646.080000
   5623   5624     1   0.10969 276646.080000
   5623   5625     1   0.10969 276646.080000
   5626   5627     1   0.10969 276646.080000
   5626   5628     1   0.10969 276646.080000
   5629   5630     1   0.10969 276646.080000
   5629   5631     1   0.10969 276646.080000
   5632   5633     1   0.10969 276646.080000
   5632   5634     1   0.10969 276646.080000
   5635   5636     1   0.10969 276646.080000
   5635   5637     1   0.10969 276646.080000
   5640   5669     1   0.10304 312293.760000
   5641   5642     1   0.10910 283424.160000
   5641   5643     1   0.10910 283424.160000
   5644   5645     1   0.10910 283424.160000
   5644   5646     1   0.10910 283424.160000
   5647   5648     1   0.10910 283424.160000
   5647   5649     1   0.10910 283424.160000
   5650   5651     1   0.10969 276646.080000
   5650   5652     1   0.10969 276646.080000
   5653   5654     1   0.10969 276646.080000
   5653   5655     1   0.10969 276646.080000
   5656   5657     1   0.10969 276646.080000
   5656   5658     1   0.10969 276646.080000
   5659   5660     1   0.10969 276646.080000
   5659   5661     1   0.10969 276646.080000
   5662   5663     1   0.10969 276646.080000
   5662   5664     1   0.10969 276646.080000
   5665   5666     1   0.10969 276646.080000
   5665   5667     1   0.10969 276646.080000
   5670   5699     1   0.10304 312293.760000
   5671   5672     1   0.10910 283424.160000
   5671   5673     1   0.10910 283424.160000
   5674   5675     1   0.10910 283424.160000
   5674   5676     1   0.10910 283424.160000
   5677   5678     1   0.10910 283424.160000
   5677   5679     1   0.10910 283424.160000
   5680   5681     1   0.10969 276646.080000
   5680   5682     1   0.10969 276646.080000
   5683   5684     1   0.10969 276646.080000
   5683   5685     1   0.10969 276646.080000
   5686   5687     1   0.10969 276646.080000
   5686   5688     1   0.10969 276646.080000
   5689   5690     1   0.10969 276646.080000
   5689   5691     1   0.10969 276646.080000
   5692   5693     1   0.10969 276646.080000
   5692   5694     1   0.10969 276646.080000
   5695   5696     1   0.10969 276646.080000
   5695   5697     1   0.10969 276646.080000
   5700   5729     1   0.10304 312293.760000
   5701   5702     1   0.10910 283424.160000
   5701   5703     1   0.10910 283424.160000
   5704   5705     1   0.10910 283424.160000
   5704   5706     1   0.10910 283424.160000
   5707   5708     1   0.10910 283424.160000
   5707   5709     1   0.10910 283424.160000
   5710   5711     1   0.10969 276646.080000
   5710   5712     1   0.10969 276646.080000
   5713   5714     1   0.10969 276646.080000
   5713   5715     1   0.10969 276646.080000
   5716   5717     1   0.10969 276646.080000
   5716   5718     1   0.10969 276646.080000
   5719   5720     1   0.10969 276646.080000
   5719   5721     1   0.10969 276646.080000
   5722   5723     1   0.10969 276646.080000
   5722   5724     1   0.10969 276646.080000
   5725   5726     1   0.10969 276646.080000
   5725   5727     1   0.10969 276646.080000
   5730   5759     1   0.10304 312293.760000
   5731   5732     1   0.10910 283424.160000
   5731   5733     1   0.10910 283424.160000
   5734   5735     1   0.10910 283424.160000
   5734   5736     1   0.10910 283424.160000
   5737   5738     1   0.10910 283424.160000
   5737   5739     1   0.10910 283424.160000
   5740   5741     1   0.10969 276646.080000
   5740   5742     1   0.10969 276646.080000
   5743   5744     1   0.10969 276646.080000
   5743   5745     1   0.10969 276646.080000
   5746   5747     1   0.10969 276646.080000
   5746   5748     1   0.10969 276646.080000
   5749   5750     1   0.10969 276646.080000
   5749   5751     1   0.10969 276646.080000
   5752   5753     1   0.10969 276646.080000
   5752   5754     1   0.10969 276646.080000
   5755   5756     1   0.10969 276646.080000
   5755   5757     1   0.10969 276646.080000
   5760   5789     1   0.10304 312293.760000
   5761   5762     1   0.10910 283424.160000
   5761   5763     1   0.10910 283424.160000
   5764   5765     1   0.10910 283424.160000
   5764   5766     1   0.10910 283424.160000
   5767   5768     1   0.10910 283424.160000
   5767   5769     1   0.10910 283424.160000
   5770   5771     1   0.10969 276646.080000
   5770   5772     1   0.10969 276646.080000
   5773   5774     1   0.10969 276646.080000
   5773   5775     1   0.10969 276646.080000
   5776   5777     1   0.10969 276646.080000
   5776   5778     1   0.10969 276646.080000
   5779   5780     1   0.10969 276646.080000
   5779   5781     1   0.10969 276646.080000
   5782   5783     1   0.10969 276646.080000
   5782   5784     1   0.10969 276646.080000
   5785   5786     1   0.10969 276646.080000
   5785   5787     1   0.10969 276646.080000
   5790   5819     1   0.10304 312293.760000
   5791   5792     1   0.10910 283424.160000
   5791   5793     1   0.10910 283424.160000
   5794   5795     1   0.10910 283424.160000
   5794   5796     1   0.10910 283424.160000
   5797   5798     1   0.10910 283424.160000
   5797   5799     1   0.10910 283424.160000
   5800   5801     1   0.10969 276646.080000
   5800   5802     1   0.10969 276646.080000
   5803   5804     1   0.10969 276646.080000
   5803   5805     1   0.10969 276646.080000
   5806   5807     1   0.10969 276646.080000
   5806   5808     1   0.10969 276646.080000
   5809   5810     1   0.10969 276646.080000
   5809   5811     1   0.10969 276646.080000
   5812   5813     1   0.10969 276646.080000
   5812   5814     1   0.10969 276646.080000
   5815   5816     1   0.10969 276646.080000
   5815   5817     1   0.10969 276646.080000
   5820   5849     1   0.10304 312293.760000
   5821   5822     1   0.10910 283424.160000
   5821   5823     1   0.10910 283424.160000
   5824   5825     1   0.10910 283424.160000
   5824   5826     1   0.10910 283424.160000
   5827   5828     1   0.10910 283424.160000
   5827   5829     1   0.10910 283424.160000
   5830   5831     1   0.10969 276646.080000
   5830   5832     1   0.10969 276646.080000
   5833   5834     1   0.10969 276646.080000
   5833   5835     1   0.10969 276646.080000
   5836   5837     1   0.10969 276646.080000
   5836   5838     1   0.10969 276646.080000
   5839   5840     1   0.10969 276646.080000
   5839   5841     1   0.10969 276646.080000
   5842   5843     1   0.10969 276646.080000
   5842   5844     1   0.10969 276646.080000
   5845   5846     1   0.10969 276646.080000
   5845   5847     1   0.10969 276646.080000
   5850   5879     1   0.10304 312293.760000
   5851   5852     1   0.10910 283424.160000
   5851   5853     1   0.10910 283424.160000
   5854   5855     1   0.10910 283424.160000
   5854   5856     1   0.10910 283424.160000
   5857   5858     1   0.10910 283424.160000
   5857   5859     1   0.10910 283424.160000
   5860   5861     1   0.10969 276646.080000
   5860   5862     1   0.10969 276646.080000
   5863   5864     1   0.10969 276646.080000
   5863   5865     1   0.10969 276646.080000
   5866   5867     1   0.10969 276646.080000
   5866   5868     1   0.10969 276646.080000
   5869   5870     1   0.10969 276646.080000
   5869   5871     1   0.10969 276646.080000
   5872   5873     1   0.10969 276646.080000
   5872   5874     1   0.10969 276646.080000
   5875   5876     1   0.10969 276646.080000
   5875   5877     1   0.10969 276646.080000
   5880   5909     1   0.10304 312293.760000
   5881   5882     1   0.10910 283424.160000
   5881   5883     1   0.10910 283424.160000
   5884   5885     1   0.10910 283424.160000
   5884   5886     1   0.10910 283424.160000
   5887   5888     1   0.10910 283424.160000
   5887   5889     1   0.10910 283424.160000
   5890   5891     1   0.10969 276646.080000
   5890   5892     1   0.10969 276646.080000
   5893   5894     1   0.10969 276646.080000
   5893   5895     1   0.10969 276646.080000
   5896   5897     1   0.10969 276646.080000
   5896   5898     1   0.10969 276646.080000
   5899   5900     1   0.10969 276646.080000
   5899   5901     1   0.10969 276646.080000
   5902   5903     1   0.10969 276646.080000
   5902   5904     1   0.10969 276646.080000
   5905   5906     1   0.10969 276646.080000
   5905   5907     1   0.10969 276646.080000
   5910   5939     1   0.10304 312293.760000
   5911   5912     1   0.10910 283424.160000
   5911   5913     1   0.10910 283424.160000
   5914   5915     1   0.10910 283424.160000
   5914   5916     1   0.10910 283424.160000
   5917   5918     1   0.10910 283424.160000
   5917   5919     1   0.10910 283424.160000
   5920   5921     1   0.10969 276646.080000
   5920   5922     1   0.10969 276646.080000
   5923   5924     1   0.10969 276646.080000
   5923   5925     1   0.10969 276646.080000
   5926   5927     1   0.10969 276646.080000
   5926   5928     1   0.10969 276646.080000
   5929   5930     1   0.10969 276646.080000
   5929   5931     1   0.10969 276646.080000
   5932   5933     1   0.10969 276646.080000
   5932   5934     1   0.10969 276646.080000
   5935   5936     1   0.10969 276646.080000
   5935   5937     1   0.10969 276646.080000
   5940   5969     1   0.10304 312293.760000
   5941   5942     1   0.10910 283424.160000
   5941   5943     1   0.10910 283424.160000
   5944   5945     1   0.10910 283424.160000
   5944   5946     1   0.10910 283424.160000
   5947   5948     1   0.10910 283424.160000
   5947   5949     1   0.10910 283424.160000
   5950   5951     1   0.10969 276646.080000
   5950   5952     1   0.10969 276646.080000
   5953   5954     1   0.10969 276646.080000
   5953   5955     1   0.10969 276646.080000
   5956   5957     1   0.10969 276646.080000
   5956   5958     1   0.10969 276646.080000
   5959   5960     1   0.10969 276646.080000
   5959   5961     1   0.10969 276646.080000
   5962   5963     1   0.10969 276646.080000
   5962   5964     1   0.10969 276646.080000
   5965   5966     1   0.10969 276646.080000
   5965   5967     1   0.10969 276646.080000
   5970   5999     1   0.10304 312293.760000
   5971   5972     1   0.10910 283424.160000
   5971   5973     1   0.10910 283424.160000
   5974   5975     1   0.10910 283424.160000
   5974   5976     1   0.10910 283424.160000
   5977   5978     1   0.10910 283424.160000
   5977   5979     1   0.10910 283424.160000
   5980   5981     1   0.10969 276646.080000
   5980   5982     1   0.10969 276646.080000
   5983   5984     1   0.10969 276646.080000
   5983   5985     1   0.10969 276646.080000
   5986   5987     1   0.10969 276646.080000
   5986   5988     1   0.10969 276646.080000
   5989   5990     1   0.10969 276646.080000
   5989   5991     1   0.10969 276646.080000
   5992   5993     1   0.10969 276646.080000
   5992   5994     1   0.10969 276646.080000
   5995   5996     1   0.10969 276646.080000
   5995   5997     1   0.10969 276646.080000
   6000   6029     1   0.10304 312293.760000
   6001   6002     1   0.10910 283424.160000
   6001   6003     1   0.10910 283424.160000
   6004   6005     1   0.10910 283424.160000
   6004   6006     1   0.10910 283424.160000
   6007   6008     1   0.10910 283424.160000
   6007   6009     1   0.10910 283424.160000
   6010   6011     1   0.10969 276646.080000
   6010   6012     1   0.10969 276646.080000
   6013   6014     1   0.10969 276646.080000
   6013   6015     1   0.10969 276646.080000
   6016   6017     1   0.10969 276646.080000
   6016   6018     1   0.10969 276646.080000
   6019   6020     1   0.10969 276646.080000
   6019   6021     1   0.10969 276646.080000
   6022   6023     1   0.10969 276646.080000
   6022   6024     1   0.10969 276646.080000
   6025   6026     1   0.10969 276646.080000
   6025   6027     1   0.10969 276646.080000
   6030   6059     1   0.10304 312293.760000
   6031   6032     1   0.10910 283424.160000
   6031   6033     1   0.10910 283424.160000
   6034   6035     1   0.10910 283424.160000
   6034   6036     1   0.10910 283424.160000
   6037   6038     1   0.10910 283424.160000
   6037   6039     1   0.10910 283424.160000
   6040   6041     1   0.10969 276646.080000
   6040   6042     1   0.10969 276646.080000
   6043   6044     1   0.10969 276646.080000
   6043   6045     1   0.10969 276646.080000
   6046   6047     1   0.10969 276646.080000
   6046   6048     1   0.10969 276646.080000
   6049   6050     1   0.10969 276646.080000
   6049   6051     1   0.10969 276646.080000
   6052   6053     1   0.10969 276646.080000
   6052   6054     1   0.10969 276646.080000
   6055   6056     1   0.10969 276646.080000
   6055   6057     1   0.10969 276646.080000
   6060   6089     1   0.10304 312293.760000
   6061   6062     1   0.10910 283424.160000
   6061   6063     1   0.10910 283424.160000
   6064   6065     1   0.10910 283424.160000
   6064   6066     1   0.10910 283424.160000
   6067   6068     1   0.10910 283424.160000
   6067   6069     1   0.10910 283424.160000
   6070   6071     1   0.10969 276646.080000
   6070   6072     1   0.10969 276646.080000
   6073   6074     1   0.10969 276646.080000
   6073   6075     1   0.10969 276646.080000
   6076   6077     1   0.10969 276646.080000
   6076   6078     1   0.10969 276646.080000
   6079   6080     1   0.10969 276646.080000
   6079   6081     1   0.10969 276646.080000
   6082   6083     1   0.10969 276646.080000
   6082   6084     1   0.10969 276646.080000
   6085   6086     1   0.10969 276646.080000
   6085   6087     1   0.10969 276646.080000
   6090   6119     1   0.10304 312293.760000
   6091   6092     1   0.10910 283424.160000
   6091   6093     1   0.10910 283424.160000
   6094   6095     1   0.10910 283424.160000
   6094   6096     1   0.10910 283424.160000
   6097   6098     1   0.10910 283424.160000
   6097   6099     1   0.10910 283424.160000
   6100   6101     1   0.10969 276646.080000
   6100   6102     1   0.10969 276646.080000
   6103   6104     1   0.10969 276646.080000
   6103   6105     1   0.10969 276646.080000
   6106   6107     1   0.10969 276646.080000
   6106   6108     1   0.10969 276646.080000
   6109   6110     1   0.10969 276646.080000
   6109   6111     1   0.10969 276646.080000
   6112   6113     1   0.10969 276646.080000
   6112   6114     1   0.10969 276646.080000
   6115   6116     1   0.10969 276646.080000
   6115   6117     1   0.10969 276646.080000
   6120   6149     1   0.10304 312293.760000
   6121   6122     1   0.10910 283424.160000
   6121   6123     1   0.10910 283424.160000
   6124   6125     1   0.10910 283424.160000
   6124   6126     1   0.10910 283424.160000
   6127   6128     1   0.10910 283424.160000
   6127   6129     1   0.10910 283424.160000
   6130   6131     1   0.10969 276646.080000
   6130   6132     1   0.10969 276646.080000
   6133   6134     1   0.10969 276646.080000
   6133   6135     1   0.10969 276646.080000
   6136   6137     1   0.10969 276646.080000
   6136   6138     1   0.10969 276646.080000
   6139   6140     1   0.10969 276646.080000
   6139   6141     1   0.10969 276646.080000
   6142   6143     1   0.10969 276646.080000
   6142   6144     1   0.10969 276646.080000
   6145   6146     1   0.10969 276646.080000
   6145   6147     1   0.10969 276646.080000
   6150   6179     1   0.10304 312293.760000
   6151   6152     1   0.10910 283424.160000
   6151   6153     1   0.10910 283424.160000
   6154   6155     1   0.10910 283424.160000
   6154   6156     1   0.10910 283424.160000
   6157   6158     1   0.10910 283424.160000
   6157   6159     1   0.10910 283424.160000
   6160   6161     1   0.10969 276646.080000
   6160   6162     1   0.10969 276646.080000
   6163   6164     1   0.10969 276646.080000
   6163   6165     1   0.10969 276646.080000
   6166   6167     1   0.10969 276646.080000
   6166   6168     1   0.10969 276646.080000
   6169   6170     1   0.10969 276646.080000
   6169   6171     1   0.10969 276646.080000
   6172   6173     1   0.10969 276646.080000
   6172   6174     1   0.10969 276646.080000
   6175   6176     1   0.10969 276646.080000
   6175   6177     1   0.10969 276646.080000
   6180   6209     1   0.10304 312293.760000
   6181   6182     1   0.10910 283424.160000
   6181   6183     1   0.10910 283424.160000
   6184   6185     1   0.10910 283424.160000
   6184   6186     1   0.10910 283424.160000
   6187   6188     1   0.10910 283424.160000
   6187   6189     1   0.10910 283424.160000
   6190   6191     1   0.10969 276646.080000
   6190   6192     1   0.10969 276646.080000
   6193   6194     1   0.10969 276646.080000
   6193   6195     1   0.10969 276646.080000
   6196   6197     1   0.10969 276646.080000
   6196   6198     1   0.10969 276646.080000
   6199   6200     1   0.10969 276646.080000
   6199   6201     1   0.10969 276646.080000
   6202   6203     1   0.10969 276646.080000
   6202   6204     1   0.10969 276646.080000
   6205   6206     1   0.10969 276646.080000
   6205   6207     1   0.10969 276646.080000
   6210   6239     1   0.10304 312293.760000
   6211   6212     1   0.10910 283424.160000
   6211   6213     1   0.10910 283424.160000
   6214   6215     1   0.10910 283424.160000
   6214   6216     1   0.10910 283424.160000
   6217   6218     1   0.10910 283424.160000
   6217   6219     1   0.10910 283424.160000
   6220   6221     1   0.10969 276646.080000
   6220   6222     1   0.10969 276646.080000
   6223   6224     1   0.10969 276646.080000
   6223   6225     1   0.10969 276646.080000
   6226   6227     1   0.10969 276646.080000
   6226   6228     1   0.10969 276646.080000
   6229   6230     1   0.10969 276646.080000
   6229   6231     1   0.10969 276646.080000
   6232   6233     1   0.10969 276646.080000
   6232   6234     1   0.10969 276646.080000
   6235   6236     1   0.10969 276646.080000
   6235   6237     1   0.10969 276646.080000
   6240   6269     1   0.10304 312293.760000
   6241   6242     1   0.10910 283424.160000
   6241   6243     1   0.10910 283424.160000
   6244   6245     1   0.10910 283424.160000
   6244   6246     1   0.10910 283424.160000
   6247   6248     1   0.10910 283424.160000
   6247   6249     1   0.10910 283424.160000
   6250   6251     1   0.10969 276646.080000
   6250   6252     1   0.10969 276646.080000
   6253   6254     1   0.10969 276646.080000
   6253   6255     1   0.10969 276646.080000
   6256   6257     1   0.10969 276646.080000
   6256   6258     1   0.10969 276646.080000
   6259   6260     1   0.10969 276646.080000
   6259   6261     1   0.10969 276646.080000
   6262   6263     1   0.10969 276646.080000
   6262   6264     1   0.10969 276646.080000
   6265   6266     1   0.10969 276646.080000
   6265   6267     1   0.10969 276646.080000
   6270   6299     1   0.10304 312293.760000
   6271   6272     1   0.10910 283424.160000
   6271   6273     1   0.10910 283424.160000
   6274   6275     1   0.10910 283424.160000
   6274   6276     1   0.10910 283424.160000
   6277   6278     1   0.10910 283424.160000
   6277   6279     1   0.10910 283424.160000
   6280   6281     1   0.10969 276646.080000
   6280   6282     1   0.10969 276646.080000
   6283   6284     1   0.10969 276646.080000
   6283   6285     1   0.10969 276646.080000
   6286   6287     1   0.10969 276646.080000
   6286   6288     1   0.10969 276646.080000
   6289   6290     1   0.10969 276646.080000
   6289   6291     1   0.10969 276646.080000
   6292   6293     1   0.10969 276646.080000
   6292   6294     1   0.10969 276646.080000
   6295   6296     1   0.10969 276646.080000
   6295   6297     1   0.10969 276646.080000
   6300   6329     1   0.10304 312293.760000
   6301   6302     1   0.10910 283424.160000
   6301   6303     1   0.10910 283424.160000
   6304   6305     1   0.10910 283424.160000
   6304   6306     1   0.10910 283424.160000
   6307   6308     1   0.10910 283424.160000
   6307   6309     1   0.10910 283424.160000
   6310   6311     1   0.10969 276646.080000
   6310   6312     1   0.10969 276646.080000
   6313   6314     1   0.10969 276646.080000
   6313   6315     1   0.10969 276646.080000
   6316   6317     1   0.10969 276646.080000
   6316   6318     1   0.10969 276646.080000
   6319   6320     1   0.10969 276646.080000
   6319   6321     1   0.10969 276646.080000
   6322   6323     1   0.10969 276646.080000
   6322   6324     1   0.10969 276646.080000
   6325   6326     1   0.10969 276646.080000
   6325   6327     1   0.10969 276646.080000
   6330   6359     1   0.10304 312293.760000
   6331   6332     1   0.10910 283424.160000
   6331   6333     1   0.10910 283424.160000
   6334   6335     1   0.10910 283424.160000
   6334   6336     1   0.10910 283424.160000
   6337   6338     1   0.10910 283424.160000
   6337   6339     1   0.10910 283424.160000
   6340   6341     1   0.10969 276646.080000
   6340   6342     1   0.10969 276646.080000
   6343   6344     1   0.10969 276646.080000
   6343   6345     1   0.10969 276646.080000
   6346   6347     1   0.10969 276646.080000
   6346   6348     1   0.10969 276646.080000
   6349   6350     1   0.10969 276646.080000
   6349   6351     1   0.10969 276646.080000
   6352   6353     1   0.10969 276646.080000
   6352   6354     1   0.10969 276646.080000
   6355   6356     1   0.10969 276646.080000
   6355   6357     1   0.10969 276646.080000
   6360   6389     1   0.10304 312293.760000
   6361   6362     1   0.10910 283424.160000
   6361   6363     1   0.10910 283424.160000
   6364   6365     1   0.10910 283424.160000
   6364   6366     1   0.10910 283424.160000
   6367   6368     1   0.10910 283424.160000
   6367   6369     1   0.10910 283424.160000
   6370   6371     1   0.10969 276646.080000
   6370   6372     1   0.10969 276646.080000
   6373   6374     1   0.10969 276646.080000
   6373   6375     1   0.10969 276646.080000
   6376   6377     1   0.10969 276646.080000
   6376   6378     1   0.10969 276646.080000
   6379   6380     1   0.10969 276646.080000
   6379   6381     1   0.10969 276646.080000
   6382   6383     1   0.10969 276646.080000
   6382   6384     1   0.10969 276646.080000
   6385   6386     1   0.10969 276646.080000
   6385   6387     1   0.10969 276646.080000
   6390   6419     1   0.10304 312293.760000
   6391   6392     1   0.10910 283424.160000
   6391   6393     1   0.10910 283424.160000
   6394   6395     1   0.10910 283424.160000
   6394   6396     1   0.10910 283424.160000
   6397   6398     1   0.10910 283424.160000
   6397   6399     1   0.10910 283424.160000
   6400   6401     1   0.10969 276646.080000
   6400   6402     1   0.10969 276646.080000
   6403   6404     1   0.10969 276646.080000
   6403   6405     1   0.10969 276646.080000
   6406   6407     1   0.10969 276646.080000
   6406   6408     1   0.10969 276646.080000
   6409   6410     1   0.10969 276646.080000
   6409   6411     1   0.10969 276646.080000
   6412   6413     1   0.10969 276646.080000
   6412   6414     1   0.10969 276646.080000
   6415   6416     1   0.10969 276646.080000
   6415   6417     1   0.10969 276646.080000
   6420   6449     1   0.10304 312293.760000
   6421   6422     1   0.10910 283424.160000
   6421   6423     1   0.10910 283424.160000
   6424   6425     1   0.10910 283424.160000
   6424   6426     1   0.10910 283424.160000
   6427   6428     1   0.10910 283424.160000
   6427   6429     1   0.10910 283424.160000
   6430   6431     1   0.10969 276646.080000
   6430   6432     1   0.10969 276646.080000
   6433   6434     1   0.10969 276646.080000
   6433   6435     1   0.10969 276646.080000
   6436   6437     1   0.10969 276646.080000
   6436   6438     1   0.10969 276646.080000
   6439   6440     1   0.10969 276646.080000
   6439   6441     1   0.10969 276646.080000
   6442   6443     1   0.10969 276646.080000
   6442   6444     1   0.10969 276646.080000
   6445   6446     1   0.10969 276646.080000
   6445   6447     1   0.10969 276646.080000
   6450   6479     1   0.10304 312293.760000
   6451   6452     1   0.10910 283424.160000
   6451   6453     1   0.10910 283424.160000
   6454   6455     1   0.10910 283424.160000
   6454   6456     1   0.10910 283424.160000
   6457   6458     1   0.10910 283424.160000
   6457   6459     1   0.10910 283424.160000
   6460   6461     1   0.10969 276646.080000
   6460   6462     1   0.10969 276646.080000
   6463   6464     1   0.10969 276646.080000
   6463   6465     1   0.10969 276646.080000
   6466   6467     1   0.10969 276646.080000
   6466   6468     1   0.10969 276646.080000
   6469   6470     1   0.10969 276646.080000
   6469   6471     1   0.10969 276646.080000
   6472   6473     1   0.10969 276646.080000
   6472   6474     1   0.10969 276646.080000
   6475   6476     1   0.10969 276646.080000
   6475   6477     1   0.10969 276646.080000
   6480   6509     1   0.10304 312293.760000
   6481   6482     1   0.10910 283424.160000
   6481   6483     1   0.10910 283424.160000
   6484   6485     1   0.10910 283424.160000
   6484   6486     1   0.10910 283424.160000
   6487   6488     1   0.10910 283424.160000
   6487   6489     1   0.10910 283424.160000
   6490   6491     1   0.10969 276646.080000
   6490   6492     1   0.10969 276646.080000
   6493   6494     1   0.10969 276646.080000
   6493   6495     1   0.10969 276646.080000
   6496   6497     1   0.10969 276646.080000
   6496   6498     1   0.10969 276646.080000
   6499   6500     1   0.10969 276646.080000
   6499   6501     1   0.10969 276646.080000
   6502   6503     1   0.10969 276646.080000
   6502   6504     1   0.10969 276646.080000
   6505   6506     1   0.10969 276646.080000
   6505   6507     1   0.10969 276646.080000
   6510   6539     1   0.10304 312293.760000
   6511   6512     1   0.10910 283424.160000
   6511   6513     1   0.10910 283424.160000
   6514   6515     1   0.10910 283424.160000
   6514   6516     1   0.10910 283424.160000
   6517   6518     1   0.10910 283424.160000
   6517   6519     1   0.10910 283424.160000
   6520   6521     1   0.10969 276646.080000
   6520   6522     1   0.10969 276646.080000
   6523   6524     1   0.10969 276646.080000
   6523   6525     1   0.10969 276646.080000
   6526   6527     1   0.10969 276646.080000
   6526   6528     1   0.10969 276646.080000
   6529   6530     1   0.10969 276646.080000
   6529   6531     1   0.10969 276646.080000
   6532   6533     1   0.10969 276646.080000
   6532   6534     1   0.10969 276646.080000
   6535   6536     1   0.10969 276646.080000
   6535   6537     1   0.10969 276646.080000
   6540   6569     1   0.10304 312293.760000
   6541   6542     1   0.10910 283424.160000
   6541   6543     1   0.10910 283424.160000
   6544   6545     1   0.10910 283424.160000
   6544   6546     1   0.10910 283424.160000
   6547   6548     1   0.10910 283424.160000
   6547   6549     1   0.10910 283424.160000
   6550   6551     1   0.10969 276646.080000
   6550   6552     1   0.10969 276646.080000
   6553   6554     1   0.10969 276646.080000
   6553   6555     1   0.10969 276646.080000
   6556   6557     1   0.10969 276646.080000
   6556   6558     1   0.10969 276646.080000
   6559   6560     1   0.10969 276646.080000
   6559   6561     1   0.10969 276646.080000
   6562   6563     1   0.10969 276646.080000
   6562   6564     1   0.10969 276646.080000
   6565   6566     1   0.10969 276646.080000
   6565   6567     1   0.10969 276646.080000
   6570   6599     1   0.10304 312293.760000
   6571   6572     1   0.10910 283424.160000
   6571   6573     1   0.10910 283424.160000
   6574   6575     1   0.10910 283424.160000
   6574   6576     1   0.10910 283424.160000
   6577   6578     1   0.10910 283424.160000
   6577   6579     1   0.10910 283424.160000
   6580   6581     1   0.10969 276646.080000
   6580   6582     1   0.10969 276646.080000
   6583   6584     1   0.10969 276646.080000
   6583   6585     1   0.10969 276646.080000
   6586   6587     1   0.10969 276646.080000
   6586   6588     1   0.10969 276646.080000
   6589   6590     1   0.10969 276646.080000
   6589   6591     1   0.10969 276646.080000
   6592   6593     1   0.10969 276646.080000
   6592   6594     1   0.10969 276646.080000
   6595   6596     1   0.10969 276646.080000
   6595   6597     1   0.10969 276646.080000
   6600   6629     1   0.10304 312293.760000
   6601   6602     1   0.10910 283424.160000
   6601   6603     1   0.10910 283424.160000
   6604   6605     1   0.10910 283424.160000
   6604   6606     1   0.10910 283424.160000
   6607   6608     1   0.10910 283424.160000
   6607   6609     1   0.10910 283424.160000
   6610   6611     1   0.10969 276646.080000
   6610   6612     1   0.10969 276646.080000
   6613   6614     1   0.10969 276646.080000
   6613   6615     1   0.10969 276646.080000
   6616   6617     1   0.10969 276646.080000
   6616   6618     1   0.10969 276646.080000
   6619   6620     1   0.10969 276646.080000
   6619   6621     1   0.10969 276646.080000
   6622   6623     1   0.10969 276646.080000
   6622   6624     1   0.10969 276646.080000
   6625   6626     1   0.10969 276646.080000
   6625   6627     1   0.10969 276646.080000
   6630   6659     1   0.10304 312293.760000
   6631   6632     1   0.10910 283424.160000
   6631   6633     1   0.10910 283424.160000
   6634   6635     1   0.10910 283424.160000
   6634   6636     1   0.10910 283424.160000
   6637   6638     1   0.10910 283424.160000
   6637   6639     1   0.10910 283424.160000
   6640   6641     1   0.10969 276646.080000
   6640   6642     1   0.10969 276646.080000
   6643   6644     1   0.10969 276646.080000
   6643   6645     1   0.10969 276646.080000
   6646   6647     1   0.10969 276646.080000
   6646   6648     1   0.10969 276646.080000
   6649   6650     1   0.10969 276646.080000
   6649   6651     1   0.10969 276646.080000
   6652   6653     1   0.10969 276646.080000
   6652   6654     1   0.10969 276646.080000
   6655   6656     1   0.10969 276646.080000
   6655   6657     1   0.10969 276646.080000
   6660   6689     1   0.10304 312293.760000
   6661   6662     1   0.10910 283424.160000
   6661   6663     1   0.10910 283424.160000
   6664   6665     1   0.10910 283424.160000
   6664   6666     1   0.10910 283424.160000
   6667   6668     1   0.10910 283424.160000
   6667   6669     1   0.10910 283424.160000
   6670   6671     1   0.10969 276646.080000
   6670   6672     1   0.10969 276646.080000
   6673   6674     1   0.10969 276646.080000
   6673   6675     1   0.10969 276646.080000
   6676   6677     1   0.10969 276646.080000
   6676   6678     1   0.10969 276646.080000
   6679   6680     1   0.10969 276646.080000
   6679   6681     1   0.10969 276646.080000
   6682   6683     1   0.10969 276646.080000
   6682   6684     1   0.10969 276646.080000
   6685   6686     1   0.10969 276646.080000
   6685   6687     1   0.10969 276646.080000
   6690   6719     1   0.10304 312293.760000
   6691   6692     1   0.10910 283424.160000
   6691   6693     1   0.10910 283424.160000
   6694   6695     1   0.10910 283424.160000
   6694   6696     1   0.10910 283424.160000
   6697   6698     1   0.10910 283424.160000
   6697   6699     1   0.10910 283424.160000
   6700   6701     1   0.10969 276646.080000
   6700   6702     1   0.10969 276646.080000
   6703   6704     1   0.10969 276646.080000
   6703   6705     1   0.10969 276646.080000
   6706   6707     1   0.10969 276646.080000
   6706   6708     1   0.10969 276646.080000
   6709   6710     1   0.10969 276646.080000
   6709   6711     1   0.10969 276646.080000
   6712   6713     1   0.10969 276646.080000
   6712   6714     1   0.10969 276646.080000
   6715   6716     1   0.10969 276646.080000
   6715   6717     1   0.10969 276646.080000
   6720   6749     1   0.10304 312293.760000
   6721   6722     1   0.10910 283424.160000
   6721   6723     1   0.10910 283424.160000
   6724   6725     1   0.10910 283424.160000
   6724   6726     1   0.10910 283424.160000
   6727   6728     1   0.10910 283424.160000
   6727   6729     1   0.10910 283424.160000
   6730   6731     1   0.10969 276646.080000
   6730   6732     1   0.10969 276646.080000
   6733   6734     1   0.10969 276646.080000
   6733   6735     1   0.10969 276646.080000
   6736   6737     1   0.10969 276646.080000
   6736   6738     1   0.10969 276646.080000
   6739   6740     1   0.10969 276646.080000
   6739   6741     1   0.10969 276646.080000
   6742   6743     1   0.10969 276646.080000
   6742   6744     1   0.10969 276646.080000
   6745   6746     1   0.10969 276646.080000
   6745   6747     1   0.10969 276646.080000
   6750   6779     1   0.10304 312293.760000
   6751   6752     1   0.10910 283424.160000
   6751   6753     1   0.10910 283424.160000
   6754   6755     1   0.10910 283424.160000
   6754   6756     1   0.10910 283424.160000
   6757   6758     1   0.10910 283424.160000
   6757   6759     1   0.10910 283424.160000
   6760   6761     1   0.10969 276646.080000
   6760   6762     1   0.10969 276646.080000
   6763   6764     1   0.10969 276646.080000
   6763   6765     1   0.10969 276646.080000
   6766   6767     1   0.10969 276646.080000
   6766   6768     1   0.10969 276646.080000
   6769   6770     1   0.10969 276646.080000
   6769   6771     1   0.10969 276646.080000
   6772   6773     1   0.10969 276646.080000
   6772   6774     1   0.10969 276646.080000
   6775   6776     1   0.10969 276646.080000
   6775   6777     1   0.10969 276646.080000
   6780   6809     1   0.10304 312293.760000
   6781   6782     1   0.10910 283424.160000
   6781   6783     1   0.10910 283424.160000
   6784   6785     1   0.10910 283424.160000
   6784   6786     1   0.10910 283424.160000
   6787   6788     1   0.10910 283424.160000
   6787   6789     1   0.10910 283424.160000
   6790   6791     1   0.10969 276646.080000
   6790   6792     1   0.10969 276646.080000
   6793   6794     1   0.10969 276646.080000
   6793   6795     1   0.10969 276646.080000
   6796   6797     1   0.10969 276646.080000
   6796   6798     1   0.10969 276646.080000
   6799   6800     1   0.10969 276646.080000
   6799   6801     1   0.10969 276646.080000
   6802   6803     1   0.10969 276646.080000
   6802   6804     1   0.10969 276646.080000
   6805   6806     1   0.10969 276646.080000
   6805   6807     1   0.10969 276646.080000
   6810   6839     1   0.10304 312293.760000
   6811   6812     1   0.10910 283424.160000
   6811   6813     1   0.10910 283424.160000
   6814   6815     1   0.10910 283424.160000
   6814   6816     1   0.10910 283424.160000
   6817   6818     1   0.10910 283424.160000
   6817   6819     1   0.10910 283424.160000
   6820   6821     1   0.10969 276646.080000
   6820   6822     1   0.10969 276646.080000
   6823   6824     1   0.10969 276646.080000
   6823   6825     1   0.10969 276646.080000
   6826   6827     1   0.10969 276646.080000
   6826   6828     1   0.10969 276646.080000
   6829   6830     1   0.10969 276646.080000
   6829   6831     1   0.10969 276646.080000
   6832   6833     1   0.10969 276646.080000
   6832   6834     1   0.10969 276646.080000
   6835   6836     1   0.10969 276646.080000
   6835   6837     1   0.10969 276646.080000
   6840   6869     1   0.10304 312293.760000
   6841   6842     1   0.10910 283424.160000
   6841   6843     1   0.10910 283424.160000
   6844   6845     1   0.10910 283424.160000
   6844   6846     1   0.10910 283424.160000
   6847   6848     1   0.10910 283424.160000
   6847   6849     1   0.10910 283424.160000
   6850   6851     1   0.10969 276646.080000
   6850   6852     1   0.10969 276646.080000
   6853   6854     1   0.10969 276646.080000
   6853   6855     1   0.10969 276646.080000
   6856   6857     1   0.10969 276646.080000
   6856   6858     1   0.10969 276646.080000
   6859   6860     1   0.10969 276646.080000
   6859   6861     1   0.10969 276646.080000
   6862   6863     1   0.10969 276646.080000
   6862   6864     1   0.10969 276646.080000
   6865   6866     1   0.10969 276646.080000
   6865   6867     1   0.10969 276646.080000
   6870   6899     1   0.10304 312293.760000
   6871   6872     1   0.10910 283424.160000
   6871   6873     1   0.10910 283424.160000
   6874   6875     1   0.10910 283424.160000
   6874   6876     1   0.10910 283424.160000
   6877   6878     1   0.10910 283424.160000
   6877   6879     1   0.10910 283424.160000
   6880   6881     1   0.10969 276646.080000
   6880   6882     1   0.10969 276646.080000
   6883   6884     1   0.10969 276646.080000
   6883   6885     1   0.10969 276646.080000
   6886   6887     1   0.10969 276646.080000
   6886   6888     1   0.10969 276646.080000
   6889   6890     1   0.10969 276646.080000
   6889   6891     1   0.10969 276646.080000
   6892   6893     1   0.10969 276646.080000
   6892   6894     1   0.10969 276646.080000
   6895   6896     1   0.10969 276646.080000
   6895   6897     1   0.10969 276646.080000
   6900   6929     1   0.10304 312293.760000
   6901   6902     1   0.10910 283424.160000
   6901   6903     1   0.10910 283424.160000
   6904   6905     1   0.10910 283424.160000
   6904   6906     1   0.10910 283424.160000
   6907   6908     1   0.10910 283424.160000
   6907   6909     1   0.10910 283424.160000
   6910   6911     1   0.10969 276646.080000
   6910   6912     1   0.10969 276646.080000
   6913   6914     1   0.10969 276646.080000
   6913   6915     1   0.10969 276646.080000
   6916   6917     1   0.10969 276646.080000
   6916   6918     1   0.10969 276646.080000
   6919   6920     1   0.10969 276646.080000
   6919   6921     1   0.10969 276646.080000
   6922   6923     1   0.10969 276646.080000
   6922   6924     1   0.10969 276646.080000
   6925   6926     1   0.10969 276646.080000
   6925   6927     1   0.10969 276646.080000
   6930   6959     1   0.10304 312293.760000
   6931   6932     1   0.10910 283424.160000
   6931   6933     1   0.10910 283424.160000
   6934   6935     1   0.10910 283424.160000
   6934   6936     1   0.10910 283424.160000
   6937   6938     1   0.10910 283424.160000
   6937   6939     1   0.10910 283424.160000
   6940   6941     1   0.10969 276646.080000
   6940   6942     1   0.10969 276646.080000
   6943   6944     1   0.10969 276646.080000
   6943   6945     1   0.10969 276646.080000
   6946   6947     1   0.10969 276646.080000
   6946   6948     1   0.10969 276646.080000
   6949   6950     1   0.10969 276646.080000
   6949   6951     1   0.10969 276646.080000
   6952   6953     1   0.10969 276646.080000
   6952   6954     1   0.10969 276646.080000
   6955   6956     1   0.10969 276646.080000
   6955   6957     1   0.10969 276646.080000
   6960   6989     1   0.10304 312293.760000
   6961   6962     1   0.10910 283424.160000
   6961   6963     1   0.10910 283424.160000
   6964   6965     1   0.10910 283424.160000
   6964   6966     1   0.10910 283424.160000
   6967   6968     1   0.10910 283424.160000
   6967   6969     1   0.10910 283424.160000
   6970   6971     1   0.10969 276646.080000
   6970   6972     1   0.10969 276646.080000
   6973   6974     1   0.10969 276646.080000
   6973   6975     1   0.10969 276646.080000
   6976   6977     1   0.10969 276646.080000
   6976   6978     1   0.10969 276646.080000
   6979   6980     1   0.10969 276646.080000
   6979   6981     1   0.10969 276646.080000
   6982   6983     1   0.10969 276646.080000
   6982   6984     1   0.10969 276646.080000
   6985   6986     1   0.10969 276646.080000
   6985   6987     1   0.10969 276646.080000
   6990   7019     1   0.10304 312293.760000
   6991   6992     1   0.10910 283424.160000
   6991   6993     1   0.10910 283424.160000
   6994   6995     1   0.10910 283424.160000
   6994   6996     1   0.10910 283424.160000
   6997   6998     1   0.10910 283424.160000
   6997   6999     1   0.10910 283424.160000
   7000   7001     1   0.10969 276646.080000
   7000   7002     1   0.10969 276646.080000
   7003   7004     1   0.10969 276646.080000
   7003   7005     1   0.10969 276646.080000
   7006   7007     1   0.10969 276646.080000
   7006   7008     1   0.10969 276646.080000
   7009   7010     1   0.10969 276646.080000
   7009   7011     1   0.10969 276646.080000
   7012   7013     1   0.10969 276646.080000
   7012   7014     1   0.10969 276646.080000
   7015   7016     1   0.10969 276646.080000
   7015   7017     1   0.10969 276646.080000
   7020   7049     1   0.10304 312293.760000
   7021   7022     1   0.10910 283424.160000
   7021   7023     1   0.10910 283424.160000
   7024   7025     1   0.10910 283424.160000
   7024   7026     1   0.10910 283424.160000
   7027   7028     1   0.10910 283424.160000
   7027   7029     1   0.10910 283424.160000
   7030   7031     1   0.10969 276646.080000
   7030   7032     1   0.10969 276646.080000
   7033   7034     1   0.10969 276646.080000
   7033   7035     1   0.10969 276646.080000
   7036   7037     1   0.10969 276646.080000
   7036   7038     1   0.10969 276646.080000
   7039   7040     1   0.10969 276646.080000
   7039   7041     1   0.10969 276646.080000
   7042   7043     1   0.10969 276646.080000
   7042   7044     1   0.10969 276646.080000
   7045   7046     1   0.10969 276646.080000
   7045   7047     1   0.10969 276646.080000
   7050   7079     1   0.10304 312293.760000
   7051   7052     1   0.10910 283424.160000
   7051   7053     1   0.10910 283424.160000
   7054   7055     1   0.10910 283424.160000
   7054   7056     1   0.10910 283424.160000
   7057   7058     1   0.10910 283424.160000
   7057   7059     1   0.10910 283424.160000
   7060   7061     1   0.10969 276646.080000
   7060   7062     1   0.10969 276646.080000
   7063   7064     1   0.10969 276646.080000
   7063   7065     1   0.10969 276646.080000
   7066   7067     1   0.10969 276646.080000
   7066   7068     1   0.10969 276646.080000
   7069   7070     1   0.10969 276646.080000
   7069   7071     1   0.10969 276646.080000
   7072   7073     1   0.10969 276646.080000
   7072   7074     1   0.10969 276646.080000
   7075   7076     1   0.10969 276646.080000
   7075   7077     1   0.10969 276646.080000
   7080   7109     1   0.10304 312293.760000
   7081   7082     1   0.10910 283424.160000
   7081   7083     1   0.10910 283424.160000
   7084   7085     1   0.10910 283424.160000
   7084   7086     1   0.10910 283424.160000
   7087   7088     1   0.10910 283424.160000
   7087   7089     1   0.10910 283424.160000
   7090   7091     1   0.10969 276646.080000
   7090   7092     1   0.10969 276646.080000
   7093   7094     1   0.10969 276646.080000
   7093   7095     1   0.10969 276646.080000
   7096   7097     1   0.10969 276646.080000
   7096   7098     1   0.10969 276646.080000
   7099   7100     1   0.10969 276646.080000
   7099   7101     1   0.10969 276646.080000
   7102   7103     1   0.10969 276646.080000
   7102   7104     1   0.10969 276646.080000
   7105   7106     1   0.10969 276646.080000
   7105   7107     1   0.10969 276646.080000
   7110   7139     1   0.10304 312293.760000
   7111   7112     1   0.10910 283424.160000
   7111   7113     1   0.10910 283424.160000
   7114   7115     1   0.10910 283424.160000
   7114   7116     1   0.10910 283424.160000
   7117   7118     1   0.10910 283424.160000
   7117   7119     1   0.10910 283424.160000
   7120   7121     1   0.10969 276646.080000
   7120   7122     1   0.10969 276646.080000
   7123   7124     1   0.10969 276646.080000
   7123   7125     1   0.10969 276646.080000
   7126   7127     1   0.10969 276646.080000
   7126   7128     1   0.10969 276646.080000
   7129   7130     1   0.10969 276646.080000
   7129   7131     1   0.10969 276646.080000
   7132   7133     1   0.10969 276646.080000
   7132   7134     1   0.10969 276646.080000
   7135   7136     1   0.10969 276646.080000
   7135   7137     1   0.10969 276646.080000
   7140   7169     1   0.10304 312293.760000
   7141   7142     1   0.10910 283424.160000
   7141   7143     1   0.10910 283424.160000
   7144   7145     1   0.10910 283424.160000
   7144   7146     1   0.10910 283424.160000
   7147   7148     1   0.10910 283424.160000
   7147   7149     1   0.10910 283424.160000
   7150   7151     1   0.10969 276646.080000
   7150   7152     1   0.10969 276646.080000
   7153   7154     1   0.10969 276646.080000
   7153   7155     1   0.10969 276646.080000
   7156   7157     1   0.10969 276646.080000
   7156   7158     1   0.10969 276646.080000
   7159   7160     1   0.10969 276646.080000
   7159   7161     1   0.10969 276646.080000
   7162   7163     1   0.10969 276646.080000
   7162   7164     1   0.10969 276646.080000
   7165   7166     1   0.10969 276646.080000
   7165   7167     1   0.10969 276646.080000
   7170   7199     1   0.10304 312293.760000
   7171   7172     1   0.10910 283424.160000
   7171   7173     1   0.10910 283424.160000
   7174   7175     1   0.10910 283424.160000
   7174   7176     1   0.10910 283424.160000
   7177   7178     1   0.10910 283424.160000
   7177   7179     1   0.10910 283424.160000
   7180   7181     1   0.10969 276646.080000
   7180   7182     1   0.10969 276646.080000
   7183   7184     1   0.10969 276646.080000
   7183   7185     1   0.10969 276646.080000
   7186   7187     1   0.10969 276646.080000
   7186   7188     1   0.10969 276646.080000
   7189   7190     1   0.10969 276646.080000
   7189   7191     1   0.10969 276646.080000
   7192   7193     1   0.10969 276646.080000
   7192   7194     1   0.10969 276646.080000
   7195   7196     1   0.10969 276646.080000
   7195   7197     1   0.10969 276646.080000
   7200   7229     1   0.10304 312293.760000
   7201   7202     1   0.10910 283424.160000
   7201   7203     1   0.10910 283424.160000
   7204   7205     1   0.10910 283424.160000
   7204   7206     1   0.10910 283424.160000
   7207   7208     1   0.10910 283424.160000
   7207   7209     1   0.10910 283424.160000
   7210   7211     1   0.10969 276646.080000
   7210   7212     1   0.10969 276646.080000
   7213   7214     1   0.10969 276646.080000
   7213   7215     1   0.10969 276646.080000
   7216   7217     1   0.10969 276646.080000
   7216   7218     1   0.10969 276646.080000
   7219   7220     1   0.10969 276646.080000
   7219   7221     1   0.10969 276646.080000
   7222   7223     1   0.10969 276646.080000
   7222   7224     1   0.10969 276646.080000
   7225   7226     1   0.10969 276646.080000
   7225   7227     1   0.10969 276646.080000
   7230   7259     1   0.10304 312293.760000
   7231   7232     1   0.10910 283424.160000
   7231   7233     1   0.10910 283424.160000
   7234   7235     1   0.10910 283424.160000
   7234   7236     1   0.10910 283424.160000
   7237   7238     1   0.10910 283424.160000
   7237   7239     1   0.10910 283424.160000
   7240   7241     1   0.10969 276646.080000
   7240   7242     1   0.10969 276646.080000
   7243   7244     1   0.10969 276646.080000
   7243   7245     1   0.10969 276646.080000
   7246   7247     1   0.10969 276646.080000
   7246   7248     1   0.10969 276646.080000
   7249   7250     1   0.10969 276646.080000
   7249   7251     1   0.10969 276646.080000
   7252   7253     1   0.10969 276646.080000
   7252   7254     1   0.10969 276646.080000
   7255   7256     1   0.10969 276646.080000
   7255   7257     1   0.10969 276646.080000
   7260   7289     1   0.10304 312293.760000
   7261   7262     1   0.10910 283424.160000
   7261   7263     1   0.10910 283424.160000
   7264   7265     1   0.10910 283424.160000
   7264   7266     1   0.10910 283424.160000
   7267   7268     1   0.10910 283424.160000
   7267   7269     1   0.10910 283424.160000
   7270   7271     1   0.10969 276646.080000
   7270   7272     1   0.10969 276646.080000
   7273   7274     1   0.10969 276646.080000
   7273   7275     1   0.10969 276646.080000
   7276   7277     1   0.10969 276646.080000
   7276   7278     1   0.10969 276646.080000
   7279   7280     1   0.10969 276646.080000
   7279   7281     1   0.10969 276646.080000
   7282   7283     1   0.10969 276646.080000
   7282   7284     1   0.10969 276646.080000
   7285   7286     1   0.10969 276646.080000
   7285   7287     1   0.10969 276646.080000
   7290   7319     1   0.10304 312293.760000
   7291   7292     1   0.10910 283424.160000
   7291   7293     1   0.10910 283424.160000
   7294   7295     1   0.10910 283424.160000
   7294   7296     1   0.10910 283424.160000
   7297   7298     1   0.10910 283424.160000
   7297   7299     1   0.10910 283424.160000
   7300   7301     1   0.10969 276646.080000
   7300   7302     1   0.10969 276646.080000
   7303   7304     1   0.10969 276646.080000
   7303   7305     1   0.10969 276646.080000
   7306   7307     1   0.10969 276646.080000
   7306   7308     1   0.10969 276646.080000
   7309   7310     1   0.10969 276646.080000
   7309   7311     1   0.10969 276646.080000
   7312   7313     1   0.10969 276646.080000
   7312   7314     1   0.10969 276646.080000
   7315   7316     1   0.10969 276646.080000
   7315   7317     1   0.10969 276646.080000
   7320   7349     1   0.10304 312293.760000
   7321   7322     1   0.10910 283424.160000
   7321   7323     1   0.10910 283424.160000
   7324   7325     1   0.10910 283424.160000
   7324   7326     1   0.10910 283424.160000
   7327   7328     1   0.10910 283424.160000
   7327   7329     1   0.10910 283424.160000
   7330   7331     1   0.10969 276646.080000
   7330   7332     1   0.10969 276646.080000
   7333   7334     1   0.10969 276646.080000
   7333   7335     1   0.10969 276646.080000
   7336   7337     1   0.10969 276646.080000
   7336   7338     1   0.10969 276646.080000
   7339   7340     1   0.10969 276646.080000
   7339   7341     1   0.10969 276646.080000
   7342   7343     1   0.10969 276646.080000
   7342   7344     1   0.10969 276646.080000
   7345   7346     1   0.10969 276646.080000
   7345   7347     1   0.10969 276646.080000
   7350   7379     1   0.10304 312293.760000
   7351   7352     1   0.10910 283424.160000
   7351   7353     1   0.10910 283424.160000
   7354   7355     1   0.10910 283424.160000
   7354   7356     1   0.10910 283424.160000
   7357   7358     1   0.10910 283424.160000
   7357   7359     1   0.10910 283424.160000
   7360   7361     1   0.10969 276646.080000
   7360   7362     1   0.10969 276646.080000
   7363   7364     1   0.10969 276646.080000
   7363   7365     1   0.10969 276646.080000
   7366   7367     1   0.10969 276646.080000
   7366   7368     1   0.10969 276646.080000
   7369   7370     1   0.10969 276646.080000
   7369   7371     1   0.10969 276646.080000
   7372   7373     1   0.10969 276646.080000
   7372   7374     1   0.10969 276646.080000
   7375   7376     1   0.10969 276646.080000
   7375   7377     1   0.10969 276646.080000
   7380   7409     1   0.10304 312293.760000
   7381   7382     1   0.10910 283424.160000
   7381   7383     1   0.10910 283424.160000
   7384   7385     1   0.10910 283424.160000
   7384   7386     1   0.10910 283424.160000
   7387   7388     1   0.10910 283424.160000
   7387   7389     1   0.10910 283424.160000
   7390   7391     1   0.10969 276646.080000
   7390   7392     1   0.10969 276646.080000
   7393   7394     1   0.10969 276646.080000
   7393   7395     1   0.10969 276646.080000
   7396   7397     1   0.10969 276646.080000
   7396   7398     1   0.10969 276646.080000
   7399   7400     1   0.10969 276646.080000
   7399   7401     1   0.10969 276646.080000
   7402   7403     1   0.10969 276646.080000
   7402   7404     1   0.10969 276646.080000
   7405   7406     1   0.10969 276646.080000
   7405   7407     1   0.10969 276646.080000
   7410   7439     1   0.10304 312293.760000
   7411   7412     1   0.10910 283424.160000
   7411   7413     1   0.10910 283424.160000
   7414   7415     1   0.10910 283424.160000
   7414   7416     1   0.10910 283424.160000
   7417   7418     1   0.10910 283424.160000
   7417   7419     1   0.10910 283424.160000
   7420   7421     1   0.10969 276646.080000
   7420   7422     1   0.10969 276646.080000
   7423   7424     1   0.10969 276646.080000
   7423   7425     1   0.10969 276646.080000
   7426   7427     1   0.10969 276646.080000
   7426   7428     1   0.10969 276646.080000
   7429   7430     1   0.10969 276646.080000
   7429   7431     1   0.10969 276646.080000
   7432   7433     1   0.10969 276646.080000
   7432   7434     1   0.10969 276646.080000
   7435   7436     1   0.10969 276646.080000
   7435   7437     1   0.10969 276646.080000
   7440   7469     1   0.10304 312293.760000
   7441   7442     1   0.10910 283424.160000
   7441   7443     1   0.10910 283424.160000
   7444   7445     1   0.10910 283424.160000
   7444   7446     1   0.10910 283424.160000
   7447   7448     1   0.10910 283424.160000
   7447   7449     1   0.10910 283424.160000
   7450   7451     1   0.10969 276646.080000
   7450   7452     1   0.10969 276646.080000
   7453   7454     1   0.10969 276646.080000
   7453   7455     1   0.10969 276646.080000
   7456   7457     1   0.10969 276646.080000
   7456   7458     1   0.10969 276646.080000
   7459   7460     1   0.10969 276646.080000
   7459   7461     1   0.10969 276646.080000
   7462   7463     1   0.10969 276646.080000
   7462   7464     1   0.10969 276646.080000
   7465   7466     1   0.10969 276646.080000
   7465   7467     1   0.10969 276646.080000
   7470   7499     1   0.10304 312293.760000
   7471   7472     1   0.10910 283424.160000
   7471   7473     1   0.10910 283424.160000
   7474   7475     1   0.10910 283424.160000
   7474   7476     1   0.10910 283424.160000
   7477   7478     1   0.10910 283424.160000
   7477   7479     1   0.10910 283424.160000
   7480   7481     1   0.10969 276646.080000
   7480   7482     1   0.10969 276646.080000
   7483   7484     1   0.10969 276646.080000
   7483   7485     1   0.10969 276646.080000
   7486   7487     1   0.10969 276646.080000
   7486   7488     1   0.10969 276646.080000
   7489   7490     1   0.10969 276646.080000
   7489   7491     1   0.10969 276646.080000
   7492   7493     1   0.10969 276646.080000
   7492   7494     1   0.10969 276646.080000
   7495   7496     1   0.10969 276646.080000
   7495   7497     1   0.10969 276646.080000
   7500   7529     1   0.10304 312293.760000
   7501   7502     1   0.10910 283424.160000
   7501   7503     1   0.10910 283424.160000
   7504   7505     1   0.10910 283424.160000
   7504   7506     1   0.10910 283424.160000
   7507   7508     1   0.10910 283424.160000
   7507   7509     1   0.10910 283424.160000
   7510   7511     1   0.10969 276646.080000
   7510   7512     1   0.10969 276646.080000
   7513   7514     1   0.10969 276646.080000
   7513   7515     1   0.10969 276646.080000
   7516   7517     1   0.10969 276646.080000
   7516   7518     1   0.10969 276646.080000
   7519   7520     1   0.10969 276646.080000
   7519   7521     1   0.10969 276646.080000
   7522   7523     1   0.10969 276646.080000
   7522   7524     1   0.10969 276646.080000
   7525   7526     1   0.10969 276646.080000
   7525   7527     1   0.10969 276646.080000
   7530   7559     1   0.10304 312293.760000
   7531   7532     1   0.10910 283424.160000
   7531   7533     1   0.10910 283424.160000
   7534   7535     1   0.10910 283424.160000
   7534   7536     1   0.10910 283424.160000
   7537   7538     1   0.10910 283424.160000
   7537   7539     1   0.10910 283424.160000
   7540   7541     1   0.10969 276646.080000
   7540   7542     1   0.10969 276646.080000
   7543   7544     1   0.10969 276646.080000
   7543   7545     1   0.10969 276646.080000
   7546   7547     1   0.10969 276646.080000
   7546   7548     1   0.10969 276646.080000
   7549   7550     1   0.10969 276646.080000
   7549   7551     1   0.10969 276646.080000
   7552   7553     1   0.10969 276646.080000
   7552   7554     1   0.10969 276646.080000
   7555   7556     1   0.10969 276646.080000
   7555   7557     1   0.10969 276646.080000
   7560   7589     1   0.10304 312293.760000
   7561   7562     1   0.10910 283424.160000
   7561   7563     1   0.10910 283424.160000
   7564   7565     1   0.10910 283424.160000
   7564   7566     1   0.10910 283424.160000
   7567   7568     1   0.10910 283424.160000
   7567   7569     1   0.10910 283424.160000
   7570   7571     1   0.10969 276646.080000
   7570   7572     1   0.10969 276646.080000
   7573   7574     1   0.10969 276646.080000
   7573   7575     1   0.10969 276646.080000
   7576   7577     1   0.10969 276646.080000
   7576   7578     1   0.10969 276646.080000
   7579   7580     1   0.10969 276646.080000
   7579   7581     1   0.10969 276646.080000
   7582   7583     1   0.10969 276646.080000
   7582   7584     1   0.10969 276646.080000
   7585   7586     1   0.10969 276646.080000
   7585   7587     1   0.10969 276646.080000
   7590   7619     1   0.10304 312293.760000
   7591   7592     1   0.10910 283424.160000
   7591   7593     1   0.10910 283424.160000
   7594   7595     1   0.10910 283424.160000
   7594   7596     1   0.10910 283424.160000
   7597   7598     1   0.10910 283424.160000
   7597   7599     1   0.10910 283424.160000
   7600   7601     1   0.10969 276646.080000
   7600   7602     1   0.10969 276646.080000
   7603   7604     1   0.10969 276646.080000
   7603   7605     1   0.10969 276646.080000
   7606   7607     1   0.10969 276646.080000
   7606   7608     1   0.10969 276646.080000
   7609   7610     1   0.10969 276646.080000
   7609   7611     1   0.10969 276646.080000
   7612   7613     1   0.10969 276646.080000
   7612   7614     1   0.10969 276646.080000
   7615   7616     1   0.10969 276646.080000
   7615   7617     1   0.10969 276646.080000
   7620   7622     1   0.10969 276646.080000
   7621   7623     1   0.10969 276646.080000
   7624   7628     1   0.10969 276646.080000
   7625   7627     1   0.10969 276646.080000
   7626   7629     1   0.10961 277566.560000
   7631   7637     1   0.09730 310787.520000
   7632   7635     1   0.09730 310787.520000
   7633   7636     1   0.09730 310787.520000
   7634   7638     1   0.10969 276646.080000
   7634   7639     1   0.10969 276646.080000
   7640   7641     1   0.09730 310787.520000
   7643   7645     1   0.10969 276646.080000
   7644   7646     1   0.10969 276646.080000
   7647   7651     1   0.10969 276646.080000
   7648   7650     1   0.10969 276646.080000
   7649   7652     1   0.10961 277566.560000
   7654   7660     1   0.09730 310787.520000
   7655   7658     1   0.09730 310787.520000
   7656   7659     1   0.09730 310787.520000
   7657   7661     1   0.10969 276646.080000
   7657   7662     1   0.10969 276646.080000
   7663   7664     1   0.09730 310787.520000
   7666   7668     1   0.10969 276646.080000
   7667   7669     1   0.10969 276646.080000
   7670   7674     1   0.10969 276646.080000
   7671   7673     1   0.10969 276646.080000
   7672   7675     1   0.10961 277566.560000
   7677   7683     1   0.09730 310787.520000
   7678   7681     1   0.09730 310787.520000
   7679   7682     1   0.09730 310787.520000
   7680   7684     1   0.10969 276646.080000
   7680   7685     1   0.10969 276646.080000
   7686   7687     1   0.09730 310787.520000
   7689   7691     1   0.10969 276646.080000
   7690   7692     1   0.10969 276646.080000
   7693   7697     1   0.10969 276646.080000
   7694   7696     1   0.10969 276646.080000
   7695   7698     1   0.10961 277566.560000
   7700   7706     1   0.09730 310787.520000
   7701   7704     1   0.09730 310787.520000
   7702   7705     1   0.09730 310787.520000
   7703   7707     1   0.10969 276646.080000
   7703   7708     1   0.10969 276646.080000
   7709   7710     1   0.09730 310787.520000
   7712   7714     1   0.10969 276646.080000
   7713   7715     1   0.10969 276646.080000
   7716   7720     1   0.10969 276646.080000
   7717   7719     1   0.10969 276646.080000
   7718   7721     1   0.10961 277566.560000
   7723   7729     1   0.09730 310787.520000
   7724   7727     1   0.09730 310787.520000
   7725   7728     1   0.09730 310787.520000
   7726   7730     1   0.10969 276646.080000
   7726   7731     1   0.10969 276646.080000
   7732   7733     1   0.09730 310787.520000
   7735   7737     1   0.10969 276646.080000
   7736   7738     1   0.10969 276646.080000
   7739   7743     1   0.10969 276646.080000
   7740   7742     1   0.10969 276646.080000
   7741   7744     1   0.10961 277566.560000
   7746   7752     1   0.09730 310787.520000
   7747   7750     1   0.09730 310787.520000
   7748   7751     1   0.09730 310787.520000
   7749   7753     1   0.10969 276646.080000
   7749   7754     1   0.10969 276646.080000
   7755   7756     1   0.09730 310787.520000
   7758   7760     1   0.10969 276646.080000
   7759   7761     1   0.10969 276646.080000
   7762   7766     1   0.10969 276646.080000
   7763   7765     1   0.10969 276646.080000
   7764   7767     1   0.10961 277566.560000
   7769   7775     1   0.09730 310787.520000
   7770   7773     1   0.09730 310787.520000
   7771   7774     1   0.09730 310787.520000
   7772   7776     1   0.10969 276646.080000
   7772   7777     1   0.10969 276646.080000
   7778   7779     1   0.09730 310787.520000
   7781   7783     1   0.10969 276646.080000
   7782   7784     1   0.10969 276646.080000
   7785   7789     1   0.10969 276646.080000
   7786   7788     1   0.10969 276646.080000
   7787   7790     1   0.10961 277566.560000
   7792   7798     1   0.09730 310787.520000
   7793   7796     1   0.09730 310787.520000
   7794   7797     1   0.09730 310787.520000
   7795   7799     1   0.10969 276646.080000
   7795   7800     1   0.10969 276646.080000
   7801   7802     1   0.09730 310787.520000
   7804   7806     1   0.10969 276646.080000
   7805   7807     1   0.10969 276646.080000
   7808   7812     1   0.10969 276646.080000
   7809   7811     1   0.10969 276646.080000
   7810   7813     1   0.10961 277566.560000
   7815   7821     1   0.09730 310787.520000
   7816   7819     1   0.09730 310787.520000
   7817   7820     1   0.09730 310787.520000
   7818   7822     1   0.10969 276646.080000
   7818   7823     1   0.10969 276646.080000
   7824   7825     1   0.09730 310787.520000
   7827   7829     1   0.10969 276646.080000
   7828   7830     1   0.10969 276646.080000
   7831   7835     1   0.10969 276646.080000
   7832   7834     1   0.10969 276646.080000
   7833   7836     1   0.10961 277566.560000
   7838   7844     1   0.09730 310787.520000
   7839   7842     1   0.09730 310787.520000
   7840   7843     1   0.09730 310787.520000
   7841   7845     1   0.10969 276646.080000
   7841   7846     1   0.10969 276646.080000
   7847   7848     1   0.09730 310787.520000
   7850   7852     1   0.10969 276646.080000
   7851   7853     1   0.10969 276646.080000
   7854   7858     1   0.10969 276646.080000
   7855   7857     1   0.10969 276646.080000
   7856   7859     1   0.10961 277566.560000
   7861   7867     1   0.09730 310787.520000
   7862   7865     1   0.09730 310787.520000
   7863   7866     1   0.09730 310787.520000
   7864   7868     1   0.10969 276646.080000
   7864   7869     1   0.10969 276646.080000
   7870   7871     1   0.09730 310787.520000
   7873   7875     1   0.10969 276646.080000
   7874   7876     1   0.10969 276646.080000
   7877   7881     1   0.10969 276646.080000
   7878   7880     1   0.10969 276646.080000
   7879   7882     1   0.10961 277566.560000
   7884   7890     1   0.09730 310787.520000
   7885   7888     1   0.09730 310787.520000
   7886   7889     1   0.09730 310787.520000
   7887   7891     1   0.10969 276646.080000
   7887   7892     1   0.10969 276646.080000
   7893   7894     1   0.09730 310787.520000
   7896   7898     1   0.10969 276646.080000
   7897   7899     1   0.10969 276646.080000
   7900   7904     1   0.10969 276646.080000
   7901   7903     1   0.10969 276646.080000
   7902   7905     1   0.10961 277566.560000
   7907   7913     1   0.09730 310787.520000
   7908   7911     1   0.09730 310787.520000
   7909   7912     1   0.09730 310787.520000
   7910   7914     1   0.10969 276646.080000
   7910   7915     1   0.10969 276646.080000
   7916   7917     1   0.09730 310787.520000
   7919   7921     1   0.10969 276646.080000
   7920   7922     1   0.10969 276646.080000
   7923   7927     1   0.10969 276646.080000
   7924   7926     1   0.10969 276646.080000
   7925   7928     1   0.10961 277566.560000
   7930   7936     1   0.09730 310787.520000
   7931   7934     1   0.09730 310787.520000
   7932   7935     1   0.09730 310787.520000
   7933   7937     1   0.10969 276646.080000
   7933   7938     1   0.10969 276646.080000
   7939   7940     1   0.09730 310787.520000
   7942   7944     1   0.10969 276646.080000
   7943   7945     1   0.10969 276646.080000
   7946   7950     1   0.10969 276646.080000
   7947   7949     1   0.10969 276646.080000
   7948   7951     1   0.10961 277566.560000
   7953   7959     1   0.09730 310787.520000
   7954   7957     1   0.09730 310787.520000
   7955   7958     1   0.09730 310787.520000
   7956   7960     1   0.10969 276646.080000
   7956   7961     1   0.10969 276646.080000
   7962   7963     1   0.09730 310787.520000
   7965   7967     1   0.10969 276646.080000
   7966   7968     1   0.10969 276646.080000
   7969   7973     1   0.10969 276646.080000
   7970   7972     1   0.10969 276646.080000
   7971   7974     1   0.10961 277566.560000
   7976   7982     1   0.09730 310787.520000
   7977   7980     1   0.09730 310787.520000
   7978   7981     1   0.09730 310787.520000
   7979   7983     1   0.10969 276646.080000
   7979   7984     1   0.10969 276646.080000
   7985   7986     1   0.09730 310787.520000
   7988   7990     1   0.10969 276646.080000
   7989   7991     1   0.10969 276646.080000
   7992   7996     1   0.10969 276646.080000
   7993   7995     1   0.10969 276646.080000
   7994   7997     1   0.10961 277566.560000
   7999   8005     1   0.09730 310787.520000
   8000   8003     1   0.09730 310787.520000
   8001   8004     1   0.09730 310787.520000
   8002   8006     1   0.10969 276646.080000
   8002   8007     1   0.10969 276646.080000
   8008   8009     1   0.09730 310787.520000
   8011   8013     1   0.10969 276646.080000
   8012   8014     1   0.10969 276646.080000
   8015   8019     1   0.10969 276646.080000
   8016   8018     1   0.10969 276646.080000
   8017   8020     1   0.10961 277566.560000
   8022   8028     1   0.09730 310787.520000
   8023   8026     1   0.09730 310787.520000
   8024   8027     1   0.09730 310787.520000
   8025   8029     1   0.10969 276646.080000
   8025   8030     1   0.10969 276646.080000
   8031   8032     1   0.09730 310787.520000
   8034   8036     1   0.10969 276646.080000
   8035   8037     1   0.10969 276646.080000
   8038   8042     1   0.10969 276646.080000
   8039   8041     1   0.10969 276646.080000
   8040   8043     1   0.10961 277566.560000
   8045   8051     1   0.09730 310787.520000
   8046   8049     1   0.09730 310787.520000
   8047   8050     1   0.09730 310787.520000
   8048   8052     1   0.10969 276646.080000
   8048   8053     1   0.10969 276646.080000
   8054   8055     1   0.09730 310787.520000
   8057   8059     1   0.10969 276646.080000
   8058   8060     1   0.10969 276646.080000
   8061   8065     1   0.10969 276646.080000
   8062   8064     1   0.10969 276646.080000
   8063   8066     1   0.10961 277566.560000
   8068   8074     1   0.09730 310787.520000
   8069   8072     1   0.09730 310787.520000
   8070   8073     1   0.09730 310787.520000
   8071   8075     1   0.10969 276646.080000
   8071   8076     1   0.10969 276646.080000
   8077   8078     1   0.09730 310787.520000
   8080   8082     1   0.10969 276646.080000
   8081   8083     1   0.10969 276646.080000
   8084   8088     1   0.10969 276646.080000
   8085   8087     1   0.10969 276646.080000
   8086   8089     1   0.10961 277566.560000
   8091   8097     1   0.09730 310787.520000
   8092   8095     1   0.09730 310787.520000
   8093   8096     1   0.09730 310787.520000
   8094   8098     1   0.10969 276646.080000
   8094   8099     1   0.10969 276646.080000
   8100   8101     1   0.09730 310787.520000
   8103   8105     1   0.10969 276646.080000
   8104   8106     1   0.10969 276646.080000
   8107   8111     1   0.10969 276646.080000
   8108   8110     1   0.10969 276646.080000
   8109   8112     1   0.10961 277566.560000
   8114   8120     1   0.09730 310787.520000
   8115   8118     1   0.09730 310787.520000
   8116   8119     1   0.09730 310787.520000
   8117   8121     1   0.10969 276646.080000
   8117   8122     1   0.10969 276646.080000
   8123   8124     1   0.09730 310787.520000
   8126   8128     1   0.10969 276646.080000
   8127   8129     1   0.10969 276646.080000
   8130   8134     1   0.10969 276646.080000
   8131   8133     1   0.10969 276646.080000
   8132   8135     1   0.10961 277566.560000
   8137   8143     1   0.09730 310787.520000
   8138   8141     1   0.09730 310787.520000
   8139   8142     1   0.09730 310787.520000
   8140   8144     1   0.10969 276646.080000
   8140   8145     1   0.10969 276646.080000
   8146   8147     1   0.09730 310787.520000
   8149   8151     1   0.10969 276646.080000
   8150   8152     1   0.10969 276646.080000
   8153   8157     1   0.10969 276646.080000
   8154   8156     1   0.10969 276646.080000
   8155   8158     1   0.10961 277566.560000
   8160   8166     1   0.09730 310787.520000
   8161   8164     1   0.09730 310787.520000
   8162   8165     1   0.09730 310787.520000
   8163   8167     1   0.10969 276646.080000
   8163   8168     1   0.10969 276646.080000
   8169   8170     1   0.09730 310787.520000
   8172   8174     1   0.10969 276646.080000
   8173   8175     1   0.10969 276646.080000
   8176   8180     1   0.10969 276646.080000
   8177   8179     1   0.10969 276646.080000
   8178   8181     1   0.10961 277566.560000
   8183   8189     1   0.09730 310787.520000
   8184   8187     1   0.09730 310787.520000
   8185   8188     1   0.09730 310787.520000
   8186   8190     1   0.10969 276646.080000
   8186   8191     1   0.10969 276646.080000
   8192   8193     1   0.09730 310787.520000
   8195   8197     1   0.10969 276646.080000
   8196   8198     1   0.10969 276646.080000
   8199   8203     1   0.10969 276646.080000
   8200   8202     1   0.10969 276646.080000
   8201   8204     1   0.10961 277566.560000
   8206   8212     1   0.09730 310787.520000
   8207   8210     1   0.09730 310787.520000
   8208   8211     1   0.09730 310787.520000
   8209   8213     1   0.10969 276646.080000
   8209   8214     1   0.10969 276646.080000
   8215   8216     1   0.09730 310787.520000
   8218   8220     1   0.10969 276646.080000
   8219   8221     1   0.10969 276646.080000
   8222   8226     1   0.10969 276646.080000
   8223   8225     1   0.10969 276646.080000
   8224   8227     1   0.10961 277566.560000
   8229   8235     1   0.09730 310787.520000
   8230   8233     1   0.09730 310787.520000
   8231   8234     1   0.09730 310787.520000
   8232   8236     1   0.10969 276646.080000
   8232   8237     1   0.10969 276646.080000
   8238   8239     1   0.09730 310787.520000
   8241   8243     1   0.10969 276646.080000
   8242   8244     1   0.10969 276646.080000
   8245   8249     1   0.10969 276646.080000
   8246   8248     1   0.10969 276646.080000
   8247   8250     1   0.10961 277566.560000
   8252   8258     1   0.09730 310787.520000
   8253   8256     1   0.09730 310787.520000
   8254   8257     1   0.09730 310787.520000
   8255   8259     1   0.10969 276646.080000
   8255   8260     1   0.10969 276646.080000
   8261   8262     1   0.09730 310787.520000
   8264   8266     1   0.10969 276646.080000
   8265   8267     1   0.10969 276646.080000
   8268   8272     1   0.10969 276646.080000
   8269   8271     1   0.10969 276646.080000
   8270   8273     1   0.10961 277566.560000
   8275   8281     1   0.09730 310787.520000
   8276   8279     1   0.09730 310787.520000
   8277   8280     1   0.09730 310787.520000
   8278   8282     1   0.10969 276646.080000
   8278   8283     1   0.10969 276646.080000
   8284   8285     1   0.09730 310787.520000
   8287   8289     1   0.10969 276646.080000
   8288   8290     1   0.10969 276646.080000
   8291   8295     1   0.10969 276646.080000
   8292   8294     1   0.10969 276646.080000
   8293   8296     1   0.10961 277566.560000
   8298   8304     1   0.09730 310787.520000
   8299   8302     1   0.09730 310787.520000
   8300   8303     1   0.09730 310787.520000
   8301   8305     1   0.10969 276646.080000
   8301   8306     1   0.10969 276646.080000
   8307   8308     1   0.09730 310787.520000
   8310   8312     1   0.10969 276646.080000
   8311   8313     1   0.10969 276646.080000
   8314   8318     1   0.10969 276646.080000
   8315   8317     1   0.10969 276646.080000
   8316   8319     1   0.10961 277566.560000
   8321   8327     1   0.09730 310787.520000
   8322   8325     1   0.09730 310787.520000
   8323   8326     1   0.09730 310787.520000
   8324   8328     1   0.10969 276646.080000
   8324   8329     1   0.10969 276646.080000
   8330   8331     1   0.09730 310787.520000
   8333   8335     1   0.10969 276646.080000
   8334   8336     1   0.10969 276646.080000
   8337   8341     1   0.10969 276646.080000
   8338   8340     1   0.10969 276646.080000
   8339   8342     1   0.10961 277566.560000
   8344   8350     1   0.09730 310787.520000
   8345   8348     1   0.09730 310787.520000
   8346   8349     1   0.09730 310787.520000
   8347   8351     1   0.10969 276646.080000
   8347   8352     1   0.10969 276646.080000
   8353   8354     1   0.09730 310787.520000
   8356   8358     1   0.10969 276646.080000
   8357   8359     1   0.10969 276646.080000
   8360   8364     1   0.10969 276646.080000
   8361   8363     1   0.10969 276646.080000
   8362   8365     1   0.10961 277566.560000
   8367   8373     1   0.09730 310787.520000
   8368   8371     1   0.09730 310787.520000
   8369   8372     1   0.09730 310787.520000
   8370   8374     1   0.10969 276646.080000
   8370   8375     1   0.10969 276646.080000
   8376   8377     1   0.09730 310787.520000
   8379   8381     1   0.10969 276646.080000
   8380   8382     1   0.10969 276646.080000
   8383   8387     1   0.10969 276646.080000
   8384   8386     1   0.10969 276646.080000
   8385   8388     1   0.10961 277566.560000
   8390   8396     1   0.09730 310787.520000
   8391   8394     1   0.09730 310787.520000
   8392   8395     1   0.09730 310787.520000
   8393   8397     1   0.10969 276646.080000
   8393   8398     1   0.10969 276646.080000
   8399   8400     1   0.09730 310787.520000
   8402   8404     1   0.10969 276646.080000
   8403   8405     1   0.10969 276646.080000
   8406   8410     1   0.10969 276646.080000
   8407   8409     1   0.10969 276646.080000
   8408   8411     1   0.10961 277566.560000
   8413   8419     1   0.09730 310787.520000
   8414   8417     1   0.09730 310787.520000
   8415   8418     1   0.09730 310787.520000
   8416   8420     1   0.10969 276646.080000
   8416   8421     1   0.10969 276646.080000
   8422   8423     1   0.09730 310787.520000
   8425   8427     1   0.10969 276646.080000
   8426   8428     1   0.10969 276646.080000
   8429   8433     1   0.10969 276646.080000
   8430   8432     1   0.10969 276646.080000
   8431   8434     1   0.10961 277566.560000
   8436   8442     1   0.09730 310787.520000
   8437   8440     1   0.09730 310787.520000
   8438   8441     1   0.09730 310787.520000
   8439   8443     1   0.10969 276646.080000
   8439   8444     1   0.10969 276646.080000
   8445   8446     1   0.09730 310787.520000
   8448   8450     1   0.10969 276646.080000
   8449   8451     1   0.10969 276646.080000
   8452   8456     1   0.10969 276646.080000
   8453   8455     1   0.10969 276646.080000
   8454   8457     1   0.10961 277566.560000
   8459   8465     1   0.09730 310787.520000
   8460   8463     1   0.09730 310787.520000
   8461   8464     1   0.09730 310787.520000
   8462   8466     1   0.10969 276646.080000
   8462   8467     1   0.10969 276646.080000
   8468   8469     1   0.09730 310787.520000
   8471   8473     1   0.10969 276646.080000
   8472   8474     1   0.10969 276646.080000
   8475   8479     1   0.10969 276646.080000
   8476   8478     1   0.10969 276646.080000
   8477   8480     1   0.10961 277566.560000
   8482   8488     1   0.09730 310787.520000
   8483   8486     1   0.09730 310787.520000
   8484   8487     1   0.09730 310787.520000
   8485   8489     1   0.10969 276646.080000
   8485   8490     1   0.10969 276646.080000
   8491   8492     1   0.09730 310787.520000
   8494   8496     1   0.10969 276646.080000
   8495   8497     1   0.10969 276646.080000
   8498   8502     1   0.10969 276646.080000
   8499   8501     1   0.10969 276646.080000
   8500   8503     1   0.10961 277566.560000
   8505   8511     1   0.09730 310787.520000
   8506   8509     1   0.09730 310787.520000
   8507   8510     1   0.09730 310787.520000
   8508   8512     1   0.10969 276646.080000
   8508   8513     1   0.10969 276646.080000
   8514   8515     1   0.09730 310787.520000
   8517   8519     1   0.10969 276646.080000
   8518   8520     1   0.10969 276646.080000
   8521   8525     1   0.10969 276646.080000
   8522   8524     1   0.10969 276646.080000
   8523   8526     1   0.10961 277566.560000
   8528   8534     1   0.09730 310787.520000
   8529   8532     1   0.09730 310787.520000
   8530   8533     1   0.09730 310787.520000
   8531   8535     1   0.10969 276646.080000
   8531   8536     1   0.10969 276646.080000
   8537   8538     1   0.09730 310787.520000
   8540   8542     1   0.10969 276646.080000
   8541   8543     1   0.10969 276646.080000
   8544   8548     1   0.10969 276646.080000
   8545   8547     1   0.10969 276646.080000
   8546   8549     1   0.10961 277566.560000
   8551   8557     1   0.09730 310787.520000
   8552   8555     1   0.09730 310787.520000
   8553   8556     1   0.09730 310787.520000
   8554   8558     1   0.10969 276646.080000
   8554   8559     1   0.10969 276646.080000
   8560   8561     1   0.09730 310787.520000
   8563   8565     1   0.10969 276646.080000
   8564   8566     1   0.10969 276646.080000
   8567   8571     1   0.10969 276646.080000
   8568   8570     1   0.10969 276646.080000
   8569   8572     1   0.10961 277566.560000
   8574   8580     1   0.09730 310787.520000
   8575   8578     1   0.09730 310787.520000
   8576   8579     1   0.09730 310787.520000
   8577   8581     1   0.10969 276646.080000
   8577   8582     1   0.10969 276646.080000
   8583   8584     1   0.09730 310787.520000
   8586   8588     1   0.10969 276646.080000
   8587   8589     1   0.10969 276646.080000
   8590   8594     1   0.10969 276646.080000
   8591   8593     1   0.10969 276646.080000
   8592   8595     1   0.10961 277566.560000
   8597   8603     1   0.09730 310787.520000
   8598   8601     1   0.09730 310787.520000
   8599   8602     1   0.09730 310787.520000
   8600   8604     1   0.10969 276646.080000
   8600   8605     1   0.10969 276646.080000
   8606   8607     1   0.09730 310787.520000
   8609   8611     1   0.10969 276646.080000
   8610   8612     1   0.10969 276646.080000
   8613   8617     1   0.10969 276646.080000
   8614   8616     1   0.10969 276646.080000
   8615   8618     1   0.10961 277566.560000
   8620   8626     1   0.09730 310787.520000
   8621   8624     1   0.09730 310787.520000
   8622   8625     1   0.09730 310787.520000
   8623   8627     1   0.10969 276646.080000
   8623   8628     1   0.10969 276646.080000
   8629   8630     1   0.09730 310787.520000
   8632   8634     1   0.10969 276646.080000
   8633   8635     1   0.10969 276646.080000
   8636   8640     1   0.10969 276646.080000
   8637   8639     1   0.10969 276646.080000
   8638   8641     1   0.10961 277566.560000
   8643   8649     1   0.09730 310787.520000
   8644   8647     1   0.09730 310787.520000
   8645   8648     1   0.09730 310787.520000
   8646   8650     1   0.10969 276646.080000
   8646   8651     1   0.10969 276646.080000
   8652   8653     1   0.09730 310787.520000
   8655   8657     1   0.10969 276646.080000
   8656   8658     1   0.10969 276646.080000
   8659   8663     1   0.10969 276646.080000
   8660   8662     1   0.10969 276646.080000
   8661   8664     1   0.10961 277566.560000
   8666   8672     1   0.09730 310787.520000
   8667   8670     1   0.09730 310787.520000
   8668   8671     1   0.09730 310787.520000
   8669   8673     1   0.10969 276646.080000
   8669   8674     1   0.10969 276646.080000
   8675   8676     1   0.09730 310787.520000
   8678   8680     1   0.10969 276646.080000
   8679   8681     1   0.10969 276646.080000
   8682   8686     1   0.10969 276646.080000
   8683   8685     1   0.10969 276646.080000
   8684   8687     1   0.10961 277566.560000
   8689   8695     1   0.09730 310787.520000
   8690   8693     1   0.09730 310787.520000
   8691   8694     1   0.09730 310787.520000
   8692   8696     1   0.10969 276646.080000
   8692   8697     1   0.10969 276646.080000
   8698   8699     1   0.09730 310787.520000
   8701   8703     1   0.10969 276646.080000
   8702   8704     1   0.10969 276646.080000
   8705   8709     1   0.10969 276646.080000
   8706   8708     1   0.10969 276646.080000
   8707   8710     1   0.10961 277566.560000
   8712   8718     1   0.09730 310787.520000
   8713   8716     1   0.09730 310787.520000
   8714   8717     1   0.09730 310787.520000
   8715   8719     1   0.10969 276646.080000
   8715   8720     1   0.10969 276646.080000
   8721   8722     1   0.09730 310787.520000
   8724   8726     1   0.10969 276646.080000
   8725   8727     1   0.10969 276646.080000
   8728   8732     1   0.10969 276646.080000
   8729   8731     1   0.10969 276646.080000
   8730   8733     1   0.10961 277566.560000
   8735   8741     1   0.09730 310787.520000
   8736   8739     1   0.09730 310787.520000
   8737   8740     1   0.09730 310787.520000
   8738   8742     1   0.10969 276646.080000
   8738   8743     1   0.10969 276646.080000
   8744   8745     1   0.09730 310787.520000
   8747   8749     1   0.10969 276646.080000
   8748   8750     1   0.10969 276646.080000
   8751   8755     1   0.10969 276646.080000
   8752   8754     1   0.10969 276646.080000
   8753   8756     1   0.10961 277566.560000
   8758   8764     1   0.09730 310787.520000
   8759   8762     1   0.09730 310787.520000
   8760   8763     1   0.09730 310787.520000
   8761   8765     1   0.10969 276646.080000
   8761   8766     1   0.10969 276646.080000
   8767   8768     1   0.09730 310787.520000
   8770   8772     1   0.10969 276646.080000
   8771   8773     1   0.10969 276646.080000
   8774   8778     1   0.10969 276646.080000
   8775   8777     1   0.10969 276646.080000
   8776   8779     1   0.10961 277566.560000
   8781   8787     1   0.09730 310787.520000
   8782   8785     1   0.09730 310787.520000
   8783   8786     1   0.09730 310787.520000
   8784   8788     1   0.10969 276646.080000
   8784   8789     1   0.10969 276646.080000
   8790   8791     1   0.09730 310787.520000
   8793   8795     1   0.10969 276646.080000
   8794   8796     1   0.10969 276646.080000
   8797   8801     1   0.10969 276646.080000
   8798   8800     1   0.10969 276646.080000
   8799   8802     1   0.10961 277566.560000
   8804   8810     1   0.09730 310787.520000
   8805   8808     1   0.09730 310787.520000
   8806   8809     1   0.09730 310787.520000
   8807   8811     1   0.10969 276646.080000
   8807   8812     1   0.10969 276646.080000
   8813   8814     1   0.09730 310787.520000
   8816   8818     1   0.10969 276646.080000
   8817   8819     1   0.10969 276646.080000
   8820   8824     1   0.10969 276646.080000
   8821   8823     1   0.10969 276646.080000
   8822   8825     1   0.10961 277566.560000
   8827   8833     1   0.09730 310787.520000
   8828   8831     1   0.09730 310787.520000
   8829   8832     1   0.09730 310787.520000
   8830   8834     1   0.10969 276646.080000
   8830   8835     1   0.10969 276646.080000
   8836   8837     1   0.09730 310787.520000
   8839   8841     1   0.10969 276646.080000
   8840   8842     1   0.10969 276646.080000
   8843   8847     1   0.10969 276646.080000
   8844   8846     1   0.10969 276646.080000
   8845   8848     1   0.10961 277566.560000
   8850   8856     1   0.09730 310787.520000
   8851   8854     1   0.09730 310787.520000
   8852   8855     1   0.09730 310787.520000
   8853   8857     1   0.10969 276646.080000
   8853   8858     1   0.10969 276646.080000
   8859   8860     1   0.09730 310787.520000
   8862   8864     1   0.10969 276646.080000
   8863   8865     1   0.10969 276646.080000
   8866   8870     1   0.10969 276646.080000
   8867   8869     1   0.10969 276646.080000
   8868   8871     1   0.10961 277566.560000
   8873   8879     1   0.09730 310787.520000
   8874   8877     1   0.09730 310787.520000
   8875   8878     1   0.09730 310787.520000
   8876   8880     1   0.10969 276646.080000
   8876   8881     1   0.10969 276646.080000
   8882   8883     1   0.09730 310787.520000
   8885   8887     1   0.10969 276646.080000
   8886   8888     1   0.10969 276646.080000
   8889   8893     1   0.10969 276646.080000
   8890   8892     1   0.10969 276646.080000
   8891   8894     1   0.10961 277566.560000
   8896   8902     1   0.09730 310787.520000
   8897   8900     1   0.09730 310787.520000
   8898   8901     1   0.09730 310787.520000
   8899   8903     1   0.10969 276646.080000
   8899   8904     1   0.10969 276646.080000
   8905   8906     1   0.09730 310787.520000
   8908   8910     1   0.10969 276646.080000
   8909   8911     1   0.10969 276646.080000
   8912   8916     1   0.10969 276646.080000
   8913   8915     1   0.10969 276646.080000
   8914   8917     1   0.10961 277566.560000
   8919   8925     1   0.09730 310787.520000
   8920   8923     1   0.09730 310787.520000
   8921   8924     1   0.09730 310787.520000
   8922   8926     1   0.10969 276646.080000
   8922   8927     1   0.10969 276646.080000
   8928   8929     1   0.09730 310787.520000
   8931   8933     1   0.10969 276646.080000
   8932   8934     1   0.10969 276646.080000
   8935   8939     1   0.10969 276646.080000
   8936   8938     1   0.10969 276646.080000
   8937   8940     1   0.10961 277566.560000
   8942   8948     1   0.09730 310787.520000
   8943   8946     1   0.09730 310787.520000
   8944   8947     1   0.09730 310787.520000
   8945   8949     1   0.10969 276646.080000
   8945   8950     1   0.10969 276646.080000
   8951   8952     1   0.09730 310787.520000
   8954   8956     1   0.10969 276646.080000
   8955   8957     1   0.10969 276646.080000
   8958   8962     1   0.10969 276646.080000
   8959   8961     1   0.10969 276646.080000
   8960   8963     1   0.10961 277566.560000
   8965   8971     1   0.09730 310787.520000
   8966   8969     1   0.09730 310787.520000
   8967   8970     1   0.09730 310787.520000
   8968   8972     1   0.10969 276646.080000
   8968   8973     1   0.10969 276646.080000
   8974   8975     1   0.09730 310787.520000
   8977   8979     1   0.10969 276646.080000
   8978   8980     1   0.10969 276646.080000
   8981   8985     1   0.10969 276646.080000
   8982   8984     1   0.10969 276646.080000
   8983   8986     1   0.10961 277566.560000
   8988   8994     1   0.09730 310787.520000
   8989   8992     1   0.09730 310787.520000
   8990   8993     1   0.09730 310787.520000
   8991   8995     1   0.10969 276646.080000
   8991   8996     1   0.10969 276646.080000
   8997   8998     1   0.09730 310787.520000
   9000   9002     1   0.10969 276646.080000
   9001   9003     1   0.10969 276646.080000
   9004   9008     1   0.10969 276646.080000
   9005   9007     1   0.10969 276646.080000
   9006   9009     1   0.10961 277566.560000
   9011   9017     1   0.09730 310787.520000
   9012   9015     1   0.09730 310787.520000
   9013   9016     1   0.09730 310787.520000
   9014   9018     1   0.10969 276646.080000
   9014   9019     1   0.10969 276646.080000
   9020   9021     1   0.09730 310787.520000
   9023   9025     1   0.10969 276646.080000
   9024   9026     1   0.10969 276646.080000
   9027   9031     1   0.10969 276646.080000
   9028   9030     1   0.10969 276646.080000
   9029   9032     1   0.10961 277566.560000
   9034   9040     1   0.09730 310787.520000
   9035   9038     1   0.09730 310787.520000
   9036   9039     1   0.09730 310787.520000
   9037   9041     1   0.10969 276646.080000
   9037   9042     1   0.10969 276646.080000
   9043   9044     1   0.09730 310787.520000
   9046   9048     1   0.10969 276646.080000
   9047   9049     1   0.10969 276646.080000
   9050   9054     1   0.10969 276646.080000
   9051   9053     1   0.10969 276646.080000
   9052   9055     1   0.10961 277566.560000
   9057   9063     1   0.09730 310787.520000
   9058   9061     1   0.09730 310787.520000
   9059   9062     1   0.09730 310787.520000
   9060   9064     1   0.10969 276646.080000
   9060   9065     1   0.10969 276646.080000
   9066   9067     1   0.09730 310787.520000
   9069   9071     1   0.10969 276646.080000
   9070   9072     1   0.10969 276646.080000
   9073   9077     1   0.10969 276646.080000
   9074   9076     1   0.10969 276646.080000
   9075   9078     1   0.10961 277566.560000
   9080   9086     1   0.09730 310787.520000
   9081   9084     1   0.09730 310787.520000
   9082   9085     1   0.09730 310787.520000
   9083   9087     1   0.10969 276646.080000
   9083   9088     1   0.10969 276646.080000
   9089   9090     1   0.09730 310787.520000
   9092   9094     1   0.10969 276646.080000
   9093   9095     1   0.10969 276646.080000
   9096   9100     1   0.10969 276646.080000
   9097   9099     1   0.10969 276646.080000
   9098   9101     1   0.10961 277566.560000
   9103   9109     1   0.09730 310787.520000
   9104   9107     1   0.09730 310787.520000
   9105   9108     1   0.09730 310787.520000
   9106   9110     1   0.10969 276646.080000
   9106   9111     1   0.10969 276646.080000
   9112   9113     1   0.09730 310787.520000
   9115   9117     1   0.10969 276646.080000
   9116   9118     1   0.10969 276646.080000
   9119   9123     1   0.10969 276646.080000
   9120   9122     1   0.10969 276646.080000
   9121   9124     1   0.10961 277566.560000
   9126   9132     1   0.09730 310787.520000
   9127   9130     1   0.09730 310787.520000
   9128   9131     1   0.09730 310787.520000
   9129   9133     1   0.10969 276646.080000
   9129   9134     1   0.10969 276646.080000
   9135   9136     1   0.09730 310787.520000
   9138   9140     1   0.10969 276646.080000
   9139   9141     1   0.10969 276646.080000
   9142   9146     1   0.10969 276646.080000
   9143   9145     1   0.10969 276646.080000
   9144   9147     1   0.10961 277566.560000
   9149   9155     1   0.09730 310787.520000
   9150   9153     1   0.09730 310787.520000
   9151   9154     1   0.09730 310787.520000
   9152   9156     1   0.10969 276646.080000
   9152   9157     1   0.10969 276646.080000
   9158   9159     1   0.09730 310787.520000
   9161   9163     1   0.10969 276646.080000
   9162   9164     1   0.10969 276646.080000
   9165   9169     1   0.10969 276646.080000
   9166   9168     1   0.10969 276646.080000
   9167   9170     1   0.10961 277566.560000
   9172   9178     1   0.09730 310787.520000
   9173   9176     1   0.09730 310787.520000
   9174   9177     1   0.09730 310787.520000
   9175   9179     1   0.10969 276646.080000
   9175   9180     1   0.10969 276646.080000
   9181   9182     1   0.09730 310787.520000
   9184   9186     1   0.10969 276646.080000
   9185   9187     1   0.10969 276646.080000
   9188   9192     1   0.10969 276646.080000
   9189   9191     1   0.10969 276646.080000
   9190   9193     1   0.10961 277566.560000
   9195   9201     1   0.09730 310787.520000
   9196   9199     1   0.09730 310787.520000
   9197   9200     1   0.09730 310787.520000
   9198   9202     1   0.10969 276646.080000
   9198   9203     1   0.10969 276646.080000
   9204   9205     1   0.09730 310787.520000
   9207   9209     1   0.10969 276646.080000
   9208   9210     1   0.10969 276646.080000
   9211   9215     1   0.10969 276646.080000
   9212   9214     1   0.10969 276646.080000
   9213   9216     1   0.10961 277566.560000
   9218   9224     1   0.09730 310787.520000
   9219   9222     1   0.09730 310787.520000
   9220   9223     1   0.09730 310787.520000
   9221   9225     1   0.10969 276646.080000
   9221   9226     1   0.10969 276646.080000
   9227   9228     1   0.09730 310787.520000
   9230   9232     1   0.10969 276646.080000
   9231   9233     1   0.10969 276646.080000
   9234   9238     1   0.10969 276646.080000
   9235   9237     1   0.10969 276646.080000
   9236   9239     1   0.10961 277566.560000
   9241   9247     1   0.09730 310787.520000
   9242   9245     1   0.09730 310787.520000
   9243   9246     1   0.09730 310787.520000
   9244   9248     1   0.10969 276646.080000
   9244   9249     1   0.10969 276646.080000
   9250   9251     1   0.09730 310787.520000
   9253   9255     1   0.10969 276646.080000
   9254   9256     1   0.10969 276646.080000
   9257   9261     1   0.10969 276646.080000
   9258   9260     1   0.10969 276646.080000
   9259   9262     1   0.10961 277566.560000
   9264   9270     1   0.09730 310787.520000
   9265   9268     1   0.09730 310787.520000
   9266   9269     1   0.09730 310787.520000
   9267   9271     1   0.10969 276646.080000
   9267   9272     1   0.10969 276646.080000
   9273   9274     1   0.09730 310787.520000
   9276   9278     1   0.10969 276646.080000
   9277   9279     1   0.10969 276646.080000
   9280   9284     1   0.10969 276646.080000
   9281   9283     1   0.10969 276646.080000
   9282   9285     1   0.10961 277566.560000
   9287   9293     1   0.09730 310787.520000
   9288   9291     1   0.09730 310787.520000
   9289   9292     1   0.09730 310787.520000
   9290   9294     1   0.10969 276646.080000
   9290   9295     1   0.10969 276646.080000
   9296   9297     1   0.09730 310787.520000
   9299   9301     1   0.10969 276646.080000
   9300   9302     1   0.10969 276646.080000
   9303   9307     1   0.10969 276646.080000
   9304   9306     1   0.10969 276646.080000
   9305   9308     1   0.10961 277566.560000
   9310   9316     1   0.09730 310787.520000
   9311   9314     1   0.09730 310787.520000
   9312   9315     1   0.09730 310787.520000
   9313   9317     1   0.10969 276646.080000
   9313   9318     1   0.10969 276646.080000
   9319   9320     1   0.09730 310787.520000
   9322   9324     1   0.10969 276646.080000
   9323   9325     1   0.10969 276646.080000
   9326   9330     1   0.10969 276646.080000
   9327   9329     1   0.10969 276646.080000
   9328   9331     1   0.10961 277566.560000
   9333   9339     1   0.09730 310787.520000
   9334   9337     1   0.09730 310787.520000
   9335   9338     1   0.09730 310787.520000
   9336   9340     1   0.10969 276646.080000
   9336   9341     1   0.10969 276646.080000
   9342   9343     1   0.09730 310787.520000
   9345   9347     1   0.10969 276646.080000
   9346   9348     1   0.10969 276646.080000
   9349   9353     1   0.10969 276646.080000
   9350   9352     1   0.10969 276646.080000
   9351   9354     1   0.10961 277566.560000
   9356   9362     1   0.09730 310787.520000
   9357   9360     1   0.09730 310787.520000
   9358   9361     1   0.09730 310787.520000
   9359   9363     1   0.10969 276646.080000
   9359   9364     1   0.10969 276646.080000
   9365   9366     1   0.09730 310787.520000
   9368   9370     1   0.10969 276646.080000
   9369   9371     1   0.10969 276646.080000
   9372   9376     1   0.10969 276646.080000
   9373   9375     1   0.10969 276646.080000
   9374   9377     1   0.10961 277566.560000
   9379   9385     1   0.09730 310787.520000
   9380   9383     1   0.09730 310787.520000
   9381   9384     1   0.09730 310787.520000
   9382   9386     1   0.10969 276646.080000
   9382   9387     1   0.10969 276646.080000
   9388   9389     1   0.09730 310787.520000
   9391   9393     1   0.10969 276646.080000
   9392   9394     1   0.10969 276646.080000
   9395   9399     1   0.10969 276646.080000
   9396   9398     1   0.10969 276646.080000
   9397   9400     1   0.10961 277566.560000
   9402   9408     1   0.09730 310787.520000
   9403   9406     1   0.09730 310787.520000
   9404   9407     1   0.09730 310787.520000
   9405   9409     1   0.10969 276646.080000
   9405   9410     1   0.10969 276646.080000
   9411   9412     1   0.09730 310787.520000
   9414   9416     1   0.10969 276646.080000
   9415   9417     1   0.10969 276646.080000
   9418   9422     1   0.10969 276646.080000
   9419   9421     1   0.10969 276646.080000
   9420   9423     1   0.10961 277566.560000
   9425   9431     1   0.09730 310787.520000
   9426   9429     1   0.09730 310787.520000
   9427   9430     1   0.09730 310787.520000
   9428   9432     1   0.10969 276646.080000
   9428   9433     1   0.10969 276646.080000
   9434   9435     1   0.09730 310787.520000
   9437   9439     1   0.10969 276646.080000
   9438   9440     1   0.10969 276646.080000
   9441   9445     1   0.10969 276646.080000
   9442   9444     1   0.10969 276646.080000
   9443   9446     1   0.10961 277566.560000
   9448   9454     1   0.09730 310787.520000
   9449   9452     1   0.09730 310787.520000
   9450   9453     1   0.09730 310787.520000
   9451   9455     1   0.10969 276646.080000
   9451   9456     1   0.10969 276646.080000
   9457   9458     1   0.09730 310787.520000
   9460   9462     1   0.10969 276646.080000
   9461   9463     1   0.10969 276646.080000
   9464   9468     1   0.10969 276646.080000
   9465   9467     1   0.10969 276646.080000
   9466   9469     1   0.10961 277566.560000
   9471   9477     1   0.09730 310787.520000
   9472   9475     1   0.09730 310787.520000
   9473   9476     1   0.09730 310787.520000
   9474   9478     1   0.10969 276646.080000
   9474   9479     1   0.10969 276646.080000
   9480   9481     1   0.09730 310787.520000
   9483   9485     1   0.10969 276646.080000
   9484   9486     1   0.10969 276646.080000
   9487   9491     1   0.10969 276646.080000
   9488   9490     1   0.10969 276646.080000
   9489   9492     1   0.10961 277566.560000
   9494   9500     1   0.09730 310787.520000
   9495   9498     1   0.09730 310787.520000
   9496   9499     1   0.09730 310787.520000
   9497   9501     1   0.10969 276646.080000
   9497   9502     1   0.10969 276646.080000
   9503   9504     1   0.09730 310787.520000
   9506   9508     1   0.10969 276646.080000
   9507   9509     1   0.10969 276646.080000
   9510   9514     1   0.10969 276646.080000
   9511   9513     1   0.10969 276646.080000
   9512   9515     1   0.10961 277566.560000
   9517   9523     1   0.09730 310787.520000
   9518   9521     1   0.09730 310787.520000
   9519   9522     1   0.09730 310787.520000
   9520   9524     1   0.10969 276646.080000
   9520   9525     1   0.10969 276646.080000
   9526   9527     1   0.09730 310787.520000
   9529   9531     1   0.10969 276646.080000
   9530   9532     1   0.10969 276646.080000
   9533   9537     1   0.10969 276646.080000
   9534   9536     1   0.10969 276646.080000
   9535   9538     1   0.10961 277566.560000
   9540   9546     1   0.09730 310787.520000
   9541   9544     1   0.09730 310787.520000
   9542   9545     1   0.09730 310787.520000
   9543   9547     1   0.10969 276646.080000
   9543   9548     1   0.10969 276646.080000
   9549   9550     1   0.09730 310787.520000
   9552   9554     1   0.10969 276646.080000
   9553   9555     1   0.10969 276646.080000
   9556   9560     1   0.10969 276646.080000
   9557   9559     1   0.10969 276646.080000
   9558   9561     1   0.10961 277566.560000
   9563   9569     1   0.09730 310787.520000
   9564   9567     1   0.09730 310787.520000
   9565   9568     1   0.09730 310787.520000
   9566   9570     1   0.10969 276646.080000
   9566   9571     1   0.10969 276646.080000
   9572   9573     1   0.09730 310787.520000
   9575   9577     1   0.10969 276646.080000
   9576   9578     1   0.10969 276646.080000
   9579   9583     1   0.10969 276646.080000
   9580   9582     1   0.10969 276646.080000
   9581   9584     1   0.10961 277566.560000
   9586   9592     1   0.09730 310787.520000
   9587   9590     1   0.09730 310787.520000
   9588   9591     1   0.09730 310787.520000
   9589   9593     1   0.10969 276646.080000
   9589   9594     1   0.10969 276646.080000
   9595   9596     1   0.09730 310787.520000
   9598   9600     1   0.10969 276646.080000
   9599   9601     1   0.10969 276646.080000
   9602   9606     1   0.10969 276646.080000
   9603   9605     1   0.10969 276646.080000
   9604   9607     1   0.10961 277566.560000
   9609   9615     1   0.09730 310787.520000
   9610   9613     1   0.09730 310787.520000
   9611   9614     1   0.09730 310787.520000
   9612   9616     1   0.10969 276646.080000
   9612   9617     1   0.10969 276646.080000
   9618   9619     1   0.09730 310787.520000
   9621   9623     1   0.10969 276646.080000
   9622   9624     1   0.10969 276646.080000
   9625   9629     1   0.10969 276646.080000
   9626   9628     1   0.10969 276646.080000
   9627   9630     1   0.10961 277566.560000
   9632   9638     1   0.09730 310787.520000
   9633   9636     1   0.09730 310787.520000
   9634   9637     1   0.09730 310787.520000
   9635   9639     1   0.10969 276646.080000
   9635   9640     1   0.10969 276646.080000
   9641   9642     1   0.09730 310787.520000
   9644   9646     1   0.10969 276646.080000
   9645   9647     1   0.10969 276646.080000
   9648   9652     1   0.10969 276646.080000
   9649   9651     1   0.10969 276646.080000
   9650   9653     1   0.10961 277566.560000
   9655   9661     1   0.09730 310787.520000
   9656   9659     1   0.09730 310787.520000
   9657   9660     1   0.09730 310787.520000
   9658   9662     1   0.10969 276646.080000
   9658   9663     1   0.10969 276646.080000
   9664   9665     1   0.09730 310787.520000
   9667   9669     1   0.10969 276646.080000
   9668   9670     1   0.10969 276646.080000
   9671   9675     1   0.10969 276646.080000
   9672   9674     1   0.10969 276646.080000
   9673   9676     1   0.10961 277566.560000
   9678   9684     1   0.09730 310787.520000
   9679   9682     1   0.09730 310787.520000
   9680   9683     1   0.09730 310787.520000
   9681   9685     1   0.10969 276646.080000
   9681   9686     1   0.10969 276646.080000
   9687   9688     1   0.09730 310787.520000
   9690   9692     1   0.10969 276646.080000
   9691   9693     1   0.10969 276646.080000
   9694   9698     1   0.10969 276646.080000
   9695   9697     1   0.10969 276646.080000
   9696   9699     1   0.10961 277566.560000
   9701   9707     1   0.09730 310787.520000
   9702   9705     1   0.09730 310787.520000
   9703   9706     1   0.09730 310787.520000
   9704   9708     1   0.10969 276646.080000
   9704   9709     1   0.10969 276646.080000
   9710   9711     1   0.09730 310787.520000
   9713   9715     1   0.10969 276646.080000
   9714   9716     1   0.10969 276646.080000
   9717   9721     1   0.10969 276646.080000
   9718   9720     1   0.10969 276646.080000
   9719   9722     1   0.10961 277566.560000
   9724   9730     1   0.09730 310787.520000
   9725   9728     1   0.09730 310787.520000
   9726   9729     1   0.09730 310787.520000
   9727   9731     1   0.10969 276646.080000
   9727   9732     1   0.10969 276646.080000
   9733   9734     1   0.09730 310787.520000
   9736   9738     1   0.10969 276646.080000
   9737   9739     1   0.10969 276646.080000
   9740   9744     1   0.10969 276646.080000
   9741   9743     1   0.10969 276646.080000
   9742   9745     1   0.10961 277566.560000
   9747   9753     1   0.09730 310787.520000
   9748   9751     1   0.09730 310787.520000
   9749   9752     1   0.09730 310787.520000
   9750   9754     1   0.10969 276646.080000
   9750   9755     1   0.10969 276646.080000
   9756   9757     1   0.09730 310787.520000
   9759   9761     1   0.10969 276646.080000
   9760   9762     1   0.10969 276646.080000
   9763   9767     1   0.10969 276646.080000
   9764   9766     1   0.10969 276646.080000
   9765   9768     1   0.10961 277566.560000
   9770   9776     1   0.09730 310787.520000
   9771   9774     1   0.09730 310787.520000
   9772   9775     1   0.09730 310787.520000
   9773   9777     1   0.10969 276646.080000
   9773   9778     1   0.10969 276646.080000
   9779   9780     1   0.09730 310787.520000
   9782   9784     1   0.10969 276646.080000
   9783   9785     1   0.10969 276646.080000
   9786   9790     1   0.10969 276646.080000
   9787   9789     1   0.10969 276646.080000
   9788   9791     1   0.10961 277566.560000
   9793   9799     1   0.09730 310787.520000
   9794   9797     1   0.09730 310787.520000
   9795   9798     1   0.09730 310787.520000
   9796   9800     1   0.10969 276646.080000
   9796   9801     1   0.10969 276646.080000
   9802   9803     1   0.09730 310787.520000
   9805   9807     1   0.10969 276646.080000
   9806   9808     1   0.10969 276646.080000
   9809   9813     1   0.10969 276646.080000
   9810   9812     1   0.10969 276646.080000
   9811   9814     1   0.10961 277566.560000
   9816   9822     1   0.09730 310787.520000
   9817   9820     1   0.09730 310787.520000
   9818   9821     1   0.09730 310787.520000
   9819   9823     1   0.10969 276646.080000
   9819   9824     1   0.10969 276646.080000
   9825   9826     1   0.09730 310787.520000
   9828   9830     1   0.10969 276646.080000
   9829   9831     1   0.10969 276646.080000
   9832   9836     1   0.10969 276646.080000
   9833   9835     1   0.10969 276646.080000
   9834   9837     1   0.10961 277566.560000
   9839   9845     1   0.09730 310787.520000
   9840   9843     1   0.09730 310787.520000
   9841   9844     1   0.09730 310787.520000
   9842   9846     1   0.10969 276646.080000
   9842   9847     1   0.10969 276646.080000
   9848   9849     1   0.09730 310787.520000
   9851   9853     1   0.10969 276646.080000
   9852   9854     1   0.10969 276646.080000
   9855   9859     1   0.10969 276646.080000
   9856   9858     1   0.10969 276646.080000
   9857   9860     1   0.10961 277566.560000
   9862   9868     1   0.09730 310787.520000
   9863   9866     1   0.09730 310787.520000
   9864   9867     1   0.09730 310787.520000
   9865   9869     1   0.10969 276646.080000
   9865   9870     1   0.10969 276646.080000
   9871   9872     1   0.09730 310787.520000
   9874   9876     1   0.10969 276646.080000
   9875   9877     1   0.10969 276646.080000
   9878   9882     1   0.10969 276646.080000
   9879   9881     1   0.10969 276646.080000
   9880   9883     1   0.10961 277566.560000
   9885   9891     1   0.09730 310787.520000
   9886   9889     1   0.09730 310787.520000
   9887   9890     1   0.09730 310787.520000
   9888   9892     1   0.10969 276646.080000
   9888   9893     1   0.10969 276646.080000
   9894   9895     1   0.09730 310787.520000
   9897   9899     1   0.10969 276646.080000
   9898   9900     1   0.10969 276646.080000
   9901   9905     1   0.10969 276646.080000
   9902   9904     1   0.10969 276646.080000
   9903   9906     1   0.10961 277566.560000
   9908   9914     1   0.09730 310787.520000
   9909   9912     1   0.09730 310787.520000
   9910   9913     1   0.09730 310787.520000
   9911   9915     1   0.10969 276646.080000
   9911   9916     1   0.10969 276646.080000
   9917   9918     1   0.09730 310787.520000
   9920   9922     1   0.10969 276646.080000
   9921   9923     1   0.10969 276646.080000
   9924   9928     1   0.10969 276646.080000
   9925   9927     1   0.10969 276646.080000
   9926   9929     1   0.10961 277566.560000
   9931   9937     1   0.09730 310787.520000
   9932   9935     1   0.09730 310787.520000
   9933   9936     1   0.09730 310787.520000
   9934   9938     1   0.10969 276646.080000
   9934   9939     1   0.10969 276646.080000
   9940   9941     1   0.09730 310787.520000
   9943   9945     1   0.10969 276646.080000
   9944   9946     1   0.10969 276646.080000
   9947   9951     1   0.10969 276646.080000
   9948   9950     1   0.10969 276646.080000
   9949   9952     1   0.10961 277566.560000
   9954   9960     1   0.09730 310787.520000
   9955   9958     1   0.09730 310787.520000
   9956   9959     1   0.09730 310787.520000
   9957   9961     1   0.10969 276646.080000
   9957   9962     1   0.10969 276646.080000
   9963   9964     1   0.09730 310787.520000
   9966   9968     1   0.10969 276646.080000
   9967   9969     1   0.10969 276646.080000
   9970   9974     1   0.10969 276646.080000
   9971   9973     1   0.10969 276646.080000
   9972   9975     1   0.10961 277566.560000
   9977   9983     1   0.09730 310787.520000
   9978   9981     1   0.09730 310787.520000
   9979   9982     1   0.09730 310787.520000
   9980   9984     1   0.10969 276646.080000
   9980   9985     1   0.10969 276646.080000
   9986   9987     1   0.09730 310787.520000
   9989   9991     1   0.10969 276646.080000
   9990   9992     1   0.10969 276646.080000
   9993   9997     1   0.10969 276646.080000
   9994   9996     1   0.10969 276646.080000
   9995   9998     1   0.10961 277566.560000
  10000  10006     1   0.09730 310787.520000
  10001  10004     1   0.09730 310787.520000
  10002  10005     1   0.09730 310787.520000
  10003  10007     1   0.10969 276646.080000
  10003  10008     1   0.10969 276646.080000
  10009  10010     1   0.09730 310787.520000
  10012  10014     1   0.10969 276646.080000
  10013  10015     1   0.10969 276646.080000
  10016  10020     1   0.10969 276646.080000
  10017  10019     1   0.10969 276646.080000
  10018  10021     1   0.10961 277566.560000
  10023  10029     1   0.09730 310787.520000
  10024  10027     1   0.09730 310787.520000
  10025  10028     1   0.09730 310787.520000
  10026  10030     1   0.10969 276646.080000
  10026  10031     1   0.10969 276646.080000
  10032  10033     1   0.09730 310787.520000
  10035  10037     1   0.10969 276646.080000
  10036  10038     1   0.10969 276646.080000
  10039  10043     1   0.10969 276646.080000
  10040  10042     1   0.10969 276646.080000
  10041  10044     1   0.10961 277566.560000
  10046  10052     1   0.09730 310787.520000
  10047  10050     1   0.09730 310787.520000
  10048  10051     1   0.09730 310787.520000
  10049  10053     1   0.10969 276646.080000
  10049  10054     1   0.10969 276646.080000
  10055  10056     1   0.09730 310787.520000
  10058  10060     1   0.10969 276646.080000
  10059  10061     1   0.10969 276646.080000
  10062  10066     1   0.10969 276646.080000
  10063  10065     1   0.10969 276646.080000
  10064  10067     1   0.10961 277566.560000
  10069  10075     1   0.09730 310787.520000
  10070  10073     1   0.09730 310787.520000
  10071  10074     1   0.09730 310787.520000
  10072  10076     1   0.10969 276646.080000
  10072  10077     1   0.10969 276646.080000
  10078  10079     1   0.09730 310787.520000
  10081  10083     1   0.10969 276646.080000
  10082  10084     1   0.10969 276646.080000
  10085  10089     1   0.10969 276646.080000
  10086  10088     1   0.10969 276646.080000
  10087  10090     1   0.10961 277566.560000
  10092  10098     1   0.09730 310787.520000
  10093  10096     1   0.09730 310787.520000
  10094  10097     1   0.09730 310787.520000
  10095  10099     1   0.10969 276646.080000
  10095  10100     1   0.10969 276646.080000
  10101  10102     1   0.09730 310787.520000
  10104  10106     1   0.10969 276646.080000
  10105  10107     1   0.10969 276646.080000
  10108  10112     1   0.10969 276646.080000
  10109  10111     1   0.10969 276646.080000
  10110  10113     1   0.10961 277566.560000
  10115  10121     1   0.09730 310787.520000
  10116  10119     1   0.09730 310787.520000
  10117  10120     1   0.09730 310787.520000
  10118  10122     1   0.10969 276646.080000
  10118  10123     1   0.10969 276646.080000
  10124  10125     1   0.09730 310787.520000
  10127  10129     1   0.10969 276646.080000
  10128  10130     1   0.10969 276646.080000
  10131  10135     1   0.10969 276646.080000
  10132  10134     1   0.10969 276646.080000
  10133  10136     1   0.10961 277566.560000
  10138  10144     1   0.09730 310787.520000
  10139  10142     1   0.09730 310787.520000
  10140  10143     1   0.09730 310787.520000
  10141  10145     1   0.10969 276646.080000
  10141  10146     1   0.10969 276646.080000
  10147  10148     1   0.09730 310787.520000
  10150  10152     1   0.10969 276646.080000
  10151  10153     1   0.10969 276646.080000
  10154  10158     1   0.10969 276646.080000
  10155  10157     1   0.10969 276646.080000
  10156  10159     1   0.10961 277566.560000
  10161  10167     1   0.09730 310787.520000
  10162  10165     1   0.09730 310787.520000
  10163  10166     1   0.09730 310787.520000
  10164  10168     1   0.10969 276646.080000
  10164  10169     1   0.10969 276646.080000
  10170  10171     1   0.09730 310787.520000
  10173  10175     1   0.10969 276646.080000
  10174  10176     1   0.10969 276646.080000
  10177  10181     1   0.10969 276646.080000
  10178  10180     1   0.10969 276646.080000
  10179  10182     1   0.10961 277566.560000
  10184  10190     1   0.09730 310787.520000
  10185  10188     1   0.09730 310787.520000
  10186  10189     1   0.09730 310787.520000
  10187  10191     1   0.10969 276646.080000
  10187  10192     1   0.10969 276646.080000
  10193  10194     1   0.09730 310787.520000
  10196  10198     1   0.10969 276646.080000
  10197  10199     1   0.10969 276646.080000
  10200  10204     1   0.10969 276646.080000
  10201  10203     1   0.10969 276646.080000
  10202  10205     1   0.10961 277566.560000
  10207  10213     1   0.09730 310787.520000
  10208  10211     1   0.09730 310787.520000
  10209  10212     1   0.09730 310787.520000
  10210  10214     1   0.10969 276646.080000
  10210  10215     1   0.10969 276646.080000
  10216  10217     1   0.09730 310787.520000
  10219  10221     1   0.10969 276646.080000
  10220  10222     1   0.10969 276646.080000
  10223  10227     1   0.10969 276646.080000
  10224  10226     1   0.10969 276646.080000
  10225  10228     1   0.10961 277566.560000
  10230  10236     1   0.09730 310787.520000
  10231  10234     1   0.09730 310787.520000
  10232  10235     1   0.09730 310787.520000
  10233  10237     1   0.10969 276646.080000
  10233  10238     1   0.10969 276646.080000
  10239  10240     1   0.09730 310787.520000
  10242  10244     1   0.10969 276646.080000
  10243  10245     1   0.10969 276646.080000
  10246  10250     1   0.10969 276646.080000
  10247  10249     1   0.10969 276646.080000
  10248  10251     1   0.10961 277566.560000
  10253  10259     1   0.09730 310787.520000
  10254  10257     1   0.09730 310787.520000
  10255  10258     1   0.09730 310787.520000
  10256  10260     1   0.10969 276646.080000
  10256  10261     1   0.10969 276646.080000
  10262  10263     1   0.09730 310787.520000
  10265  10267     1   0.10969 276646.080000
  10266  10268     1   0.10969 276646.080000
  10269  10273     1   0.10969 276646.080000
  10270  10272     1   0.10969 276646.080000
  10271  10274     1   0.10961 277566.560000
  10276  10282     1   0.09730 310787.520000
  10277  10280     1   0.09730 310787.520000
  10278  10281     1   0.09730 310787.520000
  10279  10283     1   0.10969 276646.080000
  10279  10284     1   0.10969 276646.080000
  10285  10286     1   0.09730 310787.520000
  10288  10290     1   0.10969 276646.080000
  10289  10291     1   0.10969 276646.080000
  10292  10296     1   0.10969 276646.080000
  10293  10295     1   0.10969 276646.080000
  10294  10297     1   0.10961 277566.560000
  10299  10305     1   0.09730 310787.520000
  10300  10303     1   0.09730 310787.520000
  10301  10304     1   0.09730 310787.520000
  10302  10306     1   0.10969 276646.080000
  10302  10307     1   0.10969 276646.080000
  10308  10309     1   0.09730 310787.520000
  10311  10313     1   0.10969 276646.080000
  10312  10314     1   0.10969 276646.080000
  10315  10319     1   0.10969 276646.080000
  10316  10318     1   0.10969 276646.080000
  10317  10320     1   0.10961 277566.560000
  10322  10328     1   0.09730 310787.520000
  10323  10326     1   0.09730 310787.520000
  10324  10327     1   0.09730 310787.520000
  10325  10329     1   0.10969 276646.080000
  10325  10330     1   0.10969 276646.080000
  10331  10332     1   0.09730 310787.520000
  10334  10336     1   0.10969 276646.080000
  10335  10337     1   0.10969 276646.080000
  10338  10342     1   0.10969 276646.080000
  10339  10341     1   0.10969 276646.080000
  10340  10343     1   0.10961 277566.560000
  10345  10351     1   0.09730 310787.520000
  10346  10349     1   0.09730 310787.520000
  10347  10350     1   0.09730 310787.520000
  10348  10352     1   0.10969 276646.080000
  10348  10353     1   0.10969 276646.080000
  10354  10355     1   0.09730 310787.520000
  10357  10359     1   0.10969 276646.080000
  10358  10360     1   0.10969 276646.080000
  10361  10365     1   0.10969 276646.080000
  10362  10364     1   0.10969 276646.080000
  10363  10366     1   0.10961 277566.560000
  10368  10374     1   0.09730 310787.520000
  10369  10372     1   0.09730 310787.520000
  10370  10373     1   0.09730 310787.520000
  10371  10375     1   0.10969 276646.080000
  10371  10376     1   0.10969 276646.080000
  10377  10378     1   0.09730 310787.520000
  10380  10382     1   0.10969 276646.080000
  10381  10383     1   0.10969 276646.080000
  10384  10388     1   0.10969 276646.080000
  10385  10387     1   0.10969 276646.080000
  10386  10389     1   0.10961 277566.560000
  10391  10397     1   0.09730 310787.520000
  10392  10395     1   0.09730 310787.520000
  10393  10396     1   0.09730 310787.520000
  10394  10398     1   0.10969 276646.080000
  10394  10399     1   0.10969 276646.080000
  10400  10401     1   0.09730 310787.520000
  10403  10405     1   0.10969 276646.080000
  10404  10406     1   0.10969 276646.080000
  10407  10411     1   0.10969 276646.080000
  10408  10410     1   0.10969 276646.080000
  10409  10412     1   0.10961 277566.560000
  10414  10420     1   0.09730 310787.520000
  10415  10418     1   0.09730 310787.520000
  10416  10419     1   0.09730 310787.520000
  10417  10421     1   0.10969 276646.080000
  10417  10422     1   0.10969 276646.080000
  10423  10424     1   0.09730 310787.520000
  10426  10428     1   0.10969 276646.080000
  10427  10429     1   0.10969 276646.080000
  10430  10434     1   0.10969 276646.080000
  10431  10433     1   0.10969 276646.080000
  10432  10435     1   0.10961 277566.560000
  10437  10443     1   0.09730 310787.520000
  10438  10441     1   0.09730 310787.520000
  10439  10442     1   0.09730 310787.520000
  10440  10444     1   0.10969 276646.080000
  10440  10445     1   0.10969 276646.080000
  10446  10447     1   0.09730 310787.520000
  10449  10451     1   0.10969 276646.080000
  10450  10452     1   0.10969 276646.080000
  10453  10457     1   0.10969 276646.080000
  10454  10456     1   0.10969 276646.080000
  10455  10458     1   0.10961 277566.560000
  10460  10466     1   0.09730 310787.520000
  10461  10464     1   0.09730 310787.520000
  10462  10465     1   0.09730 310787.520000
  10463  10467     1   0.10969 276646.080000
  10463  10468     1   0.10969 276646.080000
  10469  10470     1   0.09730 310787.520000
  10472  10474     1   0.10969 276646.080000
  10473  10475     1   0.10969 276646.080000
  10476  10480     1   0.10969 276646.080000
  10477  10479     1   0.10969 276646.080000
  10478  10481     1   0.10961 277566.560000
  10483  10489     1   0.09730 310787.520000
  10484  10487     1   0.09730 310787.520000
  10485  10488     1   0.09730 310787.520000
  10486  10490     1   0.10969 276646.080000
  10486  10491     1   0.10969 276646.080000
  10492  10493     1   0.09730 310787.520000
  10495  10497     1   0.10969 276646.080000
  10496  10498     1   0.10969 276646.080000
  10499  10503     1   0.10969 276646.080000
  10500  10502     1   0.10969 276646.080000
  10501  10504     1   0.10961 277566.560000
  10506  10512     1   0.09730 310787.520000
  10507  10510     1   0.09730 310787.520000
  10508  10511     1   0.09730 310787.520000
  10509  10513     1   0.10969 276646.080000
  10509  10514     1   0.10969 276646.080000
  10515  10516     1   0.09730 310787.520000
  10518  10520     1   0.10969 276646.080000
  10519  10521     1   0.10969 276646.080000
  10522  10526     1   0.10969 276646.080000
  10523  10525     1   0.10969 276646.080000
  10524  10527     1   0.10961 277566.560000
  10529  10535     1   0.09730 310787.520000
  10530  10533     1   0.09730 310787.520000
  10531  10534     1   0.09730 310787.520000
  10532  10536     1   0.10969 276646.080000
  10532  10537     1   0.10969 276646.080000
  10538  10539     1   0.09730 310787.520000
  10541  10543     1   0.10969 276646.080000
  10542  10544     1   0.10969 276646.080000
  10545  10549     1   0.10969 276646.080000
  10546  10548     1   0.10969 276646.080000
  10547  10550     1   0.10961 277566.560000
  10552  10558     1   0.09730 310787.520000
  10553  10556     1   0.09730 310787.520000
  10554  10557     1   0.09730 310787.520000
  10555  10559     1   0.10969 276646.080000
  10555  10560     1   0.10969 276646.080000
  10561  10562     1   0.09730 310787.520000
  10564  10566     1   0.10969 276646.080000
  10565  10567     1   0.10969 276646.080000
  10568  10572     1   0.10969 276646.080000
  10569  10571     1   0.10969 276646.080000
  10570  10573     1   0.10961 277566.560000
  10575  10581     1   0.09730 310787.520000
  10576  10579     1   0.09730 310787.520000
  10577  10580     1   0.09730 310787.520000
  10578  10582     1   0.10969 276646.080000
  10578  10583     1   0.10969 276646.080000
  10584  10585     1   0.09730 310787.520000
  10587  10589     1   0.10969 276646.080000
  10588  10590     1   0.10969 276646.080000
  10591  10595     1   0.10969 276646.080000
  10592  10594     1   0.10969 276646.080000
  10593  10596     1   0.10961 277566.560000
  10598  10604     1   0.09730 310787.520000
  10599  10602     1   0.09730 310787.520000
  10600  10603     1   0.09730 310787.520000
  10601  10605     1   0.10969 276646.080000
  10601  10606     1   0.10969 276646.080000
  10607  10608     1   0.09730 310787.520000
  10610  10612     1   0.10969 276646.080000
  10611  10613     1   0.10969 276646.080000
  10614  10618     1   0.10969 276646.080000
  10615  10617     1   0.10969 276646.080000
  10616  10619     1   0.10961 277566.560000
  10621  10627     1   0.09730 310787.520000
  10622  10625     1   0.09730 310787.520000
  10623  10626     1   0.09730 310787.520000
  10624  10628     1   0.10969 276646.080000
  10624  10629     1   0.10969 276646.080000
  10630  10631     1   0.09730 310787.520000
  10633  10635     1   0.10969 276646.080000
  10634  10636     1   0.10969 276646.080000
  10637  10641     1   0.10969 276646.080000
  10638  10640     1   0.10969 276646.080000
  10639  10642     1   0.10961 277566.560000
  10644  10650     1   0.09730 310787.520000
  10645  10648     1   0.09730 310787.520000
  10646  10649     1   0.09730 310787.520000
  10647  10651     1   0.10969 276646.080000
  10647  10652     1   0.10969 276646.080000
  10653  10654     1   0.09730 310787.520000
  10656  10658     1   0.10969 276646.080000
  10657  10659     1   0.10969 276646.080000
  10660  10664     1   0.10969 276646.080000
  10661  10663     1   0.10969 276646.080000
  10662  10665     1   0.10961 277566.560000
  10667  10673     1   0.09730 310787.520000
  10668  10671     1   0.09730 310787.520000
  10669  10672     1   0.09730 310787.520000
  10670  10674     1   0.10969 276646.080000
  10670  10675     1   0.10969 276646.080000
  10676  10677     1   0.09730 310787.520000
  10679  10681     1   0.10969 276646.080000
  10680  10682     1   0.10969 276646.080000
  10683  10687     1   0.10969 276646.080000
  10684  10686     1   0.10969 276646.080000
  10685  10688     1   0.10961 277566.560000
  10690  10696     1   0.09730 310787.520000
  10691  10694     1   0.09730 310787.520000
  10692  10695     1   0.09730 310787.520000
  10693  10697     1   0.10969 276646.080000
  10693  10698     1   0.10969 276646.080000
  10699  10700     1   0.09730 310787.520000
  10702  10704     1   0.10969 276646.080000
  10703  10705     1   0.10969 276646.080000
  10706  10710     1   0.10969 276646.080000
  10707  10709     1   0.10969 276646.080000
  10708  10711     1   0.10961 277566.560000
  10713  10719     1   0.09730 310787.520000
  10714  10717     1   0.09730 310787.520000
  10715  10718     1   0.09730 310787.520000
  10716  10720     1   0.10969 276646.080000
  10716  10721     1   0.10969 276646.080000
  10722  10723     1   0.09730 310787.520000
  10725  10727     1   0.10969 276646.080000
  10726  10728     1   0.10969 276646.080000
  10729  10733     1   0.10969 276646.080000
  10730  10732     1   0.10969 276646.080000
  10731  10734     1   0.10961 277566.560000
  10736  10742     1   0.09730 310787.520000
  10737  10740     1   0.09730 310787.520000
  10738  10741     1   0.09730 310787.520000
  10739  10743     1   0.10969 276646.080000
  10739  10744     1   0.10969 276646.080000
  10745  10746     1   0.09730 310787.520000
  10748  10750     1   0.10969 276646.080000
  10749  10751     1   0.10969 276646.080000
  10752  10756     1   0.10969 276646.080000
  10753  10755     1   0.10969 276646.080000
  10754  10757     1   0.10961 277566.560000
  10759  10765     1   0.09730 310787.520000
  10760  10763     1   0.09730 310787.520000
  10761  10764     1   0.09730 310787.520000
  10762  10766     1   0.10969 276646.080000
  10762  10767     1   0.10969 276646.080000
  10768  10769     1   0.09730 310787.520000
  10771  10773     1   0.10969 276646.080000
  10772  10774     1   0.10969 276646.080000
  10775  10779     1   0.10969 276646.080000
  10776  10778     1   0.10969 276646.080000
  10777  10780     1   0.10961 277566.560000
  10782  10788     1   0.09730 310787.520000
  10783  10786     1   0.09730 310787.520000
  10784  10787     1   0.09730 310787.520000
  10785  10789     1   0.10969 276646.080000
  10785  10790     1   0.10969 276646.080000
  10791  10792     1   0.09730 310787.520000
  10794  10796     1   0.10969 276646.080000
  10795  10797     1   0.10969 276646.080000
  10798  10802     1   0.10969 276646.080000
  10799  10801     1   0.10969 276646.080000
  10800  10803     1   0.10961 277566.560000
  10805  10811     1   0.09730 310787.520000
  10806  10809     1   0.09730 310787.520000
  10807  10810     1   0.09730 310787.520000
  10808  10812     1   0.10969 276646.080000
  10808  10813     1   0.10969 276646.080000
  10814  10815     1   0.09730 310787.520000
  10817  10819     1   0.10969 276646.080000
  10818  10820     1   0.10969 276646.080000
  10821  10825     1   0.10969 276646.080000
  10822  10824     1   0.10969 276646.080000
  10823  10826     1   0.10961 277566.560000
  10828  10834     1   0.09730 310787.520000
  10829  10832     1   0.09730 310787.520000
  10830  10833     1   0.09730 310787.520000
  10831  10835     1   0.10969 276646.080000
  10831  10836     1   0.10969 276646.080000
  10837  10838     1   0.09730 310787.520000
  10840  10842     1   0.10969 276646.080000
  10841  10843     1   0.10969 276646.080000
  10844  10848     1   0.10969 276646.080000
  10845  10847     1   0.10969 276646.080000
  10846  10849     1   0.10961 277566.560000
  10851  10857     1   0.09730 310787.520000
  10852  10855     1   0.09730 310787.520000
  10853  10856     1   0.09730 310787.520000
  10854  10858     1   0.10969 276646.080000
  10854  10859     1   0.10969 276646.080000
  10860  10861     1   0.09730 310787.520000
  10863  10865     1   0.10969 276646.080000
  10864  10866     1   0.10969 276646.080000
  10867  10871     1   0.10969 276646.080000
  10868  10870     1   0.10969 276646.080000
  10869  10872     1   0.10961 277566.560000
  10874  10880     1   0.09730 310787.520000
  10875  10878     1   0.09730 310787.520000
  10876  10879     1   0.09730 310787.520000
  10877  10881     1   0.10969 276646.080000
  10877  10882     1   0.10969 276646.080000
  10883  10884     1   0.09730 310787.520000
  10886  10888     1   0.10969 276646.080000
  10887  10889     1   0.10969 276646.080000
  10890  10894     1   0.10969 276646.080000
  10891  10893     1   0.10969 276646.080000
  10892  10895     1   0.10961 277566.560000
  10897  10903     1   0.09730 310787.520000
  10898  10901     1   0.09730 310787.520000
  10899  10902     1   0.09730 310787.520000
  10900  10904     1   0.10969 276646.080000
  10900  10905     1   0.10969 276646.080000
  10906  10907     1   0.09730 310787.520000
  10909  10911     1   0.10969 276646.080000
  10910  10912     1   0.10969 276646.080000
  10913  10917     1   0.10969 276646.080000
  10914  10916     1   0.10969 276646.080000
  10915  10918     1   0.10961 277566.560000
  10920  10926     1   0.09730 310787.520000
  10921  10924     1   0.09730 310787.520000
  10922  10925     1   0.09730 310787.520000
  10923  10927     1   0.10969 276646.080000
  10923  10928     1   0.10969 276646.080000
  10929  10930     1   0.09730 310787.520000
  10932  10934     1   0.10969 276646.080000
  10933  10935     1   0.10969 276646.080000
  10936  10940     1   0.10969 276646.080000
  10937  10939     1   0.10969 276646.080000
  10938  10941     1   0.10961 277566.560000
  10943  10949     1   0.09730 310787.520000
  10944  10947     1   0.09730 310787.520000
  10945  10948     1   0.09730 310787.520000
  10946  10950     1   0.10969 276646.080000
  10946  10951     1   0.10969 276646.080000
  10952  10953     1   0.09730 310787.520000
  10955  10957     1   0.10969 276646.080000
  10956  10958     1   0.10969 276646.080000
  10959  10963     1   0.10969 276646.080000
  10960  10962     1   0.10969 276646.080000
  10961  10964     1   0.10961 277566.560000
  10966  10972     1   0.09730 310787.520000
  10967  10970     1   0.09730 310787.520000
  10968  10971     1   0.09730 310787.520000
  10969  10973     1   0.10969 276646.080000
  10969  10974     1   0.10969 276646.080000
  10975  10976     1   0.09730 310787.520000
  10978  10980     1   0.10969 276646.080000
  10979  10981     1   0.10969 276646.080000
  10982  10986     1   0.10969 276646.080000
  10983  10985     1   0.10969 276646.080000
  10984  10987     1   0.10961 277566.560000
  10989  10995     1   0.09730 310787.520000
  10990  10993     1   0.09730 310787.520000
  10991  10994     1   0.09730 310787.520000
  10992  10996     1   0.10969 276646.080000
  10992  10997     1   0.10969 276646.080000
  10998  10999     1   0.09730 310787.520000
  11001  11003     1   0.10969 276646.080000
  11002  11004     1   0.10969 276646.080000
  11005  11009     1   0.10969 276646.080000
  11006  11008     1   0.10969 276646.080000
  11007  11010     1   0.10961 277566.560000
  11012  11018     1   0.09730 310787.520000
  11013  11016     1   0.09730 310787.520000
  11014  11017     1   0.09730 310787.520000
  11015  11019     1   0.10969 276646.080000
  11015  11020     1   0.10969 276646.080000
  11021  11022     1   0.09730 310787.520000
  11024  11026     1   0.10969 276646.080000
  11025  11027     1   0.10969 276646.080000
  11028  11032     1   0.10969 276646.080000
  11029  11031     1   0.10969 276646.080000
  11030  11033     1   0.10961 277566.560000
  11035  11041     1   0.09730 310787.520000
  11036  11039     1   0.09730 310787.520000
  11037  11040     1   0.09730 310787.520000
  11038  11042     1   0.10969 276646.080000
  11038  11043     1   0.10969 276646.080000
  11044  11045     1   0.09730 310787.520000
  11047  11049     1   0.10969 276646.080000
  11048  11050     1   0.10969 276646.080000
  11051  11055     1   0.10969 276646.080000
  11052  11054     1   0.10969 276646.080000
  11053  11056     1   0.10961 277566.560000
  11058  11064     1   0.09730 310787.520000
  11059  11062     1   0.09730 310787.520000
  11060  11063     1   0.09730 310787.520000
  11061  11065     1   0.10969 276646.080000
  11061  11066     1   0.10969 276646.080000
  11067  11068     1   0.09730 310787.520000
  11070  11072     1   0.10969 276646.080000
  11071  11073     1   0.10969 276646.080000
  11074  11078     1   0.10969 276646.080000
  11075  11077     1   0.10969 276646.080000
  11076  11079     1   0.10961 277566.560000
  11081  11087     1   0.09730 310787.520000
  11082  11085     1   0.09730 310787.520000
  11083  11086     1   0.09730 310787.520000
  11084  11088     1   0.10969 276646.080000
  11084  11089     1   0.10969 276646.080000
  11090  11091     1   0.09730 310787.520000
  11093  11095     1   0.10969 276646.080000
  11094  11096     1   0.10969 276646.080000
  11097  11101     1   0.10969 276646.080000
  11098  11100     1   0.10969 276646.080000
  11099  11102     1   0.10961 277566.560000
  11104  11110     1   0.09730 310787.520000
  11105  11108     1   0.09730 310787.520000
  11106  11109     1   0.09730 310787.520000
  11107  11111     1   0.10969 276646.080000
  11107  11112     1   0.10969 276646.080000
  11113  11114     1   0.09730 310787.520000
  11116  11118     1   0.10969 276646.080000
  11117  11119     1   0.10969 276646.080000
  11120  11124     1   0.10969 276646.080000
  11121  11123     1   0.10969 276646.080000
  11122  11125     1   0.10961 277566.560000
  11127  11133     1   0.09730 310787.520000
  11128  11131     1   0.09730 310787.520000
  11129  11132     1   0.09730 310787.520000
  11130  11134     1   0.10969 276646.080000
  11130  11135     1   0.10969 276646.080000
  11136  11137     1   0.09730 310787.520000
  11139  11141     1   0.10969 276646.080000
  11140  11142     1   0.10969 276646.080000
  11143  11147     1   0.10969 276646.080000
  11144  11146     1   0.10969 276646.080000
  11145  11148     1   0.10961 277566.560000
  11150  11156     1   0.09730 310787.520000
  11151  11154     1   0.09730 310787.520000
  11152  11155     1   0.09730 310787.520000
  11153  11157     1   0.10969 276646.080000
  11153  11158     1   0.10969 276646.080000
  11159  11160     1   0.09730 310787.520000
  11162  11164     1   0.10969 276646.080000
  11163  11165     1   0.10969 276646.080000
  11166  11170     1   0.10969 276646.080000
  11167  11169     1   0.10969 276646.080000
  11168  11171     1   0.10961 277566.560000
  11173  11179     1   0.09730 310787.520000
  11174  11177     1   0.09730 310787.520000
  11175  11178     1   0.09730 310787.520000
  11176  11180     1   0.10969 276646.080000
  11176  11181     1   0.10969 276646.080000
  11182  11183     1   0.09730 310787.520000
  11185  11187     1   0.10969 276646.080000
  11186  11188     1   0.10969 276646.080000
  11189  11193     1   0.10969 276646.080000
  11190  11192     1   0.10969 276646.080000
  11191  11194     1   0.10961 277566.560000
  11196  11202     1   0.09730 310787.520000
  11197  11200     1   0.09730 310787.520000
  11198  11201     1   0.09730 310787.520000
  11199  11203     1   0.10969 276646.080000
  11199  11204     1   0.10969 276646.080000
  11205  11206     1   0.09730 310787.520000
  11208  11210     1   0.10969 276646.080000
  11209  11211     1   0.10969 276646.080000
  11212  11216     1   0.10969 276646.080000
  11213  11215     1   0.10969 276646.080000
  11214  11217     1   0.10961 277566.560000
  11219  11225     1   0.09730 310787.520000
  11220  11223     1   0.09730 310787.520000
  11221  11224     1   0.09730 310787.520000
  11222  11226     1   0.10969 276646.080000
  11222  11227     1   0.10969 276646.080000
  11228  11229     1   0.09730 310787.520000
  11231  11233     1   0.10969 276646.080000
  11232  11234     1   0.10969 276646.080000
  11235  11239     1   0.10969 276646.080000
  11236  11238     1   0.10969 276646.080000
  11237  11240     1   0.10961 277566.560000
  11242  11248     1   0.09730 310787.520000
  11243  11246     1   0.09730 310787.520000
  11244  11247     1   0.09730 310787.520000
  11245  11249     1   0.10969 276646.080000
  11245  11250     1   0.10969 276646.080000
  11251  11252     1   0.09730 310787.520000
  11254  11256     1   0.10969 276646.080000
  11255  11257     1   0.10969 276646.080000
  11258  11262     1   0.10969 276646.080000
  11259  11261     1   0.10969 276646.080000
  11260  11263     1   0.10961 277566.560000
  11265  11271     1   0.09730 310787.520000
  11266  11269     1   0.09730 310787.520000
  11267  11270     1   0.09730 310787.520000
  11268  11272     1   0.10969 276646.080000
  11268  11273     1   0.10969 276646.080000
  11274  11275     1   0.09730 310787.520000
  11277  11279     1   0.10969 276646.080000
  11278  11280     1   0.10969 276646.080000
  11281  11285     1   0.10969 276646.080000
  11282  11284     1   0.10969 276646.080000
  11283  11286     1   0.10961 277566.560000
  11288  11294     1   0.09730 310787.520000
  11289  11292     1   0.09730 310787.520000
  11290  11293     1   0.09730 310787.520000
  11291  11295     1   0.10969 276646.080000
  11291  11296     1   0.10969 276646.080000
  11297  11298     1   0.09730 310787.520000
  11300  11302     1   0.10969 276646.080000
  11301  11303     1   0.10969 276646.080000
  11304  11308     1   0.10969 276646.080000
  11305  11307     1   0.10969 276646.080000
  11306  11309     1   0.10961 277566.560000
  11311  11317     1   0.09730 310787.520000
  11312  11315     1   0.09730 310787.520000
  11313  11316     1   0.09730 310787.520000
  11314  11318     1   0.10969 276646.080000
  11314  11319     1   0.10969 276646.080000
  11320  11321     1   0.09730 310787.520000
  11323  11325     1   0.10969 276646.080000
  11324  11326     1   0.10969 276646.080000
  11327  11331     1   0.10969 276646.080000
  11328  11330     1   0.10969 276646.080000
  11329  11332     1   0.10961 277566.560000
  11334  11340     1   0.09730 310787.520000
  11335  11338     1   0.09730 310787.520000
  11336  11339     1   0.09730 310787.520000
  11337  11341     1   0.10969 276646.080000
  11337  11342     1   0.10969 276646.080000
  11343  11344     1   0.09730 310787.520000
  11346  11348     1   0.10969 276646.080000
  11347  11349     1   0.10969 276646.080000
  11350  11354     1   0.10969 276646.080000
  11351  11353     1   0.10969 276646.080000
  11352  11355     1   0.10961 277566.560000
  11357  11363     1   0.09730 310787.520000
  11358  11361     1   0.09730 310787.520000
  11359  11362     1   0.09730 310787.520000
  11360  11364     1   0.10969 276646.080000
  11360  11365     1   0.10969 276646.080000
  11366  11367     1   0.09730 310787.520000
  11369  11371     1   0.10969 276646.080000
  11370  11372     1   0.10969 276646.080000
  11373  11377     1   0.10969 276646.080000
  11374  11376     1   0.10969 276646.080000
  11375  11378     1   0.10961 277566.560000
  11380  11386     1   0.09730 310787.520000
  11381  11384     1   0.09730 310787.520000
  11382  11385     1   0.09730 310787.520000
  11383  11387     1   0.10969 276646.080000
  11383  11388     1   0.10969 276646.080000
  11389  11390     1   0.09730 310787.520000
  11392  11394     1   0.10969 276646.080000
  11393  11395     1   0.10969 276646.080000
  11396  11400     1   0.10969 276646.080000
  11397  11399     1   0.10969 276646.080000
  11398  11401     1   0.10961 277566.560000
  11403  11409     1   0.09730 310787.520000
  11404  11407     1   0.09730 310787.520000
  11405  11408     1   0.09730 310787.520000
  11406  11410     1   0.10969 276646.080000
  11406  11411     1   0.10969 276646.080000
  11412  11413     1   0.09730 310787.520000
  11415  11417     1   0.10969 276646.080000
  11416  11418     1   0.10969 276646.080000
  11419  11423     1   0.10969 276646.080000
  11420  11422     1   0.10969 276646.080000
  11421  11424     1   0.10961 277566.560000
  11426  11432     1   0.09730 310787.520000
  11427  11430     1   0.09730 310787.520000
  11428  11431     1   0.09730 310787.520000
  11429  11433     1   0.10969 276646.080000
  11429  11434     1   0.10969 276646.080000
  11435  11436     1   0.09730 310787.520000
  11438  11440     1   0.10969 276646.080000
  11439  11441     1   0.10969 276646.080000
  11442  11446     1   0.10969 276646.080000
  11443  11445     1   0.10969 276646.080000
  11444  11447     1   0.10961 277566.560000
  11449  11455     1   0.09730 310787.520000
  11450  11453     1   0.09730 310787.520000
  11451  11454     1   0.09730 310787.520000
  11452  11456     1   0.10969 276646.080000
  11452  11457     1   0.10969 276646.080000
  11458  11459     1   0.09730 310787.520000
  11461  11463     1   0.10969 276646.080000
  11462  11464     1   0.10969 276646.080000
  11465  11469     1   0.10969 276646.080000
  11466  11468     1   0.10969 276646.080000
  11467  11470     1   0.10961 277566.560000
  11472  11478     1   0.09730 310787.520000
  11473  11476     1   0.09730 310787.520000
  11474  11477     1   0.09730 310787.520000
  11475  11479     1   0.10969 276646.080000
  11475  11480     1   0.10969 276646.080000
  11481  11482     1   0.09730 310787.520000
  11484  11486     1   0.10969 276646.080000
  11485  11487     1   0.10969 276646.080000
  11488  11492     1   0.10969 276646.080000
  11489  11491     1   0.10969 276646.080000
  11490  11493     1   0.10961 277566.560000
  11495  11501     1   0.09730 310787.520000
  11496  11499     1   0.09730 310787.520000
  11497  11500     1   0.09730 310787.520000
  11498  11502     1   0.10969 276646.080000
  11498  11503     1   0.10969 276646.080000
  11504  11505     1   0.09730 310787.520000
  11507  11509     1   0.10969 276646.080000
  11508  11510     1   0.10969 276646.080000
  11511  11515     1   0.10969 276646.080000
  11512  11514     1   0.10969 276646.080000
  11513  11516     1   0.10961 277566.560000
  11518  11524     1   0.09730 310787.520000
  11519  11522     1   0.09730 310787.520000
  11520  11523     1   0.09730 310787.520000
  11521  11525     1   0.10969 276646.080000
  11521  11526     1   0.10969 276646.080000
  11527  11528     1   0.09730 310787.520000
  11530  11532     1   0.10969 276646.080000
  11531  11533     1   0.10969 276646.080000
  11534  11538     1   0.10969 276646.080000
  11535  11537     1   0.10969 276646.080000
  11536  11539     1   0.10961 277566.560000
  11541  11547     1   0.09730 310787.520000
  11542  11545     1   0.09730 310787.520000
  11543  11546     1   0.09730 310787.520000
  11544  11548     1   0.10969 276646.080000
  11544  11549     1   0.10969 276646.080000
  11550  11551     1   0.09730 310787.520000
  11553  11555     1   0.10969 276646.080000
  11554  11556     1   0.10969 276646.080000
  11557  11561     1   0.10969 276646.080000
  11558  11560     1   0.10969 276646.080000
  11559  11562     1   0.10961 277566.560000
  11564  11570     1   0.09730 310787.520000
  11565  11568     1   0.09730 310787.520000
  11566  11569     1   0.09730 310787.520000
  11567  11571     1   0.10969 276646.080000
  11567  11572     1   0.10969 276646.080000
  11573  11574     1   0.09730 310787.520000
  11576  11578     1   0.10969 276646.080000
  11577  11579     1   0.10969 276646.080000
  11580  11584     1   0.10969 276646.080000
  11581  11583     1   0.10969 276646.080000
  11582  11585     1   0.10961 277566.560000
  11587  11593     1   0.09730 310787.520000
  11588  11591     1   0.09730 310787.520000
  11589  11592     1   0.09730 310787.520000
  11590  11594     1   0.10969 276646.080000
  11590  11595     1   0.10969 276646.080000
  11596  11597     1   0.09730 310787.520000
  11599  11601     1   0.10969 276646.080000
  11600  11602     1   0.10969 276646.080000
  11603  11607     1   0.10969 276646.080000
  11604  11606     1   0.10969 276646.080000
  11605  11608     1   0.10961 277566.560000
  11610  11616     1   0.09730 310787.520000
  11611  11614     1   0.09730 310787.520000
  11612  11615     1   0.09730 310787.520000
  11613  11617     1   0.10969 276646.080000
  11613  11618     1   0.10969 276646.080000
  11619  11620     1   0.09730 310787.520000
  11622  11624     1   0.10969 276646.080000
  11623  11625     1   0.10969 276646.080000
  11626  11630     1   0.10969 276646.080000
  11627  11629     1   0.10969 276646.080000
  11628  11631     1   0.10961 277566.560000
  11633  11639     1   0.09730 310787.520000
  11634  11637     1   0.09730 310787.520000
  11635  11638     1   0.09730 310787.520000
  11636  11640     1   0.10969 276646.080000
  11636  11641     1   0.10969 276646.080000
  11642  11643     1   0.09730 310787.520000
  11645  11647     1   0.10969 276646.080000
  11646  11648     1   0.10969 276646.080000
  11649  11653     1   0.10969 276646.080000
  11650  11652     1   0.10969 276646.080000
  11651  11654     1   0.10961 277566.560000
  11656  11662     1   0.09730 310787.520000
  11657  11660     1   0.09730 310787.520000
  11658  11661     1   0.09730 310787.520000
  11659  11663     1   0.10969 276646.080000
  11659  11664     1   0.10969 276646.080000
  11665  11666     1   0.09730 310787.520000
  11668  11670     1   0.10969 276646.080000
  11669  11671     1   0.10969 276646.080000
  11672  11676     1   0.10969 276646.080000
  11673  11675     1   0.10969 276646.080000
  11674  11677     1   0.10961 277566.560000
  11679  11685     1   0.09730 310787.520000
  11680  11683     1   0.09730 310787.520000
  11681  11684     1   0.09730 310787.520000
  11682  11686     1   0.10969 276646.080000
  11682  11687     1   0.10969 276646.080000
  11688  11689     1   0.09730 310787.520000
  11691  11693     1   0.10969 276646.080000
  11692  11694     1   0.10969 276646.080000
  11695  11699     1   0.10969 276646.080000
  11696  11698     1   0.10969 276646.080000
  11697  11700     1   0.10961 277566.560000
  11702  11708     1   0.09730 310787.520000
  11703  11706     1   0.09730 310787.520000
  11704  11707     1   0.09730 310787.520000
  11705  11709     1   0.10969 276646.080000
  11705  11710     1   0.10969 276646.080000
  11711  11712     1   0.09730 310787.520000
  11714  11716     1   0.10969 276646.080000
  11715  11717     1   0.10969 276646.080000
  11718  11722     1   0.10969 276646.080000
  11719  11721     1   0.10969 276646.080000
  11720  11723     1   0.10961 277566.560000
  11725  11731     1   0.09730 310787.520000
  11726  11729     1   0.09730 310787.520000
  11727  11730     1   0.09730 310787.520000
  11728  11732     1   0.10969 276646.080000
  11728  11733     1   0.10969 276646.080000
  11734  11735     1   0.09730 310787.520000
  11737  11739     1   0.10969 276646.080000
  11738  11740     1   0.10969 276646.080000
  11741  11745     1   0.10969 276646.080000
  11742  11744     1   0.10969 276646.080000
  11743  11746     1   0.10961 277566.560000
  11748  11754     1   0.09730 310787.520000
  11749  11752     1   0.09730 310787.520000
  11750  11753     1   0.09730 310787.520000
  11751  11755     1   0.10969 276646.080000
  11751  11756     1   0.10969 276646.080000
  11757  11758     1   0.09730 310787.520000
  11760  11762     1   0.10969 276646.080000
  11761  11763     1   0.10969 276646.080000
  11764  11768     1   0.10969 276646.080000
  11765  11767     1   0.10969 276646.080000
  11766  11769     1   0.10961 277566.560000
  11771  11777     1   0.09730 310787.520000
  11772  11775     1   0.09730 310787.520000
  11773  11776     1   0.09730 310787.520000
  11774  11778     1   0.10969 276646.080000
  11774  11779     1   0.10969 276646.080000
  11780  11781     1   0.09730 310787.520000
  11783  11785     1   0.10969 276646.080000
  11784  11786     1   0.10969 276646.080000
  11787  11791     1   0.10969 276646.080000
  11788  11790     1   0.10969 276646.080000
  11789  11792     1   0.10961 277566.560000
  11794  11800     1   0.09730 310787.520000
  11795  11798     1   0.09730 310787.520000
  11796  11799     1   0.09730 310787.520000
  11797  11801     1   0.10969 276646.080000
  11797  11802     1   0.10969 276646.080000
  11803  11804     1   0.09730 310787.520000
  11806  11808     1   0.10969 276646.080000
  11807  11809     1   0.10969 276646.080000
  11810  11814     1   0.10969 276646.080000
  11811  11813     1   0.10969 276646.080000
  11812  11815     1   0.10961 277566.560000
  11817  11823     1   0.09730 310787.520000
  11818  11821     1   0.09730 310787.520000
  11819  11822     1   0.09730 310787.520000
  11820  11824     1   0.10969 276646.080000
  11820  11825     1   0.10969 276646.080000
  11826  11827     1   0.09730 310787.520000
  11829  11831     1   0.10969 276646.080000
  11830  11832     1   0.10969 276646.080000
  11833  11837     1   0.10969 276646.080000
  11834  11836     1   0.10969 276646.080000
  11835  11838     1   0.10961 277566.560000
  11840  11846     1   0.09730 310787.520000
  11841  11844     1   0.09730 310787.520000
  11842  11845     1   0.09730 310787.520000
  11843  11847     1   0.10969 276646.080000
  11843  11848     1   0.10969 276646.080000
  11849  11850     1   0.09730 310787.520000
  11852  11854     1   0.10969 276646.080000
  11853  11855     1   0.10969 276646.080000
  11856  11860     1   0.10969 276646.080000
  11857  11859     1   0.10969 276646.080000
  11858  11861     1   0.10961 277566.560000
  11863  11869     1   0.09730 310787.520000
  11864  11867     1   0.09730 310787.520000
  11865  11868     1   0.09730 310787.520000
  11866  11870     1   0.10969 276646.080000
  11866  11871     1   0.10969 276646.080000
  11872  11873     1   0.09730 310787.520000
  11875  11877     1   0.10969 276646.080000
  11876  11878     1   0.10969 276646.080000
  11879  11883     1   0.10969 276646.080000
  11880  11882     1   0.10969 276646.080000
  11881  11884     1   0.10961 277566.560000
  11886  11892     1   0.09730 310787.520000
  11887  11890     1   0.09730 310787.520000
  11888  11891     1   0.09730 310787.520000
  11889  11893     1   0.10969 276646.080000
  11889  11894     1   0.10969 276646.080000
  11895  11896     1   0.09730 310787.520000
  11898  11900     1   0.10969 276646.080000
  11899  11901     1   0.10969 276646.080000
  11902  11906     1   0.10969 276646.080000
  11903  11905     1   0.10969 276646.080000
  11904  11907     1   0.10961 277566.560000
  11909  11915     1   0.09730 310787.520000
  11910  11913     1   0.09730 310787.520000
  11911  11914     1   0.09730 310787.520000
  11912  11916     1   0.10969 276646.080000
  11912  11917     1   0.10969 276646.080000
  11918  11919     1   0.09730 310787.520000
  11921  11923     1   0.10969 276646.080000
  11922  11924     1   0.10969 276646.080000
  11925  11929     1   0.10969 276646.080000
  11926  11928     1   0.10969 276646.080000
  11927  11930     1   0.10961 277566.560000
  11932  11938     1   0.09730 310787.520000
  11933  11936     1   0.09730 310787.520000
  11934  11937     1   0.09730 310787.520000
  11935  11939     1   0.10969 276646.080000
  11935  11940     1   0.10969 276646.080000
  11941  11942     1   0.09730 310787.520000
  11944  11946     1   0.10969 276646.080000
  11945  11947     1   0.10969 276646.080000
  11948  11952     1   0.10969 276646.080000
  11949  11951     1   0.10969 276646.080000
  11950  11953     1   0.10961 277566.560000
  11955  11961     1   0.09730 310787.520000
  11956  11959     1   0.09730 310787.520000
  11957  11960     1   0.09730 310787.520000
  11958  11962     1   0.10969 276646.080000
  11958  11963     1   0.10969 276646.080000
  11964  11965     1   0.09730 310787.520000
  11967  11969     1   0.10969 276646.080000
  11968  11970     1   0.10969 276646.080000
  11971  11975     1   0.10969 276646.080000
  11972  11974     1   0.10969 276646.080000
  11973  11976     1   0.10961 277566.560000
  11978  11984     1   0.09730 310787.520000
  11979  11982     1   0.09730 310787.520000
  11980  11983     1   0.09730 310787.520000
  11981  11985     1   0.10969 276646.080000
  11981  11986     1   0.10969 276646.080000
  11987  11988     1   0.09730 310787.520000
  11990  11992     1   0.10969 276646.080000
  11991  11993     1   0.10969 276646.080000
  11994  11998     1   0.10969 276646.080000
  11995  11997     1   0.10969 276646.080000
  11996  11999     1   0.10961 277566.560000
  12001  12007     1   0.09730 310787.520000
  12002  12005     1   0.09730 310787.520000
  12003  12006     1   0.09730 310787.520000
  12004  12008     1   0.10969 276646.080000
  12004  12009     1   0.10969 276646.080000
  12010  12011     1   0.09730 310787.520000
  12013  12015     1   0.10969 276646.080000
  12014  12016     1   0.10969 276646.080000
  12017  12021     1   0.10969 276646.080000
  12018  12020     1   0.10969 276646.080000
  12019  12022     1   0.10961 277566.560000
  12024  12030     1   0.09730 310787.520000
  12025  12028     1   0.09730 310787.520000
  12026  12029     1   0.09730 310787.520000
  12027  12031     1   0.10969 276646.080000
  12027  12032     1   0.10969 276646.080000
  12033  12034     1   0.09730 310787.520000
  12036  12038     1   0.10969 276646.080000
  12037  12039     1   0.10969 276646.080000
  12040  12044     1   0.10969 276646.080000
  12041  12043     1   0.10969 276646.080000
  12042  12045     1   0.10961 277566.560000
  12047  12053     1   0.09730 310787.520000
  12048  12051     1   0.09730 310787.520000
  12049  12052     1   0.09730 310787.520000
  12050  12054     1   0.10969 276646.080000
  12050  12055     1   0.10969 276646.080000
  12056  12057     1   0.09730 310787.520000
  12059  12061     1   0.10969 276646.080000
  12060  12062     1   0.10969 276646.080000
  12063  12067     1   0.10969 276646.080000
  12064  12066     1   0.10969 276646.080000
  12065  12068     1   0.10961 277566.560000
  12070  12076     1   0.09730 310787.520000
  12071  12074     1   0.09730 310787.520000
  12072  12075     1   0.09730 310787.520000
  12073  12077     1   0.10969 276646.080000
  12073  12078     1   0.10969 276646.080000
  12079  12080     1   0.09730 310787.520000
  12082  12084     1   0.10969 276646.080000
  12083  12085     1   0.10969 276646.080000
  12086  12090     1   0.10969 276646.080000
  12087  12089     1   0.10969 276646.080000
  12088  12091     1   0.10961 277566.560000
  12093  12099     1   0.09730 310787.520000
  12094  12097     1   0.09730 310787.520000
  12095  12098     1   0.09730 310787.520000
  12096  12100     1   0.10969 276646.080000
  12096  12101     1   0.10969 276646.080000
  12102  12103     1   0.09730 310787.520000
  12105  12107     1   0.10969 276646.080000
  12106  12108     1   0.10969 276646.080000
  12109  12113     1   0.10969 276646.080000
  12110  12112     1   0.10969 276646.080000
  12111  12114     1   0.10961 277566.560000
  12116  12122     1   0.09730 310787.520000
  12117  12120     1   0.09730 310787.520000
  12118  12121     1   0.09730 310787.520000
  12119  12123     1   0.10969 276646.080000
  12119  12124     1   0.10969 276646.080000
  12125  12126     1   0.09730 310787.520000
  12128  12130     1   0.10969 276646.080000
  12129  12131     1   0.10969 276646.080000
  12132  12136     1   0.10969 276646.080000
  12133  12135     1   0.10969 276646.080000
  12134  12137     1   0.10961 277566.560000
  12139  12145     1   0.09730 310787.520000
  12140  12143     1   0.09730 310787.520000
  12141  12144     1   0.09730 310787.520000
  12142  12146     1   0.10969 276646.080000
  12142  12147     1   0.10969 276646.080000
  12148  12149     1   0.09730 310787.520000
  12151  12153     1   0.10969 276646.080000
  12152  12154     1   0.10969 276646.080000
  12155  12159     1   0.10969 276646.080000
  12156  12158     1   0.10969 276646.080000
  12157  12160     1   0.10961 277566.560000
  12162  12168     1   0.09730 310787.520000
  12163  12166     1   0.09730 310787.520000
  12164  12167     1   0.09730 310787.520000
  12165  12169     1   0.10969 276646.080000
  12165  12170     1   0.10969 276646.080000
  12171  12172     1   0.09730 310787.520000
  12174  12176     1   0.10969 276646.080000
  12175  12177     1   0.10969 276646.080000
  12178  12182     1   0.10969 276646.080000
  12179  12181     1   0.10969 276646.080000
  12180  12183     1   0.10961 277566.560000
  12185  12191     1   0.09730 310787.520000
  12186  12189     1   0.09730 310787.520000
  12187  12190     1   0.09730 310787.520000
  12188  12192     1   0.10969 276646.080000
  12188  12193     1   0.10969 276646.080000
  12194  12195     1   0.09730 310787.520000
  12197  12199     1   0.10969 276646.080000
  12198  12200     1   0.10969 276646.080000
  12201  12205     1   0.10969 276646.080000
  12202  12204     1   0.10969 276646.080000
  12203  12206     1   0.10961 277566.560000
  12208  12214     1   0.09730 310787.520000
  12209  12212     1   0.09730 310787.520000
  12210  12213     1   0.09730 310787.520000
  12211  12215     1   0.10969 276646.080000
  12211  12216     1   0.10969 276646.080000
  12217  12218     1   0.09730 310787.520000
  12220  12222     1   0.10969 276646.080000
  12221  12223     1   0.10969 276646.080000
  12224  12228     1   0.10969 276646.080000
  12225  12227     1   0.10969 276646.080000
  12226  12229     1   0.10961 277566.560000
  12231  12237     1   0.09730 310787.520000
  12232  12235     1   0.09730 310787.520000
  12233  12236     1   0.09730 310787.520000
  12234  12238     1   0.10969 276646.080000
  12234  12239     1   0.10969 276646.080000
  12240  12241     1   0.09730 310787.520000
  12243  12245     1   0.10969 276646.080000
  12244  12246     1   0.10969 276646.080000
  12247  12251     1   0.10969 276646.080000
  12248  12250     1   0.10969 276646.080000
  12249  12252     1   0.10961 277566.560000
  12254  12260     1   0.09730 310787.520000
  12255  12258     1   0.09730 310787.520000
  12256  12259     1   0.09730 310787.520000
  12257  12261     1   0.10969 276646.080000
  12257  12262     1   0.10969 276646.080000
  12263  12264     1   0.09730 310787.520000
  12266  12268     1   0.10969 276646.080000
  12267  12269     1   0.10969 276646.080000
  12270  12274     1   0.10969 276646.080000
  12271  12273     1   0.10969 276646.080000
  12272  12275     1   0.10961 277566.560000
  12277  12283     1   0.09730 310787.520000
  12278  12281     1   0.09730 310787.520000
  12279  12282     1   0.09730 310787.520000
  12280  12284     1   0.10969 276646.080000
  12280  12285     1   0.10969 276646.080000
  12286  12287     1   0.09730 310787.520000
  12289  12291     1   0.10969 276646.080000
  12290  12292     1   0.10969 276646.080000
  12293  12297     1   0.10969 276646.080000
  12294  12296     1   0.10969 276646.080000
  12295  12298     1   0.10961 277566.560000
  12300  12306     1   0.09730 310787.520000
  12301  12304     1   0.09730 310787.520000
  12302  12305     1   0.09730 310787.520000
  12303  12307     1   0.10969 276646.080000
  12303  12308     1   0.10969 276646.080000
  12309  12310     1   0.09730 310787.520000
  12312  12314     1   0.10969 276646.080000
  12313  12315     1   0.10969 276646.080000
  12316  12320     1   0.10969 276646.080000
  12317  12319     1   0.10969 276646.080000
  12318  12321     1   0.10961 277566.560000
  12323  12329     1   0.09730 310787.520000
  12324  12327     1   0.09730 310787.520000
  12325  12328     1   0.09730 310787.520000
  12326  12330     1   0.10969 276646.080000
  12326  12331     1   0.10969 276646.080000
  12332  12333     1   0.09730 310787.520000
  12335  12337     1   0.10969 276646.080000
  12336  12338     1   0.10969 276646.080000
  12339  12343     1   0.10969 276646.080000
  12340  12342     1   0.10969 276646.080000
  12341  12344     1   0.10961 277566.560000
  12346  12352     1   0.09730 310787.520000
  12347  12350     1   0.09730 310787.520000
  12348  12351     1   0.09730 310787.520000
  12349  12353     1   0.10969 276646.080000
  12349  12354     1   0.10969 276646.080000
  12355  12356     1   0.09730 310787.520000
  12358  12360     1   0.10969 276646.080000
  12359  12361     1   0.10969 276646.080000
  12362  12366     1   0.10969 276646.080000
  12363  12365     1   0.10969 276646.080000
  12364  12367     1   0.10961 277566.560000
  12369  12375     1   0.09730 310787.520000
  12370  12373     1   0.09730 310787.520000
  12371  12374     1   0.09730 310787.520000
  12372  12376     1   0.10969 276646.080000
  12372  12377     1   0.10969 276646.080000
  12378  12379     1   0.09730 310787.520000
  12381  12383     1   0.10969 276646.080000
  12382  12384     1   0.10969 276646.080000
  12385  12389     1   0.10969 276646.080000
  12386  12388     1   0.10969 276646.080000
  12387  12390     1   0.10961 277566.560000
  12392  12398     1   0.09730 310787.520000
  12393  12396     1   0.09730 310787.520000
  12394  12397     1   0.09730 310787.520000
  12395  12399     1   0.10969 276646.080000
  12395  12400     1   0.10969 276646.080000
  12401  12402     1   0.09730 310787.520000
  12404  12406     1   0.10969 276646.080000
  12405  12407     1   0.10969 276646.080000
  12408  12412     1   0.10969 276646.080000
  12409  12411     1   0.10969 276646.080000
  12410  12413     1   0.10961 277566.560000
  12415  12421     1   0.09730 310787.520000
  12416  12419     1   0.09730 310787.520000
  12417  12420     1   0.09730 310787.520000
  12418  12422     1   0.10969 276646.080000
  12418  12423     1   0.10969 276646.080000
  12424  12425     1   0.09730 310787.520000
  12427  12429     1   0.10969 276646.080000
  12428  12430     1   0.10969 276646.080000
  12431  12435     1   0.10969 276646.080000
  12432  12434     1   0.10969 276646.080000
  12433  12436     1   0.10961 277566.560000
  12438  12444     1   0.09730 310787.520000
  12439  12442     1   0.09730 310787.520000
  12440  12443     1   0.09730 310787.520000
  12441  12445     1   0.10969 276646.080000
  12441  12446     1   0.10969 276646.080000
  12447  12448     1   0.09730 310787.520000
  12450  12452     1   0.10969 276646.080000
  12451  12453     1   0.10969 276646.080000
  12454  12458     1   0.10969 276646.080000
  12455  12457     1   0.10969 276646.080000
  12456  12459     1   0.10961 277566.560000
  12461  12467     1   0.09730 310787.520000
  12462  12465     1   0.09730 310787.520000
  12463  12466     1   0.09730 310787.520000
  12464  12468     1   0.10969 276646.080000
  12464  12469     1   0.10969 276646.080000
  12470  12471     1   0.09730 310787.520000
  12473  12475     1   0.10969 276646.080000
  12474  12476     1   0.10969 276646.080000
  12477  12481     1   0.10969 276646.080000
  12478  12480     1   0.10969 276646.080000
  12479  12482     1   0.10961 277566.560000
  12484  12490     1   0.09730 310787.520000
  12485  12488     1   0.09730 310787.520000
  12486  12489     1   0.09730 310787.520000
  12487  12491     1   0.10969 276646.080000
  12487  12492     1   0.10969 276646.080000
  12493  12494     1   0.09730 310787.520000
  12496  12498     1   0.10969 276646.080000
  12497  12499     1   0.10969 276646.080000
  12500  12504     1   0.10969 276646.080000
  12501  12503     1   0.10969 276646.080000
  12502  12505     1   0.10961 277566.560000
  12507  12513     1   0.09730 310787.520000
  12508  12511     1   0.09730 310787.520000
  12509  12512     1   0.09730 310787.520000
  12510  12514     1   0.10969 276646.080000
  12510  12515     1   0.10969 276646.080000
  12516  12517     1   0.09730 310787.520000
  12519  12521     1   0.10969 276646.080000
  12520  12522     1   0.10969 276646.080000
  12523  12527     1   0.10969 276646.080000
  12524  12526     1   0.10969 276646.080000
  12525  12528     1   0.10961 277566.560000
  12530  12536     1   0.09730 310787.520000
  12531  12534     1   0.09730 310787.520000
  12532  12535     1   0.09730 310787.520000
  12533  12537     1   0.10969 276646.080000
  12533  12538     1   0.10969 276646.080000
  12539  12540     1   0.09730 310787.520000
  12542  12544     1   0.10969 276646.080000
  12543  12545     1   0.10969 276646.080000
  12546  12550     1   0.10969 276646.080000
  12547  12549     1   0.10969 276646.080000
  12548  12551     1   0.10961 277566.560000
  12553  12559     1   0.09730 310787.520000
  12554  12557     1   0.09730 310787.520000
  12555  12558     1   0.09730 310787.520000
  12556  12560     1   0.10969 276646.080000
  12556  12561     1   0.10969 276646.080000
  12562  12563     1   0.09730 310787.520000
  12565  12567     1   0.10969 276646.080000
  12566  12568     1   0.10969 276646.080000
  12569  12573     1   0.10969 276646.080000
  12570  12572     1   0.10969 276646.080000
  12571  12574     1   0.10961 277566.560000
  12576  12582     1   0.09730 310787.520000
  12577  12580     1   0.09730 310787.520000
  12578  12581     1   0.09730 310787.520000
  12579  12583     1   0.10969 276646.080000
  12579  12584     1   0.10969 276646.080000
  12585  12586     1   0.09730 310787.520000
  12588  12590     1   0.10969 276646.080000
  12589  12591     1   0.10969 276646.080000
  12592  12596     1   0.10969 276646.080000
  12593  12595     1   0.10969 276646.080000
  12594  12597     1   0.10961 277566.560000
  12599  12605     1   0.09730 310787.520000
  12600  12603     1   0.09730 310787.520000
  12601  12604     1   0.09730 310787.520000
  12602  12606     1   0.10969 276646.080000
  12602  12607     1   0.10969 276646.080000
  12608  12609     1   0.09730 310787.520000
  12611  12613     1   0.10969 276646.080000
  12612  12614     1   0.10969 276646.080000
  12615  12619     1   0.10969 276646.080000
  12616  12618     1   0.10969 276646.080000
  12617  12620     1   0.10961 277566.560000
  12622  12628     1   0.09730 310787.520000
  12623  12626     1   0.09730 310787.520000
  12624  12627     1   0.09730 310787.520000
  12625  12629     1   0.10969 276646.080000
  12625  12630     1   0.10969 276646.080000
  12631  12632     1   0.09730 310787.520000
  12634  12636     1   0.10969 276646.080000
  12635  12637     1   0.10969 276646.080000
  12638  12642     1   0.10969 276646.080000
  12639  12641     1   0.10969 276646.080000
  12640  12643     1   0.10961 277566.560000
  12645  12651     1   0.09730 310787.520000
  12646  12649     1   0.09730 310787.520000
  12647  12650     1   0.09730 310787.520000
  12648  12652     1   0.10969 276646.080000
  12648  12653     1   0.10969 276646.080000
  12654  12655     1   0.09730 310787.520000
  12657  12659     1   0.10969 276646.080000
  12658  12660     1   0.10969 276646.080000
  12661  12665     1   0.10969 276646.080000
  12662  12664     1   0.10969 276646.080000
  12663  12666     1   0.10961 277566.560000
  12668  12674     1   0.09730 310787.520000
  12669  12672     1   0.09730 310787.520000
  12670  12673     1   0.09730 310787.520000
  12671  12675     1   0.10969 276646.080000
  12671  12676     1   0.10969 276646.080000
  12677  12678     1   0.09730 310787.520000
  12680  12682     1   0.10969 276646.080000
  12681  12683     1   0.10969 276646.080000
  12684  12688     1   0.10969 276646.080000
  12685  12687     1   0.10969 276646.080000
  12686  12689     1   0.10961 277566.560000
  12691  12697     1   0.09730 310787.520000
  12692  12695     1   0.09730 310787.520000
  12693  12696     1   0.09730 310787.520000
  12694  12698     1   0.10969 276646.080000
  12694  12699     1   0.10969 276646.080000
  12700  12701     1   0.09730 310787.520000
  12703  12705     1   0.10969 276646.080000
  12704  12706     1   0.10969 276646.080000
  12707  12711     1   0.10969 276646.080000
  12708  12710     1   0.10969 276646.080000
  12709  12712     1   0.10961 277566.560000
  12714  12720     1   0.09730 310787.520000
  12715  12718     1   0.09730 310787.520000
  12716  12719     1   0.09730 310787.520000
  12717  12721     1   0.10969 276646.080000
  12717  12722     1   0.10969 276646.080000
  12723  12724     1   0.09730 310787.520000
  12726  12728     1   0.10969 276646.080000
  12727  12729     1   0.10969 276646.080000
  12730  12734     1   0.10969 276646.080000
  12731  12733     1   0.10969 276646.080000
  12732  12735     1   0.10961 277566.560000
  12737  12743     1   0.09730 310787.520000
  12738  12741     1   0.09730 310787.520000
  12739  12742     1   0.09730 310787.520000
  12740  12744     1   0.10969 276646.080000
  12740  12745     1   0.10969 276646.080000
  12746  12747     1   0.09730 310787.520000
  12749  12751     1   0.10969 276646.080000
  12750  12752     1   0.10969 276646.080000
  12753  12757     1   0.10969 276646.080000
  12754  12756     1   0.10969 276646.080000
  12755  12758     1   0.10961 277566.560000
  12760  12766     1   0.09730 310787.520000
  12761  12764     1   0.09730 310787.520000
  12762  12765     1   0.09730 310787.520000
  12763  12767     1   0.10969 276646.080000
  12763  12768     1   0.10969 276646.080000
  12769  12770     1   0.09730 310787.520000
  12772  12774     1   0.10969 276646.080000
  12773  12775     1   0.10969 276646.080000
  12776  12780     1   0.10969 276646.080000
  12777  12779     1   0.10969 276646.080000
  12778  12781     1   0.10961 277566.560000
  12783  12789     1   0.09730 310787.520000
  12784  12787     1   0.09730 310787.520000
  12785  12788     1   0.09730 310787.520000
  12786  12790     1   0.10969 276646.080000
  12786  12791     1   0.10969 276646.080000
  12792  12793     1   0.09730 310787.520000
  12795  12797     1   0.10969 276646.080000
  12796  12798     1   0.10969 276646.080000
  12799  12803     1   0.10969 276646.080000
  12800  12802     1   0.10969 276646.080000
  12801  12804     1   0.10961 277566.560000
  12806  12812     1   0.09730 310787.520000
  12807  12810     1   0.09730 310787.520000
  12808  12811     1   0.09730 310787.520000
  12809  12813     1   0.10969 276646.080000
  12809  12814     1   0.10969 276646.080000
  12815  12816     1   0.09730 310787.520000
  12818  12820     1   0.10969 276646.080000
  12819  12821     1   0.10969 276646.080000
  12822  12826     1   0.10969 276646.080000
  12823  12825     1   0.10969 276646.080000
  12824  12827     1   0.10961 277566.560000
  12829  12835     1   0.09730 310787.520000
  12830  12833     1   0.09730 310787.520000
  12831  12834     1   0.09730 310787.520000
  12832  12836     1   0.10969 276646.080000
  12832  12837     1   0.10969 276646.080000
  12838  12839     1   0.09730 310787.520000
  12841  12843     1   0.10969 276646.080000
  12842  12844     1   0.10969 276646.080000
  12845  12849     1   0.10969 276646.080000
  12846  12848     1   0.10969 276646.080000
  12847  12850     1   0.10961 277566.560000
  12852  12858     1   0.09730 310787.520000
  12853  12856     1   0.09730 310787.520000
  12854  12857     1   0.09730 310787.520000
  12855  12859     1   0.10969 276646.080000
  12855  12860     1   0.10969 276646.080000
  12861  12862     1   0.09730 310787.520000
  12864  12866     1   0.10969 276646.080000
  12865  12867     1   0.10969 276646.080000
  12868  12872     1   0.10969 276646.080000
  12869  12871     1   0.10969 276646.080000
  12870  12873     1   0.10961 277566.560000
  12875  12881     1   0.09730 310787.520000
  12876  12879     1   0.09730 310787.520000
  12877  12880     1   0.09730 310787.520000
  12878  12882     1   0.10969 276646.080000
  12878  12883     1   0.10969 276646.080000
  12884  12885     1   0.09730 310787.520000
  12887  12889     1   0.10969 276646.080000
  12888  12890     1   0.10969 276646.080000
  12891  12895     1   0.10969 276646.080000
  12892  12894     1   0.10969 276646.080000
  12893  12896     1   0.10961 277566.560000
  12898  12904     1   0.09730 310787.520000
  12899  12902     1   0.09730 310787.520000
  12900  12903     1   0.09730 310787.520000
  12901  12905     1   0.10969 276646.080000
  12901  12906     1   0.10969 276646.080000
  12907  12908     1   0.09730 310787.520000
  12910  12912     1   0.10969 276646.080000
  12911  12913     1   0.10969 276646.080000
  12914  12918     1   0.10969 276646.080000
  12915  12917     1   0.10969 276646.080000
  12916  12919     1   0.10961 277566.560000
  12921  12927     1   0.09730 310787.520000
  12922  12925     1   0.09730 310787.520000
  12923  12926     1   0.09730 310787.520000
  12924  12928     1   0.10969 276646.080000
  12924  12929     1   0.10969 276646.080000
  12930  12931     1   0.09730 310787.520000
  12933  12935     1   0.10969 276646.080000
  12934  12936     1   0.10969 276646.080000
  12937  12941     1   0.10969 276646.080000
  12938  12940     1   0.10969 276646.080000
  12939  12942     1   0.10961 277566.560000
  12944  12950     1   0.09730 310787.520000
  12945  12948     1   0.09730 310787.520000
  12946  12949     1   0.09730 310787.520000
  12947  12951     1   0.10969 276646.080000
  12947  12952     1   0.10969 276646.080000
  12953  12954     1   0.09730 310787.520000
  12956  12958     1   0.10969 276646.080000
  12957  12959     1   0.10969 276646.080000
  12960  12964     1   0.10969 276646.080000
  12961  12963     1   0.10969 276646.080000
  12962  12965     1   0.10961 277566.560000
  12967  12973     1   0.09730 310787.520000
  12968  12971     1   0.09730 310787.520000
  12969  12972     1   0.09730 310787.520000
  12970  12974     1   0.10969 276646.080000
  12970  12975     1   0.10969 276646.080000
  12976  12977     1   0.09730 310787.520000
  12979  12981     1   0.10969 276646.080000
  12980  12982     1   0.10969 276646.080000
  12983  12987     1   0.10969 276646.080000
  12984  12986     1   0.10969 276646.080000
  12985  12988     1   0.10961 277566.560000
  12990  12996     1   0.09730 310787.520000
  12991  12994     1   0.09730 310787.520000
  12992  12995     1   0.09730 310787.520000
  12993  12997     1   0.10969 276646.080000
  12993  12998     1   0.10969 276646.080000
  12999  13000     1   0.09730 310787.520000
  13002  13004     1   0.10969 276646.080000
  13003  13005     1   0.10969 276646.080000
  13006  13010     1   0.10969 276646.080000
  13007  13009     1   0.10969 276646.080000
  13008  13011     1   0.10961 277566.560000
  13013  13019     1   0.09730 310787.520000
  13014  13017     1   0.09730 310787.520000
  13015  13018     1   0.09730 310787.520000
  13016  13020     1   0.10969 276646.080000
  13016  13021     1   0.10969 276646.080000
  13022  13023     1   0.09730 310787.520000
  13025  13027     1   0.10969 276646.080000
  13026  13028     1   0.10969 276646.080000
  13029  13033     1   0.10969 276646.080000
  13030  13032     1   0.10969 276646.080000
  13031  13034     1   0.10961 277566.560000
  13036  13042     1   0.09730 310787.520000
  13037  13040     1   0.09730 310787.520000
  13038  13041     1   0.09730 310787.520000
  13039  13043     1   0.10969 276646.080000
  13039  13044     1   0.10969 276646.080000
  13045  13046     1   0.09730 310787.520000
  13048  13050     1   0.10969 276646.080000
  13049  13051     1   0.10969 276646.080000
  13052  13056     1   0.10969 276646.080000
  13053  13055     1   0.10969 276646.080000
  13054  13057     1   0.10961 277566.560000
  13059  13065     1   0.09730 310787.520000
  13060  13063     1   0.09730 310787.520000
  13061  13064     1   0.09730 310787.520000
  13062  13066     1   0.10969 276646.080000
  13062  13067     1   0.10969 276646.080000
  13068  13069     1   0.09730 310787.520000
  13071  13073     1   0.10969 276646.080000
  13072  13074     1   0.10969 276646.080000
  13075  13079     1   0.10969 276646.080000
  13076  13078     1   0.10969 276646.080000
  13077  13080     1   0.10961 277566.560000
  13082  13088     1   0.09730 310787.520000
  13083  13086     1   0.09730 310787.520000
  13084  13087     1   0.09730 310787.520000
  13085  13089     1   0.10969 276646.080000
  13085  13090     1   0.10969 276646.080000
  13091  13092     1   0.09730 310787.520000
  13094  13096     1   0.10969 276646.080000
  13095  13097     1   0.10969 276646.080000
  13098  13102     1   0.10969 276646.080000
  13099  13101     1   0.10969 276646.080000
  13100  13103     1   0.10961 277566.560000
  13105  13111     1   0.09730 310787.520000
  13106  13109     1   0.09730 310787.520000
  13107  13110     1   0.09730 310787.520000
  13108  13112     1   0.10969 276646.080000
  13108  13113     1   0.10969 276646.080000
  13114  13115     1   0.09730 310787.520000
  13117  13119     1   0.10969 276646.080000
  13118  13120     1   0.10969 276646.080000
  13121  13125     1   0.10969 276646.080000
  13122  13124     1   0.10969 276646.080000
  13123  13126     1   0.10961 277566.560000
  13128  13134     1   0.09730 310787.520000
  13129  13132     1   0.09730 310787.520000
  13130  13133     1   0.09730 310787.520000
  13131  13135     1   0.10969 276646.080000
  13131  13136     1   0.10969 276646.080000
  13137  13138     1   0.09730 310787.520000
  13140  13142     1   0.10969 276646.080000
  13141  13143     1   0.10969 276646.080000
  13144  13148     1   0.10969 276646.080000
  13145  13147     1   0.10969 276646.080000
  13146  13149     1   0.10961 277566.560000
  13151  13157     1   0.09730 310787.520000
  13152  13155     1   0.09730 310787.520000
  13153  13156     1   0.09730 310787.520000
  13154  13158     1   0.10969 276646.080000
  13154  13159     1   0.10969 276646.080000
  13160  13161     1   0.09730 310787.520000
  13163  13165     1   0.10969 276646.080000
  13164  13166     1   0.10969 276646.080000
  13167  13171     1   0.10969 276646.080000
  13168  13170     1   0.10969 276646.080000
  13169  13172     1   0.10961 277566.560000
  13174  13180     1   0.09730 310787.520000
  13175  13178     1   0.09730 310787.520000
  13176  13179     1   0.09730 310787.520000
  13177  13181     1   0.10969 276646.080000
  13177  13182     1   0.10969 276646.080000
  13183  13184     1   0.09730 310787.520000
  13186  13188     1   0.10969 276646.080000
  13187  13189     1   0.10969 276646.080000
  13190  13194     1   0.10969 276646.080000
  13191  13193     1   0.10969 276646.080000
  13192  13195     1   0.10961 277566.560000
  13197  13203     1   0.09730 310787.520000
  13198  13201     1   0.09730 310787.520000
  13199  13202     1   0.09730 310787.520000
  13200  13204     1   0.10969 276646.080000
  13200  13205     1   0.10969 276646.080000
  13206  13207     1   0.09730 310787.520000
  13209  13211     1   0.10969 276646.080000
  13210  13212     1   0.10969 276646.080000
  13213  13217     1   0.10969 276646.080000
  13214  13216     1   0.10969 276646.080000
  13215  13218     1   0.10961 277566.560000
  13220  13226     1   0.09730 310787.520000
  13221  13224     1   0.09730 310787.520000
  13222  13225     1   0.09730 310787.520000
  13223  13227     1   0.10969 276646.080000
  13223  13228     1   0.10969 276646.080000
  13229  13230     1   0.09730 310787.520000
  13232  13234     1   0.10969 276646.080000
  13233  13235     1   0.10969 276646.080000
  13236  13240     1   0.10969 276646.080000
  13237  13239     1   0.10969 276646.080000
  13238  13241     1   0.10961 277566.560000
  13243  13249     1   0.09730 310787.520000
  13244  13247     1   0.09730 310787.520000
  13245  13248     1   0.09730 310787.520000
  13246  13250     1   0.10969 276646.080000
  13246  13251     1   0.10969 276646.080000
  13252  13253     1   0.09730 310787.520000
  13255  13257     1   0.10969 276646.080000
  13256  13258     1   0.10969 276646.080000
  13259  13263     1   0.10969 276646.080000
  13260  13262     1   0.10969 276646.080000
  13261  13264     1   0.10961 277566.560000
  13266  13272     1   0.09730 310787.520000
  13267  13270     1   0.09730 310787.520000
  13268  13271     1   0.09730 310787.520000
  13269  13273     1   0.10969 276646.080000
  13269  13274     1   0.10969 276646.080000
  13275  13276     1   0.09730 310787.520000
  13278  13280     1   0.10969 276646.080000
  13279  13281     1   0.10969 276646.080000
  13282  13286     1   0.10969 276646.080000
  13283  13285     1   0.10969 276646.080000
  13284  13287     1   0.10961 277566.560000
  13289  13295     1   0.09730 310787.520000
  13290  13293     1   0.09730 310787.520000
  13291  13294     1   0.09730 310787.520000
  13292  13296     1   0.10969 276646.080000
  13292  13297     1   0.10969 276646.080000
  13298  13299     1   0.09730 310787.520000
  13301  13303     1   0.10969 276646.080000
  13302  13304     1   0.10969 276646.080000
  13305  13309     1   0.10969 276646.080000
  13306  13308     1   0.10969 276646.080000
  13307  13310     1   0.10961 277566.560000
  13312  13318     1   0.09730 310787.520000
  13313  13316     1   0.09730 310787.520000
  13314  13317     1   0.09730 310787.520000
  13315  13319     1   0.10969 276646.080000
  13315  13320     1   0.10969 276646.080000
  13321  13322     1   0.09730 310787.520000
  13324  13326     1   0.10969 276646.080000
  13325  13327     1   0.10969 276646.080000
  13328  13332     1   0.10969 276646.080000
  13329  13331     1   0.10969 276646.080000
  13330  13333     1   0.10961 277566.560000
  13335  13341     1   0.09730 310787.520000
  13336  13339     1   0.09730 310787.520000
  13337  13340     1   0.09730 310787.520000
  13338  13342     1   0.10969 276646.080000
  13338  13343     1   0.10969 276646.080000
  13344  13345     1   0.09730 310787.520000
  13347  13349     1   0.10969 276646.080000
  13348  13350     1   0.10969 276646.080000
  13351  13355     1   0.10969 276646.080000
  13352  13354     1   0.10969 276646.080000
  13353  13356     1   0.10961 277566.560000
  13358  13364     1   0.09730 310787.520000
  13359  13362     1   0.09730 310787.520000
  13360  13363     1   0.09730 310787.520000
  13361  13365     1   0.10969 276646.080000
  13361  13366     1   0.10969 276646.080000
  13367  13368     1   0.09730 310787.520000
  13370  13372     1   0.10969 276646.080000
  13371  13373     1   0.10969 276646.080000
  13374  13378     1   0.10969 276646.080000
  13375  13377     1   0.10969 276646.080000
  13376  13379     1   0.10961 277566.560000
  13381  13387     1   0.09730 310787.520000
  13382  13385     1   0.09730 310787.520000
  13383  13386     1   0.09730 310787.520000
  13384  13388     1   0.10969 276646.080000
  13384  13389     1   0.10969 276646.080000
  13390  13391     1   0.09730 310787.520000
  13393  13395     1   0.10969 276646.080000
  13394  13396     1   0.10969 276646.080000
  13397  13401     1   0.10969 276646.080000
  13398  13400     1   0.10969 276646.080000
  13399  13402     1   0.10961 277566.560000
  13404  13410     1   0.09730 310787.520000
  13405  13408     1   0.09730 310787.520000
  13406  13409     1   0.09730 310787.520000
  13407  13411     1   0.10969 276646.080000
  13407  13412     1   0.10969 276646.080000
  13413  13414     1   0.09730 310787.520000
  13416  13418     1   0.10969 276646.080000
  13417  13419     1   0.10969 276646.080000
  13420  13424     1   0.10969 276646.080000
  13421  13423     1   0.10969 276646.080000
  13422  13425     1   0.10961 277566.560000
  13427  13433     1   0.09730 310787.520000
  13428  13431     1   0.09730 310787.520000
  13429  13432     1   0.09730 310787.520000
  13430  13434     1   0.10969 276646.080000
  13430  13435     1   0.10969 276646.080000
  13436  13437     1   0.09730 310787.520000
  13439  13441     1   0.10969 276646.080000
  13440  13442     1   0.10969 276646.080000
  13443  13447     1   0.10969 276646.080000
  13444  13446     1   0.10969 276646.080000
  13445  13448     1   0.10961 277566.560000
  13450  13456     1   0.09730 310787.520000
  13451  13454     1   0.09730 310787.520000
  13452  13455     1   0.09730 310787.520000
  13453  13457     1   0.10969 276646.080000
  13453  13458     1   0.10969 276646.080000
  13459  13460     1   0.09730 310787.520000
  13462  13464     1   0.10969 276646.080000
  13463  13465     1   0.10969 276646.080000
  13466  13470     1   0.10969 276646.080000
  13467  13469     1   0.10969 276646.080000
  13468  13471     1   0.10961 277566.560000
  13473  13479     1   0.09730 310787.520000
  13474  13477     1   0.09730 310787.520000
  13475  13478     1   0.09730 310787.520000
  13476  13480     1   0.10969 276646.080000
  13476  13481     1   0.10969 276646.080000
  13482  13483     1   0.09730 310787.520000
  13485  13487     1   0.10969 276646.080000
  13486  13488     1   0.10969 276646.080000
  13489  13493     1   0.10969 276646.080000
  13490  13492     1   0.10969 276646.080000
  13491  13494     1   0.10961 277566.560000
  13496  13502     1   0.09730 310787.520000
  13497  13500     1   0.09730 310787.520000
  13498  13501     1   0.09730 310787.520000
  13499  13503     1   0.10969 276646.080000
  13499  13504     1   0.10969 276646.080000
  13505  13506     1   0.09730 310787.520000

[ pairs ]
;    ai     aj funct         c0         c1         c2         c3
      1     14     1
      1     17     1
      2     11     1
      2     20     1
      5      8     1
      5     21     1
      8     28     1
      8     31     1
     11     22     1
     11     25     1
     14     40     1
     14     43     1
     17     34     1
     17     37     1
     20     49     1
     20     46     1
     21     55     1
     21     52     1
     22     37     1
     22    178     1
     25     34     1
     25    148     1
     28     43     1
     28    118     1
     31     40     1
     31     88     1
     34    169     1
     37    139     1
     40    109     1
     43     79     1
     46     70     1
     49    100     1
     52    130     1
     55    160     1
     60     85     1
     60     82     1
     60     79     1
     61     76     1
     61     70     1
     61    238     1
     64     73     1
     64     70     1
     64    208     1
     67     73     1
     67     76     1
     67     88     1
     73    229     1
     76    199     1
     82    190     1
     85    220     1
     90    115     1
     90    112     1
     90    109     1
     91    106     1
     91    100     1
     91    298     1
     94    103     1
     94    100     1
     94    268     1
     97    103     1
     97    106     1
     97    118     1
    103    289     1
    106    259     1
    112    250     1
    115    280     1
    120    145     1
    120    142     1
    120    139     1
    121    136     1
    121    130     1
    121    358     1
    124    133     1
    124    130     1
    124    328     1
    127    133     1
    127    136     1
    127    148     1
    133    349     1
    136    319     1
    142    310     1
    145    340     1
    150    175     1
    150    172     1
    150    169     1
    151    166     1
    151    160     1
    151    418     1
    154    163     1
    154    160     1
    154    388     1
    157    163     1
    157    166     1
    157    178     1
    163    409     1
    166    379     1
    172    370     1
    175    400     1
    180    205     1
    180    202     1
    180    199     1
    181    196     1
    181    190     1
    181    478     1
    184    193     1
    184    190     1
    184    448     1
    187    193     1
    187    196     1
    187    208     1
    193    469     1
    196    439     1
    202    430     1
    205    460     1
    210    235     1
    210    232     1
    210    229     1
    211    226     1
    211    220     1
    211    538     1
    214    223     1
    214    220     1
    214    508     1
    217    223     1
    217    226     1
    217    238     1
    223    529     1
    226    499     1
    232    490     1
    235    520     1
    240    265     1
    240    262     1
    240    259     1
    241    256     1
    241    250     1
    241    598     1
    244    253     1
    244    250     1
    244    568     1
    247    253     1
    247    256     1
    247    268     1
    253    589     1
    256    559     1
    262    550     1
    265    580     1
    270    295     1
    270    292     1
    270    289     1
    271    286     1
    271    280     1
    271    658     1
    274    283     1
    274    280     1
    274    628     1
    277    283     1
    277    286     1
    277    298     1
    283    649     1
    286    619     1
    292    610     1
    295    640     1
    300    325     1
    300    322     1
    300    319     1
    301    316     1
    301    310     1
    301    718     1
    304    313     1
    304    310     1
    304    688     1
    307    313     1
    307    316     1
    307    328     1
    313    709     1
    316    679     1
    322    670     1
    325    700     1
    330    355     1
    330    352     1
    330    349     1
    331    346     1
    331    340     1
    331    778     1
    334    343     1
    334    340     1
    334    748     1
    337    343     1
    337    346     1
    337    358     1
    343    769     1
    346    739     1
    352    730     1
    355    760     1
    360    385     1
    360    382     1
    360    379     1
    361    376     1
    361    370     1
    361    838     1
    364    373     1
    364    370     1
    364    808     1
    367    373     1
    367    376     1
    367    388     1
    373    829     1
    376    799     1
    382    790     1
    385    820     1
    390    415     1
    390    412     1
    390    409     1
    391    406     1
    391    400     1
    391    898     1
    394    403     1
    394    400     1
    394    868     1
    397    403     1
    397    406     1
    397    418     1
    403    889     1
    406    859     1
    412    850     1
    415    880     1
    420    445     1
    420    442     1
    420    439     1
    421    436     1
    421    430     1
    421    958     1
    424    433     1
    424    430     1
    424    928     1
    427    433     1
    427    436     1
    427    448     1
    433    949     1
    436    919     1
    442    910     1
    445    940     1
    450    475     1
    450    472     1
    450    469     1
    451    466     1
    451    460     1
    451   1018     1
    454    463     1
    454    460     1
    454    988     1
    457    463     1
    457    466     1
    457    478     1
    463   1009     1
    466    979     1
    472    970     1
    475   1000     1
    480    505     1
    480    502     1
    480    499     1
    481    496     1
    481    490     1
    481   1078     1
    484    493     1
    484    490     1
    484   1048     1
    487    493     1
    487    496     1
    487    508     1
    493   1069     1
    496   1039     1
    502   1030     1
    505   1060     1
    510    535     1
    510    532     1
    510    529     1
    511    526     1
    511    520     1
    511   1138     1
    514    523     1
    514    520     1
    514   1108     1
    517    523     1
    517    526     1
    517    538     1
    523   1129     1
    526   1099     1
    532   1090     1
    535   1120     1
    540    565     1
    540    562     1
    540    559     1
    541    556     1
    541    550     1
    541   1198     1
    544    553     1
    544    550     1
    544   1168     1
    547    553     1
    547    556     1
    547    568     1
    553   1189     1
    556   1159     1
    562   1150     1
    565   1180     1
    570    595     1
    570    592     1
    570    589     1
    571    586     1
    571    580     1
    571   1258     1
    574    583     1
    574    580     1
    574   1228     1
    577    583     1
    577    586     1
    577    598     1
    583   1249     1
    586   1219     1
    592   1210     1
    595   1240     1
    600    625     1
    600    622     1
    600    619     1
    601    616     1
    601    610     1
    601   1318     1
    604    613     1
    604    610     1
    604   1288     1
    607    613     1
    607    616     1
    607    628     1
    613   1309     1
    616   1279     1
    622   1270     1
    625   1300     1
    630    655     1
    630    652     1
    630    649     1
    631    646     1
    631    640     1
    631   1378     1
    634    643     1
    634    640     1
    634   1348     1
    637    643     1
    637    646     1
    637    658     1
    643   1369     1
    646   1339     1
    652   1330     1
    655   1360     1
    660    685     1
    660    682     1
    660    679     1
    661    676     1
    661    670     1
    661   1438     1
    664    673     1
    664    670     1
    664   1408     1
    667    673     1
    667    676     1
    667    688     1
    673   1429     1
    676   1399     1
    682   1390     1
    685   1420     1
    690    715     1
    690    712     1
    690    709     1
    691    706     1
    691    700     1
    691   1498     1
    694    703     1
    694    700     1
    694   1468     1
    697    703     1
    697    706     1
    697    718     1
    703   1489     1
    706   1459     1
    712   1450     1
    715   1480     1
    720    745     1
    720    742     1
    720    739     1
    721    736     1
    721    730     1
    721   1558     1
    724    733     1
    724    730     1
    724   1528     1
    727    733     1
    727    736     1
    727    748     1
    733   1549     1
    736   1519     1
    742   1510     1
    745   1540     1
    750    775     1
    750    772     1
    750    769     1
    751    766     1
    751    760     1
    751   1618     1
    754    763     1
    754    760     1
    754   1588     1
    757    763     1
    757    766     1
    757    778     1
    763   1609     1
    766   1579     1
    772   1570     1
    775   1600     1
    780    805     1
    780    802     1
    780    799     1
    781    796     1
    781    790     1
    781   1678     1
    784    793     1
    784    790     1
    784   1648     1
    787    793     1
    787    796     1
    787    808     1
    793   1669     1
    796   1639     1
    802   1630     1
    805   1660     1
    810    835     1
    810    832     1
    810    829     1
    811    826     1
    811    820     1
    811   1738     1
    814    823     1
    814    820     1
    814   1708     1
    817    823     1
    817    826     1
    817    838     1
    823   1729     1
    826   1699     1
    832   1690     1
    835   1720     1
    840    865     1
    840    862     1
    840    859     1
    841    856     1
    841    850     1
    841   1798     1
    844    853     1
    844    850     1
    844   1768     1
    847    853     1
    847    856     1
    847    868     1
    853   1789     1
    856   1759     1
    862   1750     1
    865   1780     1
    870    895     1
    870    892     1
    870    889     1
    871    886     1
    871    880     1
    871   1858     1
    874    883     1
    874    880     1
    874   1828     1
    877    883     1
    877    886     1
    877    898     1
    883   1849     1
    886   1819     1
    892   1810     1
    895   1840     1
    900    925     1
    900    922     1
    900    919     1
    901    916     1
    901    910     1
    901   1918     1
    904    913     1
    904    910     1
    904   1888     1
    907    913     1
    907    916     1
    907    928     1
    913   1909     1
    916   1879     1
    922   1870     1
    925   1900     1
    930    955     1
    930    952     1
    930    949     1
    931    946     1
    931    940     1
    931   1978     1
    934    943     1
    934    940     1
    934   1948     1
    937    943     1
    937    946     1
    937    958     1
    943   1969     1
    946   1939     1
    952   1930     1
    955   1960     1
    960    985     1
    960    982     1
    960    979     1
    961    976     1
    961    970     1
    961   2038     1
    964    973     1
    964    970     1
    964   2008     1
    967    973     1
    967    976     1
    967    988     1
    973   2029     1
    976   1999     1
    982   1990     1
    985   2020     1
    990   1015     1
    990   1012     1
    990   1009     1
    991   1006     1
    991   1000     1
    991   2098     1
    994   1003     1
    994   1000     1
    994   2068     1
    997   1003     1
    997   1006     1
    997   1018     1
   1003   2089     1
   1006   2059     1
   1012   2050     1
   1015   2080     1
   1020   1045     1
   1020   1042     1
   1020   1039     1
   1021   1036     1
   1021   1030     1
   1021   2158     1
   1024   1033     1
   1024   1030     1
   1024   2128     1
   1027   1033     1
   1027   1036     1
   1027   1048     1
   1033   2149     1
   1036   2119     1
   1042   2110     1
   1045   2140     1
   1050   1075     1
   1050   1072     1
   1050   1069     1
   1051   1066     1
   1051   1060     1
   1051   2218     1
   1054   1063     1
   1054   1060     1
   1054   2188     1
   1057   1063     1
   1057   1066     1
   1057   1078     1
   1063   2209     1
   1066   2179     1
   1072   2170     1
   1075   2200     1
   1080   1105     1
   1080   1102     1
   1080   1099     1
   1081   1096     1
   1081   1090     1
   1081   2278     1
   1084   1093     1
   1084   1090     1
   1084   2248     1
   1087   1093     1
   1087   1096     1
   1087   1108     1
   1093   2269     1
   1096   2239     1
   1102   2230     1
   1105   2260     1
   1110   1135     1
   1110   1132     1
   1110   1129     1
   1111   1126     1
   1111   1120     1
   1111   2338     1
   1114   1123     1
   1114   1120     1
   1114   2308     1
   1117   1123     1
   1117   1126     1
   1117   1138     1
   1123   2329     1
   1126   2299     1
   1132   2290     1
   1135   2320     1
   1140   1165     1
   1140   1162     1
   1140   1159     1
   1141   1156     1
   1141   1150     1
   1141   2398     1
   1144   1153     1
   1144   1150     1
   1144   2368     1
   1147   1153     1
   1147   1156     1
   1147   1168     1
   1153   2389     1
   1156   2359     1
   1162   2350     1
   1165   2380     1
   1170   1195     1
   1170   1192     1
   1170   1189     1
   1171   1186     1
   1171   1180     1
   1171   2458     1
   1174   1183     1
   1174   1180     1
   1174   2428     1
   1177   1183     1
   1177   1186     1
   1177   1198     1
   1183   2449     1
   1186   2419     1
   1192   2410     1
   1195   2440     1
   1200   1225     1
   1200   1222     1
   1200   1219     1
   1201   1216     1
   1201   1210     1
   1201   2518     1
   1204   1213     1
   1204   1210     1
   1204   2488     1
   1207   1213     1
   1207   1216     1
   1207   1228     1
   1213   2509     1
   1216   2479     1
   1222   2470     1
   1225   2500     1
   1230   1255     1
   1230   1252     1
   1230   1249     1
   1231   1246     1
   1231   1240     1
   1231   2578     1
   1234   1243     1
   1234   1240     1
   1234   2548     1
   1237   1243     1
   1237   1246     1
   1237   1258     1
   1243   2569     1
   1246   2539     1
   1252   2530     1
   1255   2560     1
   1260   1285     1
   1260   1282     1
   1260   1279     1
   1261   1276     1
   1261   1270     1
   1261   2638     1
   1264   1273     1
   1264   1270     1
   1264   2608     1
   1267   1273     1
   1267   1276     1
   1267   1288     1
   1273   2629     1
   1276   2599     1
   1282   2590     1
   1285   2620     1
   1290   1315     1
   1290   1312     1
   1290   1309     1
   1291   1306     1
   1291   1300     1
   1291   2698     1
   1294   1303     1
   1294   1300     1
   1294   2668     1
   1297   1303     1
   1297   1306     1
   1297   1318     1
   1303   2689     1
   1306   2659     1
   1312   2650     1
   1315   2680     1
   1320   1345     1
   1320   1342     1
   1320   1339     1
   1321   1336     1
   1321   1330     1
   1321   2758     1
   1324   1333     1
   1324   1330     1
   1324   2728     1
   1327   1333     1
   1327   1336     1
   1327   1348     1
   1333   2749     1
   1336   2719     1
   1342   2710     1
   1345   2740     1
   1350   1375     1
   1350   1372     1
   1350   1369     1
   1351   1366     1
   1351   1360     1
   1351   2818     1
   1354   1363     1
   1354   1360     1
   1354   2788     1
   1357   1363     1
   1357   1366     1
   1357   1378     1
   1363   2809     1
   1366   2779     1
   1372   2770     1
   1375   2800     1
   1380   1405     1
   1380   1402     1
   1380   1399     1
   1381   1396     1
   1381   1390     1
   1381   2878     1
   1384   1393     1
   1384   1390     1
   1384   2848     1
   1387   1393     1
   1387   1396     1
   1387   1408     1
   1393   2869     1
   1396   2839     1
   1402   2830     1
   1405   2860     1
   1410   1435     1
   1410   1432     1
   1410   1429     1
   1411   1426     1
   1411   1420     1
   1411   2938     1
   1414   1423     1
   1414   1420     1
   1414   2908     1
   1417   1423     1
   1417   1426     1
   1417   1438     1
   1423   2929     1
   1426   2899     1
   1432   2890     1
   1435   2920     1
   1440   1465     1
   1440   1462     1
   1440   1459     1
   1441   1456     1
   1441   1450     1
   1441   2998     1
   1444   1453     1
   1444   1450     1
   1444   2968     1
   1447   1453     1
   1447   1456     1
   1447   1468     1
   1453   2989     1
   1456   2959     1
   1462   2950     1
   1465   2980     1
   1470   1495     1
   1470   1492     1
   1470   1489     1
   1471   1486     1
   1471   1480     1
   1471   3058     1
   1474   1483     1
   1474   1480     1
   1474   3028     1
   1477   1483     1
   1477   1486     1
   1477   1498     1
   1483   3049     1
   1486   3019     1
   1492   3010     1
   1495   3040     1
   1500   1525     1
   1500   1522     1
   1500   1519     1
   1501   1516     1
   1501   1510     1
   1501   3118     1
   1504   1513     1
   1504   1510     1
   1504   3088     1
   1507   1513     1
   1507   1516     1
   1507   1528     1
   1513   3109     1
   1516   3079     1
   1522   3070     1
   1525   3100     1
   1530   1555     1
   1530   1552     1
   1530   1549     1
   1531   1546     1
   1531   1540     1
   1531   3178     1
   1534   1543     1
   1534   1540     1
   1534   3148     1
   1537   1543     1
   1537   1546     1
   1537   1558     1
   1543   3169     1
   1546   3139     1
   1552   3130     1
   1555   3160     1
   1560   1585     1
   1560   1582     1
   1560   1579     1
   1561   1576     1
   1561   1570     1
   1561   3238     1
   1564   1573     1
   1564   1570     1
   1564   3208     1
   1567   1573     1
   1567   1576     1
   1567   1588     1
   1573   3229     1
   1576   3199     1
   1582   3190     1
   1585   3220     1
   1590   1615     1
   1590   1612     1
   1590   1609     1
   1591   1606     1
   1591   1600     1
   1591   3298     1
   1594   1603     1
   1594   1600     1
   1594   3268     1
   1597   1603     1
   1597   1606     1
   1597   1618     1
   1603   3289     1
   1606   3259     1
   1612   3250     1
   1615   3280     1
   1620   1645     1
   1620   1642     1
   1620   1639     1
   1621   1636     1
   1621   1630     1
   1621   3358     1
   1624   1633     1
   1624   1630     1
   1624   3328     1
   1627   1633     1
   1627   1636     1
   1627   1648     1
   1633   3349     1
   1636   3319     1
   1642   3310     1
   1645   3340     1
   1650   1675     1
   1650   1672     1
   1650   1669     1
   1651   1666     1
   1651   1660     1
   1651   3418     1
   1654   1663     1
   1654   1660     1
   1654   3388     1
   1657   1663     1
   1657   1666     1
   1657   1678     1
   1663   3409     1
   1666   3379     1
   1672   3370     1
   1675   3400     1
   1680   1705     1
   1680   1702     1
   1680   1699     1
   1681   1696     1
   1681   1690     1
   1681   3478     1
   1684   1693     1
   1684   1690     1
   1684   3448     1
   1687   1693     1
   1687   1696     1
   1687   1708     1
   1693   3469     1
   1696   3439     1
   1702   3430     1
   1705   3460     1
   1710   1735     1
   1710   1732     1
   1710   1729     1
   1711   1726     1
   1711   1720     1
   1711   3538     1
   1714   1723     1
   1714   1720     1
   1714   3508     1
   1717   1723     1
   1717   1726     1
   1717   1738     1
   1723   3529     1
   1726   3499     1
   1732   3490     1
   1735   3520     1
   1740   1765     1
   1740   1762     1
   1740   1759     1
   1741   1756     1
   1741   1750     1
   1741   3598     1
   1744   1753     1
   1744   1750     1
   1744   3568     1
   1747   1753     1
   1747   1756     1
   1747   1768     1
   1753   3589     1
   1756   3559     1
   1762   3550     1
   1765   3580     1
   1770   1795     1
   1770   1792     1
   1770   1789     1
   1771   1786     1
   1771   1780     1
   1771   3658     1
   1774   1783     1
   1774   1780     1
   1774   3628     1
   1777   1783     1
   1777   1786     1
   1777   1798     1
   1783   3649     1
   1786   3619     1
   1792   3610     1
   1795   3640     1
   1800   1825     1
   1800   1822     1
   1800   1819     1
   1801   1816     1
   1801   1810     1
   1801   3718     1
   1804   1813     1
   1804   1810     1
   1804   3688     1
   1807   1813     1
   1807   1816     1
   1807   1828     1
   1813   3709     1
   1816   3679     1
   1822   3670     1
   1825   3700     1
   1830   1855     1
   1830   1852     1
   1830   1849     1
   1831   1846     1
   1831   1840     1
   1831   3778     1
   1834   1843     1
   1834   1840     1
   1834   3748     1
   1837   1843     1
   1837   1846     1
   1837   1858     1
   1843   3769     1
   1846   3739     1
   1852   3730     1
   1855   3760     1
   1860   1885     1
   1860   1882     1
   1860   1879     1
   1861   1876     1
   1861   1870     1
   1861   3838     1
   1864   1873     1
   1864   1870     1
   1864   3808     1
   1867   1873     1
   1867   1876     1
   1867   1888     1
   1873   3829     1
   1876   3799     1
   1882   3790     1
   1885   3820     1
   1890   1915     1
   1890   1912     1
   1890   1909     1
   1891   1906     1
   1891   1900     1
   1891   3898     1
   1894   1903     1
   1894   1900     1
   1894   3868     1
   1897   1903     1
   1897   1906     1
   1897   1918     1
   1903   3889     1
   1906   3859     1
   1912   3850     1
   1915   3880     1
   1920   1945     1
   1920   1942     1
   1920   1939     1
   1921   1936     1
   1921   1930     1
   1921   3958     1
   1924   1933     1
   1924   1930     1
   1924   3928     1
   1927   1933     1
   1927   1936     1
   1927   1948     1
   1933   3949     1
   1936   3919     1
   1942   3910     1
   1945   3940     1
   1950   1975     1
   1950   1972     1
   1950   1969     1
   1951   1966     1
   1951   1960     1
   1951   4018     1
   1954   1963     1
   1954   1960     1
   1954   3988     1
   1957   1963     1
   1957   1966     1
   1957   1978     1
   1963   4009     1
   1966   3979     1
   1972   3970     1
   1975   4000     1
   1980   2005     1
   1980   2002     1
   1980   1999     1
   1981   1996     1
   1981   1990     1
   1981   4078     1
   1984   1993     1
   1984   1990     1
   1984   4048     1
   1987   1993     1
   1987   1996     1
   1987   2008     1
   1993   4069     1
   1996   4039     1
   2002   4030     1
   2005   4060     1
   2010   2035     1
   2010   2032     1
   2010   2029     1
   2011   2026     1
   2011   2020     1
   2011   4138     1
   2014   2023     1
   2014   2020     1
   2014   4108     1
   2017   2023     1
   2017   2026     1
   2017   2038     1
   2023   4129     1
   2026   4099     1
   2032   4090     1
   2035   4120     1
   2040   2065     1
   2040   2062     1
   2040   2059     1
   2041   2056     1
   2041   2050     1
   2041   4198     1
   2044   2053     1
   2044   2050     1
   2044   4168     1
   2047   2053     1
   2047   2056     1
   2047   2068     1
   2053   4189     1
   2056   4159     1
   2062   4150     1
   2065   4180     1
   2070   2095     1
   2070   2092     1
   2070   2089     1
   2071   2086     1
   2071   2080     1
   2071   4258     1
   2074   2083     1
   2074   2080     1
   2074   4228     1
   2077   2083     1
   2077   2086     1
   2077   2098     1
   2083   4249     1
   2086   4219     1
   2092   4210     1
   2095   4240     1
   2100   2125     1
   2100   2122     1
   2100   2119     1
   2101   2116     1
   2101   2110     1
   2101   4318     1
   2104   2113     1
   2104   2110     1
   2104   4288     1
   2107   2113     1
   2107   2116     1
   2107   2128     1
   2113   4309     1
   2116   4279     1
   2122   4270     1
   2125   4300     1
   2130   2155     1
   2130   2152     1
   2130   2149     1
   2131   2146     1
   2131   2140     1
   2131   4378     1
   2134   2143     1
   2134   2140     1
   2134   4348     1
   2137   2143     1
   2137   2146     1
   2137   2158     1
   2143   4369     1
   2146   4339     1
   2152   4330     1
   2155   4360     1
   2160   2185     1
   2160   2182     1
   2160   2179     1
   2161   2176     1
   2161   2170     1
   2161   4438     1
   2164   2173     1
   2164   2170     1
   2164   4408     1
   2167   2173     1
   2167   2176     1
   2167   2188     1
   2173   4429     1
   2176   4399     1
   2182   4390     1
   2185   4420     1
   2190   2215     1
   2190   2212     1
   2190   2209     1
   2191   2206     1
   2191   2200     1
   2191   4498     1
   2194   2203     1
   2194   2200     1
   2194   4468     1
   2197   2203     1
   2197   2206     1
   2197   2218     1
   2203   4489     1
   2206   4459     1
   2212   4450     1
   2215   4480     1
   2220   2245     1
   2220   2242     1
   2220   2239     1
   2221   2236     1
   2221   2230     1
   2221   4558     1
   2224   2233     1
   2224   2230     1
   2224   4528     1
   2227   2233     1
   2227   2236     1
   2227   2248     1
   2233   4549     1
   2236   4519     1
   2242   4510     1
   2245   4540     1
   2250   2275     1
   2250   2272     1
   2250   2269     1
   2251   2266     1
   2251   2260     1
   2251   4618     1
   2254   2263     1
   2254   2260     1
   2254   4588     1
   2257   2263     1
   2257   2266     1
   2257   2278     1
   2263   4609     1
   2266   4579     1
   2272   4570     1
   2275   4600     1
   2280   2305     1
   2280   2302     1
   2280   2299     1
   2281   2296     1
   2281   2290     1
   2281   4678     1
   2284   2293     1
   2284   2290     1
   2284   4648     1
   2287   2293     1
   2287   2296     1
   2287   2308     1
   2293   4669     1
   2296   4639     1
   2302   4630     1
   2305   4660     1
   2310   2335     1
   2310   2332     1
   2310   2329     1
   2311   2326     1
   2311   2320     1
   2311   4738     1
   2314   2323     1
   2314   2320     1
   2314   4708     1
   2317   2323     1
   2317   2326     1
   2317   2338     1
   2323   4729     1
   2326   4699     1
   2332   4690     1
   2335   4720     1
   2340   2365     1
   2340   2362     1
   2340   2359     1
   2341   2356     1
   2341   2350     1
   2341   4798     1
   2344   2353     1
   2344   2350     1
   2344   4768     1
   2347   2353     1
   2347   2356     1
   2347   2368     1
   2353   4789     1
   2356   4759     1
   2362   4750     1
   2365   4780     1
   2370   2395     1
   2370   2392     1
   2370   2389     1
   2371   2386     1
   2371   2380     1
   2371   4858     1
   2374   2383     1
   2374   2380     1
   2374   4828     1
   2377   2383     1
   2377   2386     1
   2377   2398     1
   2383   4849     1
   2386   4819     1
   2392   4810     1
   2395   4840     1
   2400   2425     1
   2400   2422     1
   2400   2419     1
   2401   2416     1
   2401   2410     1
   2401   4918     1
   2404   2413     1
   2404   2410     1
   2404   4888     1
   2407   2413     1
   2407   2416     1
   2407   2428     1
   2413   4909     1
   2416   4879     1
   2422   4870     1
   2425   4900     1
   2430   2455     1
   2430   2452     1
   2430   2449     1
   2431   2446     1
   2431   2440     1
   2431   4978     1
   2434   2443     1
   2434   2440     1
   2434   4948     1
   2437   2443     1
   2437   2446     1
   2437   2458     1
   2443   4969     1
   2446   4939     1
   2452   4930     1
   2455   4960     1
   2460   2485     1
   2460   2482     1
   2460   2479     1
   2461   2476     1
   2461   2470     1
   2461   5038     1
   2464   2473     1
   2464   2470     1
   2464   5008     1
   2467   2473     1
   2467   2476     1
   2467   2488     1
   2473   5029     1
   2476   4999     1
   2482   4990     1
   2485   5020     1
   2490   2515     1
   2490   2512     1
   2490   2509     1
   2491   2506     1
   2491   2500     1
   2491   5098     1
   2494   2503     1
   2494   2500     1
   2494   5068     1
   2497   2503     1
   2497   2506     1
   2497   2518     1
   2503   5089     1
   2506   5059     1
   2512   5050     1
   2515   5080     1
   2520   2545     1
   2520   2542     1
   2520   2539     1
   2521   2536     1
   2521   2530     1
   2521   5158     1
   2524   2533     1
   2524   2530     1
   2524   5128     1
   2527   2533     1
   2527   2536     1
   2527   2548     1
   2533   5149     1
   2536   5119     1
   2542   5110     1
   2545   5140     1
   2550   2575     1
   2550   2572     1
   2550   2569     1
   2551   2566     1
   2551   2560     1
   2551   5218     1
   2554   2563     1
   2554   2560     1
   2554   5188     1
   2557   2563     1
   2557   2566     1
   2557   2578     1
   2563   5209     1
   2566   5179     1
   2572   5170     1
   2575   5200     1
   2580   2605     1
   2580   2602     1
   2580   2599     1
   2581   2596     1
   2581   2590     1
   2581   5278     1
   2584   2593     1
   2584   2590     1
   2584   5248     1
   2587   2593     1
   2587   2596     1
   2587   2608     1
   2593   5269     1
   2596   5239     1
   2602   5230     1
   2605   5260     1
   2610   2635     1
   2610   2632     1
   2610   2629     1
   2611   2626     1
   2611   2620     1
   2611   5338     1
   2614   2623     1
   2614   2620     1
   2614   5308     1
   2617   2623     1
   2617   2626     1
   2617   2638     1
   2623   5329     1
   2626   5299     1
   2632   5290     1
   2635   5320     1
   2640   2665     1
   2640   2662     1
   2640   2659     1
   2641   2656     1
   2641   2650     1
   2641   5398     1
   2644   2653     1
   2644   2650     1
   2644   5368     1
   2647   2653     1
   2647   2656     1
   2647   2668     1
   2653   5389     1
   2656   5359     1
   2662   5350     1
   2665   5380     1
   2670   2695     1
   2670   2692     1
   2670   2689     1
   2671   2686     1
   2671   2680     1
   2671   5458     1
   2674   2683     1
   2674   2680     1
   2674   5428     1
   2677   2683     1
   2677   2686     1
   2677   2698     1
   2683   5449     1
   2686   5419     1
   2692   5410     1
   2695   5440     1
   2700   2725     1
   2700   2722     1
   2700   2719     1
   2701   2716     1
   2701   2710     1
   2701   5518     1
   2704   2713     1
   2704   2710     1
   2704   5488     1
   2707   2713     1
   2707   2716     1
   2707   2728     1
   2713   5509     1
   2716   5479     1
   2722   5470     1
   2725   5500     1
   2730   2755     1
   2730   2752     1
   2730   2749     1
   2731   2746     1
   2731   2740     1
   2731   5578     1
   2734   2743     1
   2734   2740     1
   2734   5548     1
   2737   2743     1
   2737   2746     1
   2737   2758     1
   2743   5569     1
   2746   5539     1
   2752   5530     1
   2755   5560     1
   2760   2785     1
   2760   2782     1
   2760   2779     1
   2761   2776     1
   2761   2770     1
   2761   5638     1
   2764   2773     1
   2764   2770     1
   2764   5608     1
   2767   2773     1
   2767   2776     1
   2767   2788     1
   2773   5629     1
   2776   5599     1
   2782   5590     1
   2785   5620     1
   2790   2815     1
   2790   2812     1
   2790   2809     1
   2791   2806     1
   2791   2800     1
   2791   5698     1
   2794   2803     1
   2794   2800     1
   2794   5668     1
   2797   2803     1
   2797   2806     1
   2797   2818     1
   2803   5689     1
   2806   5659     1
   2812   5650     1
   2815   5680     1
   2820   2845     1
   2820   2842     1
   2820   2839     1
   2821   2836     1
   2821   2830     1
   2821   5758     1
   2824   2833     1
   2824   2830     1
   2824   5728     1
   2827   2833     1
   2827   2836     1
   2827   2848     1
   2833   5749     1
   2836   5719     1
   2842   5710     1
   2845   5740     1
   2850   2875     1
   2850   2872     1
   2850   2869     1
   2851   2866     1
   2851   2860     1
   2851   5818     1
   2854   2863     1
   2854   2860     1
   2854   5788     1
   2857   2863     1
   2857   2866     1
   2857   2878     1
   2863   5809     1
   2866   5779     1
   2872   5770     1
   2875   5800     1
   2880   2905     1
   2880   2902     1
   2880   2899     1
   2881   2896     1
   2881   2890     1
   2881   5878     1
   2884   2893     1
   2884   2890     1
   2884   5848     1
   2887   2893     1
   2887   2896     1
   2887   2908     1
   2893   5869     1
   2896   5839     1
   2902   5830     1
   2905   5860     1
   2910   2935     1
   2910   2932     1
   2910   2929     1
   2911   2926     1
   2911   2920     1
   2911   5938     1
   2914   2923     1
   2914   2920     1
   2914   5908     1
   2917   2923     1
   2917   2926     1
   2917   2938     1
   2923   5929     1
   2926   5899     1
   2932   5890     1
   2935   5920     1
   2940   2965     1
   2940   2962     1
   2940   2959     1
   2941   2956     1
   2941   2950     1
   2941   5998     1
   2944   2953     1
   2944   2950     1
   2944   5968     1
   2947   2953     1
   2947   2956     1
   2947   2968     1
   2953   5989     1
   2956   5959     1
   2962   5950     1
   2965   5980     1
   2970   2995     1
   2970   2992     1
   2970   2989     1
   2971   2986     1
   2971   2980     1
   2971   6058     1
   2974   2983     1
   2974   2980     1
   2974   6028     1
   2977   2983     1
   2977   2986     1
   2977   2998     1
   2983   6049     1
   2986   6019     1
   2992   6010     1
   2995   6040     1
   3000   3025     1
   3000   3022     1
   3000   3019     1
   3001   3016     1
   3001   3010     1
   3001   6118     1
   3004   3013     1
   3004   3010     1
   3004   6088     1
   3007   3013     1
   3007   3016     1
   3007   3028     1
   3013   6109     1
   3016   6079     1
   3022   6070     1
   3025   6100     1
   3030   3055     1
   3030   3052     1
   3030   3049     1
   3031   3046     1
   3031   3040     1
   3031   6178     1
   3034   3043     1
   3034   3040     1
   3034   6148     1
   3037   3043     1
   3037   3046     1
   3037   3058     1
   3043   6169     1
   3046   6139     1
   3052   6130     1
   3055   6160     1
   3060   3085     1
   3060   3082     1
   3060   3079     1
   3061   3076     1
   3061   3070     1
   3061   6238     1
   3064   3073     1
   3064   3070     1
   3064   6208     1
   3067   3073     1
   3067   3076     1
   3067   3088     1
   3073   6229     1
   3076   6199     1
   3082   6190     1
   3085   6220     1
   3090   3115     1
   3090   3112     1
   3090   3109     1
   3091   3106     1
   3091   3100     1
   3091   6298     1
   3094   3103     1
   3094   3100     1
   3094   6268     1
   3097   3103     1
   3097   3106     1
   3097   3118     1
   3103   6289     1
   3106   6259     1
   3112   6250     1
   3115   6280     1
   3120   3145     1
   3120   3142     1
   3120   3139     1
   3121   3136     1
   3121   3130     1
   3121   6358     1
   3124   3133     1
   3124   3130     1
   3124   6328     1
   3127   3133     1
   3127   3136     1
   3127   3148     1
   3133   6349     1
   3136   6319     1
   3142   6310     1
   3145   6340     1
   3150   3175     1
   3150   3172     1
   3150   3169     1
   3151   3166     1
   3151   3160     1
   3151   6418     1
   3154   3163     1
   3154   3160     1
   3154   6388     1
   3157   3163     1
   3157   3166     1
   3157   3178     1
   3163   6409     1
   3166   6379     1
   3172   6370     1
   3175   6400     1
   3180   3205     1
   3180   3202     1
   3180   3199     1
   3181   3196     1
   3181   3190     1
   3181   6478     1
   3184   3193     1
   3184   3190     1
   3184   6448     1
   3187   3193     1
   3187   3196     1
   3187   3208     1
   3193   6469     1
   3196   6439     1
   3202   6430     1
   3205   6460     1
   3210   3235     1
   3210   3232     1
   3210   3229     1
   3211   3226     1
   3211   3220     1
   3211   6538     1
   3214   3223     1
   3214   3220     1
   3214   6508     1
   3217   3223     1
   3217   3226     1
   3217   3238     1
   3223   6529     1
   3226   6499     1
   3232   6490     1
   3235   6520     1
   3240   3265     1
   3240   3262     1
   3240   3259     1
   3241   3256     1
   3241   3250     1
   3241   6598     1
   3244   3253     1
   3244   3250     1
   3244   6568     1
   3247   3253     1
   3247   3256     1
   3247   3268     1
   3253   6589     1
   3256   6559     1
   3262   6550     1
   3265   6580     1
   3270   3295     1
   3270   3292     1
   3270   3289     1
   3271   3286     1
   3271   3280     1
   3271   6658     1
   3274   3283     1
   3274   3280     1
   3274   6628     1
   3277   3283     1
   3277   3286     1
   3277   3298     1
   3283   6649     1
   3286   6619     1
   3292   6610     1
   3295   6640     1
   3300   3325     1
   3300   3322     1
   3300   3319     1
   3301   3316     1
   3301   3310     1
   3301   6718     1
   3304   3313     1
   3304   3310     1
   3304   6688     1
   3307   3313     1
   3307   3316     1
   3307   3328     1
   3313   6709     1
   3316   6679     1
   3322   6670     1
   3325   6700     1
   3330   3355     1
   3330   3352     1
   3330   3349     1
   3331   3346     1
   3331   3340     1
   3331   6778     1
   3334   3343     1
   3334   3340     1
   3334   6748     1
   3337   3343     1
   3337   3346     1
   3337   3358     1
   3343   6769     1
   3346   6739     1
   3352   6730     1
   3355   6760     1
   3360   3385     1
   3360   3382     1
   3360   3379     1
   3361   3376     1
   3361   3370     1
   3361   6838     1
   3364   3373     1
   3364   3370     1
   3364   6808     1
   3367   3373     1
   3367   3376     1
   3367   3388     1
   3373   6829     1
   3376   6799     1
   3382   6790     1
   3385   6820     1
   3390   3415     1
   3390   3412     1
   3390   3409     1
   3391   3406     1
   3391   3400     1
   3391   6898     1
   3394   3403     1
   3394   3400     1
   3394   6868     1
   3397   3403     1
   3397   3406     1
   3397   3418     1
   3403   6889     1
   3406   6859     1
   3412   6850     1
   3415   6880     1
   3420   3445     1
   3420   3442     1
   3420   3439     1
   3421   3436     1
   3421   3430     1
   3421   6958     1
   3424   3433     1
   3424   3430     1
   3424   6928     1
   3427   3433     1
   3427   3436     1
   3427   3448     1
   3433   6949     1
   3436   6919     1
   3442   6910     1
   3445   6940     1
   3450   3475     1
   3450   3472     1
   3450   3469     1
   3451   3466     1
   3451   3460     1
   3451   7018     1
   3454   3463     1
   3454   3460     1
   3454   6988     1
   3457   3463     1
   3457   3466     1
   3457   3478     1
   3463   7009     1
   3466   6979     1
   3472   6970     1
   3475   7000     1
   3480   3505     1
   3480   3502     1
   3480   3499     1
   3481   3496     1
   3481   3490     1
   3481   7078     1
   3484   3493     1
   3484   3490     1
   3484   7048     1
   3487   3493     1
   3487   3496     1
   3487   3508     1
   3493   7069     1
   3496   7039     1
   3502   7030     1
   3505   7060     1
   3510   3535     1
   3510   3532     1
   3510   3529     1
   3511   3526     1
   3511   3520     1
   3511   7138     1
   3514   3523     1
   3514   3520     1
   3514   7108     1
   3517   3523     1
   3517   3526     1
   3517   3538     1
   3523   7129     1
   3526   7099     1
   3532   7090     1
   3535   7120     1
   3540   3565     1
   3540   3562     1
   3540   3559     1
   3541   3556     1
   3541   3550     1
   3541   7198     1
   3544   3553     1
   3544   3550     1
   3544   7168     1
   3547   3553     1
   3547   3556     1
   3547   3568     1
   3553   7189     1
   3556   7159     1
   3562   7150     1
   3565   7180     1
   3570   3595     1
   3570   3592     1
   3570   3589     1
   3571   3586     1
   3571   3580     1
   3571   7258     1
   3574   3583     1
   3574   3580     1
   3574   7228     1
   3577   3583     1
   3577   3586     1
   3577   3598     1
   3583   7249     1
   3586   7219     1
   3592   7210     1
   3595   7240     1
   3600   3625     1
   3600   3622     1
   3600   3619     1
   3601   3616     1
   3601   3610     1
   3601   7318     1
   3604   3613     1
   3604   3610     1
   3604   7288     1
   3607   3613     1
   3607   3616     1
   3607   3628     1
   3613   7309     1
   3616   7279     1
   3622   7270     1
   3625   7300     1
   3630   3655     1
   3630   3652     1
   3630   3649     1
   3631   3646     1
   3631   3640     1
   3631   7378     1
   3634   3643     1
   3634   3640     1
   3634   7348     1
   3637   3643     1
   3637   3646     1
   3637   3658     1
   3643   7369     1
   3646   7339     1
   3652   7330     1
   3655   7360     1
   3660   3685     1
   3660   3682     1
   3660   3679     1
   3661   3676     1
   3661   3670     1
   3661   7438     1
   3664   3673     1
   3664   3670     1
   3664   7408     1
   3667   3673     1
   3667   3676     1
   3667   3688     1
   3673   7429     1
   3676   7399     1
   3682   7390     1
   3685   7420     1
   3690   3715     1
   3690   3712     1
   3690   3709     1
   3691   3706     1
   3691   3700     1
   3691   7498     1
   3694   3703     1
   3694   3700     1
   3694   7468     1
   3697   3703     1
   3697   3706     1
   3697   3718     1
   3703   7489     1
   3706   7459     1
   3712   7450     1
   3715   7480     1
   3720   3745     1
   3720   3742     1
   3720   3739     1
   3721   3736     1
   3721   3730     1
   3721   7558     1
   3724   3733     1
   3724   3730     1
   3724   7528     1
   3727   3733     1
   3727   3736     1
   3727   3748     1
   3733   7549     1
   3736   7519     1
   3742   7510     1
   3745   7540     1
   3750   3775     1
   3750   3772     1
   3750   3769     1
   3751   3766     1
   3751   3760     1
   3751   7618     1
   3754   3763     1
   3754   3760     1
   3754   7588     1
   3757   3763     1
   3757   3766     1
   3757   3778     1
   3763   7609     1
   3766   7579     1
   3772   7570     1
   3775   7600     1
   3780   3805     1
   3780   3802     1
   3780   3799     1
   3781   3796     1
   3781   3790     1
   3781   7653     1
   3784   3793     1
   3784   3790     1
   3784   7630     1
   3787   3793     1
   3787   3796     1
   3787   3808     1
   3793   7649     1
   3796   7626     1
   3802   7625     1
   3802   7642     1
   3805   7665     1
   3805   7648     1
   3810   3835     1
   3810   3832     1
   3810   3829     1
   3811   3826     1
   3811   3820     1
   3811   7699     1
   3814   3823     1
   3814   3820     1
   3814   7676     1
   3817   3823     1
   3817   3826     1
   3817   3838     1
   3823   7695     1
   3826   7672     1
   3832   7671     1
   3832   7688     1
   3835   7711     1
   3835   7694     1
   3840   3865     1
   3840   3862     1
   3840   3859     1
   3841   3856     1
   3841   3850     1
   3841   7745     1
   3844   3853     1
   3844   3850     1
   3844   7722     1
   3847   3853     1
   3847   3856     1
   3847   3868     1
   3853   7741     1
   3856   7718     1
   3862   7717     1
   3862   7734     1
   3865   7757     1
   3865   7740     1
   3870   3895     1
   3870   3892     1
   3870   3889     1
   3871   3886     1
   3871   3880     1
   3871   7791     1
   3874   3883     1
   3874   3880     1
   3874   7768     1
   3877   3883     1
   3877   3886     1
   3877   3898     1
   3883   7787     1
   3886   7764     1
   3892   7763     1
   3892   7780     1
   3895   7803     1
   3895   7786     1
   3900   3925     1
   3900   3922     1
   3900   3919     1
   3901   3916     1
   3901   3910     1
   3901   7837     1
   3904   3913     1
   3904   3910     1
   3904   7814     1
   3907   3913     1
   3907   3916     1
   3907   3928     1
   3913   7833     1
   3916   7810     1
   3922   7809     1
   3922   7826     1
   3925   7849     1
   3925   7832     1
   3930   3955     1
   3930   3952     1
   3930   3949     1
   3931   3946     1
   3931   3940     1
   3931   7883     1
   3934   3943     1
   3934   3940     1
   3934   7860     1
   3937   3943     1
   3937   3946     1
   3937   3958     1
   3943   7879     1
   3946   7856     1
   3952   7855     1
   3952   7872     1
   3955   7895     1
   3955   7878     1
   3960   3985     1
   3960   3982     1
   3960   3979     1
   3961   3976     1
   3961   3970     1
   3961   7929     1
   3964   3973     1
   3964   3970     1
   3964   7906     1
   3967   3973     1
   3967   3976     1
   3967   3988     1
   3973   7925     1
   3976   7902     1
   3982   7901     1
   3982   7918     1
   3985   7941     1
   3985   7924     1
   3990   4015     1
   3990   4012     1
   3990   4009     1
   3991   4006     1
   3991   4000     1
   3991   7975     1
   3994   4003     1
   3994   4000     1
   3994   7952     1
   3997   4003     1
   3997   4006     1
   3997   4018     1
   4003   7971     1
   4006   7948     1
   4012   7947     1
   4012   7964     1
   4015   7987     1
   4015   7970     1
   4020   4045     1
   4020   4042     1
   4020   4039     1
   4021   4036     1
   4021   4030     1
   4021   8021     1
   4024   4033     1
   4024   4030     1
   4024   7998     1
   4027   4033     1
   4027   4036     1
   4027   4048     1
   4033   8017     1
   4036   7994     1
   4042   7993     1
   4042   8010     1
   4045   8033     1
   4045   8016     1
   4050   4075     1
   4050   4072     1
   4050   4069     1
   4051   4066     1
   4051   4060     1
   4051   8067     1
   4054   4063     1
   4054   4060     1
   4054   8044     1
   4057   4063     1
   4057   4066     1
   4057   4078     1
   4063   8063     1
   4066   8040     1
   4072   8039     1
   4072   8056     1
   4075   8079     1
   4075   8062     1
   4080   4105     1
   4080   4102     1
   4080   4099     1
   4081   4096     1
   4081   4090     1
   4081   8113     1
   4084   4093     1
   4084   4090     1
   4084   8090     1
   4087   4093     1
   4087   4096     1
   4087   4108     1
   4093   8109     1
   4096   8086     1
   4102   8085     1
   4102   8102     1
   4105   8125     1
   4105   8108     1
   4110   4135     1
   4110   4132     1
   4110   4129     1
   4111   4126     1
   4111   4120     1
   4111   8159     1
   4114   4123     1
   4114   4120     1
   4114   8136     1
   4117   4123     1
   4117   4126     1
   4117   4138     1
   4123   8155     1
   4126   8132     1
   4132   8131     1
   4132   8148     1
   4135   8171     1
   4135   8154     1
   4140   4165     1
   4140   4162     1
   4140   4159     1
   4141   4156     1
   4141   4150     1
   4141   8205     1
   4144   4153     1
   4144   4150     1
   4144   8182     1
   4147   4153     1
   4147   4156     1
   4147   4168     1
   4153   8201     1
   4156   8178     1
   4162   8177     1
   4162   8194     1
   4165   8217     1
   4165   8200     1
   4170   4195     1
   4170   4192     1
   4170   4189     1
   4171   4186     1
   4171   4180     1
   4171   8251     1
   4174   4183     1
   4174   4180     1
   4174   8228     1
   4177   4183     1
   4177   4186     1
   4177   4198     1
   4183   8247     1
   4186   8224     1
   4192   8223     1
   4192   8240     1
   4195   8263     1
   4195   8246     1
   4200   4225     1
   4200   4222     1
   4200   4219     1
   4201   4216     1
   4201   4210     1
   4201   8297     1
   4204   4213     1
   4204   4210     1
   4204   8274     1
   4207   4213     1
   4207   4216     1
   4207   4228     1
   4213   8293     1
   4216   8270     1
   4222   8269     1
   4222   8286     1
   4225   8309     1
   4225   8292     1
   4230   4255     1
   4230   4252     1
   4230   4249     1
   4231   4246     1
   4231   4240     1
   4231   8343     1
   4234   4243     1
   4234   4240     1
   4234   8320     1
   4237   4243     1
   4237   4246     1
   4237   4258     1
   4243   8339     1
   4246   8316     1
   4252   8315     1
   4252   8332     1
   4255   8355     1
   4255   8338     1
   4260   4285     1
   4260   4282     1
   4260   4279     1
   4261   4276     1
   4261   4270     1
   4261   8389     1
   4264   4273     1
   4264   4270     1
   4264   8366     1
   4267   4273     1
   4267   4276     1
   4267   4288     1
   4273   8385     1
   4276   8362     1
   4282   8361     1
   4282   8378     1
   4285   8401     1
   4285   8384     1
   4290   4315     1
   4290   4312     1
   4290   4309     1
   4291   4306     1
   4291   4300     1
   4291   8435     1
   4294   4303     1
   4294   4300     1
   4294   8412     1
   4297   4303     1
   4297   4306     1
   4297   4318     1
   4303   8431     1
   4306   8408     1
   4312   8407     1
   4312   8424     1
   4315   8447     1
   4315   8430     1
   4320   4345     1
   4320   4342     1
   4320   4339     1
   4321   4336     1
   4321   4330     1
   4321   8481     1
   4324   4333     1
   4324   4330     1
   4324   8458     1
   4327   4333     1
   4327   4336     1
   4327   4348     1
   4333   8477     1
   4336   8454     1
   4342   8453     1
   4342   8470     1
   4345   8493     1
   4345   8476     1
   4350   4375     1
   4350   4372     1
   4350   4369     1
   4351   4366     1
   4351   4360     1
   4351   8527     1
   4354   4363     1
   4354   4360     1
   4354   8504     1
   4357   4363     1
   4357   4366     1
   4357   4378     1
   4363   8523     1
   4366   8500     1
   4372   8499     1
   4372   8516     1
   4375   8539     1
   4375   8522     1
   4380   4405     1
   4380   4402     1
   4380   4399     1
   4381   4396     1
   4381   4390     1
   4381   8573     1
   4384   4393     1
   4384   4390     1
   4384   8550     1
   4387   4393     1
   4387   4396     1
   4387   4408     1
   4393   8569     1
   4396   8546     1
   4402   8545     1
   4402   8562     1
   4405   8585     1
   4405   8568     1
   4410   4435     1
   4410   4432     1
   4410   4429     1
   4411   4426     1
   4411   4420     1
   4411   8619     1
   4414   4423     1
   4414   4420     1
   4414   8596     1
   4417   4423     1
   4417   4426     1
   4417   4438     1
   4423   8615     1
   4426   8592     1
   4432   8591     1
   4432   8608     1
   4435   8631     1
   4435   8614     1
   4440   4465     1
   4440   4462     1
   4440   4459     1
   4441   4456     1
   4441   4450     1
   4441   8665     1
   4444   4453     1
   4444   4450     1
   4444   8642     1
   4447   4453     1
   4447   4456     1
   4447   4468     1
   4453   8661     1
   4456   8638     1
   4462   8637     1
   4462   8654     1
   4465   8677     1
   4465   8660     1
   4470   4495     1
   4470   4492     1
   4470   4489     1
   4471   4486     1
   4471   4480     1
   4471   8711     1
   4474   4483     1
   4474   4480     1
   4474   8688     1
   4477   4483     1
   4477   4486     1
   4477   4498     1
   4483   8707     1
   4486   8684     1
   4492   8683     1
   4492   8700     1
   4495   8723     1
   4495   8706     1
   4500   4525     1
   4500   4522     1
   4500   4519     1
   4501   4516     1
   4501   4510     1
   4501   8757     1
   4504   4513     1
   4504   4510     1
   4504   8734     1
   4507   4513     1
   4507   4516     1
   4507   4528     1
   4513   8753     1
   4516   8730     1
   4522   8729     1
   4522   8746     1
   4525   8769     1
   4525   8752     1
   4530   4555     1
   4530   4552     1
   4530   4549     1
   4531   4546     1
   4531   4540     1
   4531   8803     1
   4534   4543     1
   4534   4540     1
   4534   8780     1
   4537   4543     1
   4537   4546     1
   4537   4558     1
   4543   8799     1
   4546   8776     1
   4552   8775     1
   4552   8792     1
   4555   8815     1
   4555   8798     1
   4560   4585     1
   4560   4582     1
   4560   4579     1
   4561   4576     1
   4561   4570     1
   4561   8849     1
   4564   4573     1
   4564   4570     1
   4564   8826     1
   4567   4573     1
   4567   4576     1
   4567   4588     1
   4573   8845     1
   4576   8822     1
   4582   8821     1
   4582   8838     1
   4585   8861     1
   4585   8844     1
   4590   4615     1
   4590   4612     1
   4590   4609     1
   4591   4606     1
   4591   4600     1
   4591   8895     1
   4594   4603     1
   4594   4600     1
   4594   8872     1
   4597   4603     1
   4597   4606     1
   4597   4618     1
   4603   8891     1
   4606   8868     1
   4612   8867     1
   4612   8884     1
   4615   8907     1
   4615   8890     1
   4620   4645     1
   4620   4642     1
   4620   4639     1
   4621   4636     1
   4621   4630     1
   4621   8941     1
   4624   4633     1
   4624   4630     1
   4624   8918     1
   4627   4633     1
   4627   4636     1
   4627   4648     1
   4633   8937     1
   4636   8914     1
   4642   8913     1
   4642   8930     1
   4645   8953     1
   4645   8936     1
   4650   4675     1
   4650   4672     1
   4650   4669     1
   4651   4666     1
   4651   4660     1
   4651   8987     1
   4654   4663     1
   4654   4660     1
   4654   8964     1
   4657   4663     1
   4657   4666     1
   4657   4678     1
   4663   8983     1
   4666   8960     1
   4672   8959     1
   4672   8976     1
   4675   8999     1
   4675   8982     1
   4680   4705     1
   4680   4702     1
   4680   4699     1
   4681   4696     1
   4681   4690     1
   4681   9033     1
   4684   4693     1
   4684   4690     1
   4684   9010     1
   4687   4693     1
   4687   4696     1
   4687   4708     1
   4693   9029     1
   4696   9006     1
   4702   9005     1
   4702   9022     1
   4705   9045     1
   4705   9028     1
   4710   4735     1
   4710   4732     1
   4710   4729     1
   4711   4726     1
   4711   4720     1
   4711   9079     1
   4714   4723     1
   4714   4720     1
   4714   9056     1
   4717   4723     1
   4717   4726     1
   4717   4738     1
   4723   9075     1
   4726   9052     1
   4732   9051     1
   4732   9068     1
   4735   9091     1
   4735   9074     1
   4740   4765     1
   4740   4762     1
   4740   4759     1
   4741   4756     1
   4741   4750     1
   4741   9125     1
   4744   4753     1
   4744   4750     1
   4744   9102     1
   4747   4753     1
   4747   4756     1
   4747   4768     1
   4753   9121     1
   4756   9098     1
   4762   9097     1
   4762   9114     1
   4765   9137     1
   4765   9120     1
   4770   4795     1
   4770   4792     1
   4770   4789     1
   4771   4786     1
   4771   4780     1
   4771   9171     1
   4774   4783     1
   4774   4780     1
   4774   9148     1
   4777   4783     1
   4777   4786     1
   4777   4798     1
   4783   9167     1
   4786   9144     1
   4792   9143     1
   4792   9160     1
   4795   9183     1
   4795   9166     1
   4800   4825     1
   4800   4822     1
   4800   4819     1
   4801   4816     1
   4801   4810     1
   4801   9217     1
   4804   4813     1
   4804   4810     1
   4804   9194     1
   4807   4813     1
   4807   4816     1
   4807   4828     1
   4813   9213     1
   4816   9190     1
   4822   9189     1
   4822   9206     1
   4825   9229     1
   4825   9212     1
   4830   4855     1
   4830   4852     1
   4830   4849     1
   4831   4846     1
   4831   4840     1
   4831   9263     1
   4834   4843     1
   4834   4840     1
   4834   9240     1
   4837   4843     1
   4837   4846     1
   4837   4858     1
   4843   9259     1
   4846   9236     1
   4852   9235     1
   4852   9252     1
   4855   9275     1
   4855   9258     1
   4860   4885     1
   4860   4882     1
   4860   4879     1
   4861   4876     1
   4861   4870     1
   4861   9309     1
   4864   4873     1
   4864   4870     1
   4864   9286     1
   4867   4873     1
   4867   4876     1
   4867   4888     1
   4873   9305     1
   4876   9282     1
   4882   9281     1
   4882   9298     1
   4885   9321     1
   4885   9304     1
   4890   4915     1
   4890   4912     1
   4890   4909     1
   4891   4906     1
   4891   4900     1
   4891   9355     1
   4894   4903     1
   4894   4900     1
   4894   9332     1
   4897   4903     1
   4897   4906     1
   4897   4918     1
   4903   9351     1
   4906   9328     1
   4912   9327     1
   4912   9344     1
   4915   9367     1
   4915   9350     1
   4920   4945     1
   4920   4942     1
   4920   4939     1
   4921   4936     1
   4921   4930     1
   4921   9401     1
   4924   4933     1
   4924   4930     1
   4924   9378     1
   4927   4933     1
   4927   4936     1
   4927   4948     1
   4933   9397     1
   4936   9374     1
   4942   9373     1
   4942   9390     1
   4945   9413     1
   4945   9396     1
   4950   4975     1
   4950   4972     1
   4950   4969     1
   4951   4966     1
   4951   4960     1
   4951   9447     1
   4954   4963     1
   4954   4960     1
   4954   9424     1
   4957   4963     1
   4957   4966     1
   4957   4978     1
   4963   9443     1
   4966   9420     1
   4972   9419     1
   4972   9436     1
   4975   9459     1
   4975   9442     1
   4980   5005     1
   4980   5002     1
   4980   4999     1
   4981   4996     1
   4981   4990     1
   4981   9493     1
   4984   4993     1
   4984   4990     1
   4984   9470     1
   4987   4993     1
   4987   4996     1
   4987   5008     1
   4993   9489     1
   4996   9466     1
   5002   9465     1
   5002   9482     1
   5005   9505     1
   5005   9488     1
   5010   5035     1
   5010   5032     1
   5010   5029     1
   5011   5026     1
   5011   5020     1
   5011   9539     1
   5014   5023     1
   5014   5020     1
   5014   9516     1
   5017   5023     1
   5017   5026     1
   5017   5038     1
   5023   9535     1
   5026   9512     1
   5032   9511     1
   5032   9528     1
   5035   9551     1
   5035   9534     1
   5040   5065     1
   5040   5062     1
   5040   5059     1
   5041   5056     1
   5041   5050     1
   5041   9585     1
   5044   5053     1
   5044   5050     1
   5044   9562     1
   5047   5053     1
   5047   5056     1
   5047   5068     1
   5053   9581     1
   5056   9558     1
   5062   9557     1
   5062   9574     1
   5065   9597     1
   5065   9580     1
   5070   5095     1
   5070   5092     1
   5070   5089     1
   5071   5086     1
   5071   5080     1
   5071   9631     1
   5074   5083     1
   5074   5080     1
   5074   9608     1
   5077   5083     1
   5077   5086     1
   5077   5098     1
   5083   9627     1
   5086   9604     1
   5092   9603     1
   5092   9620     1
   5095   9643     1
   5095   9626     1
   5100   5125     1
   5100   5122     1
   5100   5119     1
   5101   5116     1
   5101   5110     1
   5101   9677     1
   5104   5113     1
   5104   5110     1
   5104   9654     1
   5107   5113     1
   5107   5116     1
   5107   5128     1
   5113   9673     1
   5116   9650     1
   5122   9649     1
   5122   9666     1
   5125   9689     1
   5125   9672     1
   5130   5155     1
   5130   5152     1
   5130   5149     1
   5131   5146     1
   5131   5140     1
   5131   9723     1
   5134   5143     1
   5134   5140     1
   5134   9700     1
   5137   5143     1
   5137   5146     1
   5137   5158     1
   5143   9719     1
   5146   9696     1
   5152   9695     1
   5152   9712     1
   5155   9735     1
   5155   9718     1
   5160   5185     1
   5160   5182     1
   5160   5179     1
   5161   5176     1
   5161   5170     1
   5161   9769     1
   5164   5173     1
   5164   5170     1
   5164   9746     1
   5167   5173     1
   5167   5176     1
   5167   5188     1
   5173   9765     1
   5176   9742     1
   5182   9741     1
   5182   9758     1
   5185   9781     1
   5185   9764     1
   5190   5215     1
   5190   5212     1
   5190   5209     1
   5191   5206     1
   5191   5200     1
   5191   9815     1
   5194   5203     1
   5194   5200     1
   5194   9792     1
   5197   5203     1
   5197   5206     1
   5197   5218     1
   5203   9811     1
   5206   9788     1
   5212   9787     1
   5212   9804     1
   5215   9827     1
   5215   9810     1
   5220   5245     1
   5220   5242     1
   5220   5239     1
   5221   5236     1
   5221   5230     1
   5221   9861     1
   5224   5233     1
   5224   5230     1
   5224   9838     1
   5227   5233     1
   5227   5236     1
   5227   5248     1
   5233   9857     1
   5236   9834     1
   5242   9833     1
   5242   9850     1
   5245   9873     1
   5245   9856     1
   5250   5275     1
   5250   5272     1
   5250   5269     1
   5251   5266     1
   5251   5260     1
   5251   9907     1
   5254   5263     1
   5254   5260     1
   5254   9884     1
   5257   5263     1
   5257   5266     1
   5257   5278     1
   5263   9903     1
   5266   9880     1
   5272   9879     1
   5272   9896     1
   5275   9919     1
   5275   9902     1
   5280   5305     1
   5280   5302     1
   5280   5299     1
   5281   5296     1
   5281   5290     1
   5281   9953     1
   5284   5293     1
   5284   5290     1
   5284   9930     1
   5287   5293     1
   5287   5296     1
   5287   5308     1
   5293   9949     1
   5296   9926     1
   5302   9925     1
   5302   9942     1
   5305   9965     1
   5305   9948     1
   5310   5335     1
   5310   5332     1
   5310   5329     1
   5311   5326     1
   5311   5320     1
   5311   9999     1
   5314   5323     1
   5314   5320     1
   5314   9976     1
   5317   5323     1
   5317   5326     1
   5317   5338     1
   5323   9995     1
   5326   9972     1
   5332   9971     1
   5332   9988     1
   5335  10011     1
   5335   9994     1
   5340   5365     1
   5340   5362     1
   5340   5359     1
   5341   5356     1
   5341   5350     1
   5341  10045     1
   5344   5353     1
   5344   5350     1
   5344  10022     1
   5347   5353     1
   5347   5356     1
   5347   5368     1
   5353  10041     1
   5356  10018     1
   5362  10017     1
   5362  10034     1
   5365  10057     1
   5365  10040     1
   5370   5395     1
   5370   5392     1
   5370   5389     1
   5371   5386     1
   5371   5380     1
   5371  10091     1
   5374   5383     1
   5374   5380     1
   5374  10068     1
   5377   5383     1
   5377   5386     1
   5377   5398     1
   5383  10087     1
   5386  10064     1
   5392  10063     1
   5392  10080     1
   5395  10103     1
   5395  10086     1
   5400   5425     1
   5400   5422     1
   5400   5419     1
   5401   5416     1
   5401   5410     1
   5401  10137     1
   5404   5413     1
   5404   5410     1
   5404  10114     1
   5407   5413     1
   5407   5416     1
   5407   5428     1
   5413  10133     1
   5416  10110     1
   5422  10109     1
   5422  10126     1
   5425  10149     1
   5425  10132     1
   5430   5455     1
   5430   5452     1
   5430   5449     1
   5431   5446     1
   5431   5440     1
   5431  10183     1
   5434   5443     1
   5434   5440     1
   5434  10160     1
   5437   5443     1
   5437   5446     1
   5437   5458     1
   5443  10179     1
   5446  10156     1
   5452  10155     1
   5452  10172     1
   5455  10195     1
   5455  10178     1
   5460   5485     1
   5460   5482     1
   5460   5479     1
   5461   5476     1
   5461   5470     1
   5461  10229     1
   5464   5473     1
   5464   5470     1
   5464  10206     1
   5467   5473     1
   5467   5476     1
   5467   5488     1
   5473  10225     1
   5476  10202     1
   5482  10201     1
   5482  10218     1
   5485  10241     1
   5485  10224     1
   5490   5515     1
   5490   5512     1
   5490   5509     1
   5491   5506     1
   5491   5500     1
   5491  10275     1
   5494   5503     1
   5494   5500     1
   5494  10252     1
   5497   5503     1
   5497   5506     1
   5497   5518     1
   5503  10271     1
   5506  10248     1
   5512  10247     1
   5512  10264     1
   5515  10287     1
   5515  10270     1
   5520   5545     1
   5520   5542     1
   5520   5539     1
   5521   5536     1
   5521   5530     1
   5521  10321     1
   5524   5533     1
   5524   5530     1
   5524  10298     1
   5527   5533     1
   5527   5536     1
   5527   5548     1
   5533  10317     1
   5536  10294     1
   5542  10293     1
   5542  10310     1
   5545  10333     1
   5545  10316     1
   5550   5575     1
   5550   5572     1
   5550   5569     1
   5551   5566     1
   5551   5560     1
   5551  10367     1
   5554   5563     1
   5554   5560     1
   5554  10344     1
   5557   5563     1
   5557   5566     1
   5557   5578     1
   5563  10363     1
   5566  10340     1
   5572  10339     1
   5572  10356     1
   5575  10379     1
   5575  10362     1
   5580   5605     1
   5580   5602     1
   5580   5599     1
   5581   5596     1
   5581   5590     1
   5581  10413     1
   5584   5593     1
   5584   5590     1
   5584  10390     1
   5587   5593     1
   5587   5596     1
   5587   5608     1
   5593  10409     1
   5596  10386     1
   5602  10385     1
   5602  10402     1
   5605  10425     1
   5605  10408     1
   5610   5635     1
   5610   5632     1
   5610   5629     1
   5611   5626     1
   5611   5620     1
   5611  10459     1
   5614   5623     1
   5614   5620     1
   5614  10436     1
   5617   5623     1
   5617   5626     1
   5617   5638     1
   5623  10455     1
   5626  10432     1
   5632  10431     1
   5632  10448     1
   5635  10471     1
   5635  10454     1
   5640   5665     1
   5640   5662     1
   5640   5659     1
   5641   5656     1
   5641   5650     1
   5641  10505     1
   5644   5653     1
   5644   5650     1
   5644  10482     1
   5647   5653     1
   5647   5656     1
   5647   5668     1
   5653  10501     1
   5656  10478     1
   5662  10477     1
   5662  10494     1
   5665  10517     1
   5665  10500     1
   5670   5695     1
   5670   5692     1
   5670   5689     1
   5671   5686     1
   5671   5680     1
   5671  10551     1
   5674   5683     1
   5674   5680     1
   5674  10528     1
   5677   5683     1
   5677   5686     1
   5677   5698     1
   5683  10547     1
   5686  10524     1
   5692  10523     1
   5692  10540     1
   5695  10563     1
   5695  10546     1
   5700   5725     1
   5700   5722     1
   5700   5719     1
   5701   5716     1
   5701   5710     1
   5701  10597     1
   5704   5713     1
   5704   5710     1
   5704  10574     1
   5707   5713     1
   5707   5716     1
   5707   5728     1
   5713  10593     1
   5716  10570     1
   5722  10569     1
   5722  10586     1
   5725  10609     1
   5725  10592     1
   5730   5755     1
   5730   5752     1
   5730   5749     1
   5731   5746     1
   5731   5740     1
   5731  10643     1
   5734   5743     1
   5734   5740     1
   5734  10620     1
   5737   5743     1
   5737   5746     1
   5737   5758     1
   5743  10639     1
   5746  10616     1
   5752  10615     1
   5752  10632     1
   5755  10655     1
   5755  10638     1
   5760   5785     1
   5760   5782     1
   5760   5779     1
   5761   5776     1
   5761   5770     1
   5761  10689     1
   5764   5773     1
   5764   5770     1
   5764  10666     1
   5767   5773     1
   5767   5776     1
   5767   5788     1
   5773  10685     1
   5776  10662     1
   5782  10661     1
   5782  10678     1
   5785  10701     1
   5785  10684     1
   5790   5815     1
   5790   5812     1
   5790   5809     1
   5791   5806     1
   5791   5800     1
   5791  10735     1
   5794   5803     1
   5794   5800     1
   5794  10712     1
   5797   5803     1
   5797   5806     1
   5797   5818     1
   5803  10731     1
   5806  10708     1
   5812  10707     1
   5812  10724     1
   5815  10747     1
   5815  10730     1
   5820   5845     1
   5820   5842     1
   5820   5839     1
   5821   5836     1
   5821   5830     1
   5821  10781     1
   5824   5833     1
   5824   5830     1
   5824  10758     1
   5827   5833     1
   5827   5836     1
   5827   5848     1
   5833  10777     1
   5836  10754     1
   5842  10753     1
   5842  10770     1
   5845  10793     1
   5845  10776     1
   5850   5875     1
   5850   5872     1
   5850   5869     1
   5851   5866     1
   5851   5860     1
   5851  10827     1
   5854   5863     1
   5854   5860     1
   5854  10804     1
   5857   5863     1
   5857   5866     1
   5857   5878     1
   5863  10823     1
   5866  10800     1
   5872  10799     1
   5872  10816     1
   5875  10839     1
   5875  10822     1
   5880   5905     1
   5880   5902     1
   5880   5899     1
   5881   5896     1
   5881   5890     1
   5881  10873     1
   5884   5893     1
   5884   5890     1
   5884  10850     1
   5887   5893     1
   5887   5896     1
   5887   5908     1
   5893  10869     1
   5896  10846     1
   5902  10845     1
   5902  10862     1
   5905  10885     1
   5905  10868     1
   5910   5935     1
   5910   5932     1
   5910   5929     1
   5911   5926     1
   5911   5920     1
   5911  10919     1
   5914   5923     1
   5914   5920     1
   5914  10896     1
   5917   5923     1
   5917   5926     1
   5917   5938     1
   5923  10915     1
   5926  10892     1
   5932  10891     1
   5932  10908     1
   5935  10931     1
   5935  10914     1
   5940   5965     1
   5940   5962     1
   5940   5959     1
   5941   5956     1
   5941   5950     1
   5941  10965     1
   5944   5953     1
   5944   5950     1
   5944  10942     1
   5947   5953     1
   5947   5956     1
   5947   5968     1
   5953  10961     1
   5956  10938     1
   5962  10937     1
   5962  10954     1
   5965  10977     1
   5965  10960     1
   5970   5995     1
   5970   5992     1
   5970   5989     1
   5971   5986     1
   5971   5980     1
   5971  11011     1
   5974   5983     1
   5974   5980     1
   5974  10988     1
   5977   5983     1
   5977   5986     1
   5977   5998     1
   5983  11007     1
   5986  10984     1
   5992  10983     1
   5992  11000     1
   5995  11023     1
   5995  11006     1
   6000   6025     1
   6000   6022     1
   6000   6019     1
   6001   6016     1
   6001   6010     1
   6001  11057     1
   6004   6013     1
   6004   6010     1
   6004  11034     1
   6007   6013     1
   6007   6016     1
   6007   6028     1
   6013  11053     1
   6016  11030     1
   6022  11029     1
   6022  11046     1
   6025  11069     1
   6025  11052     1
   6030   6055     1
   6030   6052     1
   6030   6049     1
   6031   6046     1
   6031   6040     1
   6031  11103     1
   6034   6043     1
   6034   6040     1
   6034  11080     1
   6037   6043     1
   6037   6046     1
   6037   6058     1
   6043  11099     1
   6046  11076     1
   6052  11075     1
   6052  11092     1
   6055  11115     1
   6055  11098     1
   6060   6085     1
   6060   6082     1
   6060   6079     1
   6061   6076     1
   6061   6070     1
   6061  11149     1
   6064   6073     1
   6064   6070     1
   6064  11126     1
   6067   6073     1
   6067   6076     1
   6067   6088     1
   6073  11145     1
   6076  11122     1
   6082  11121     1
   6082  11138     1
   6085  11161     1
   6085  11144     1
   6090   6115     1
   6090   6112     1
   6090   6109     1
   6091   6106     1
   6091   6100     1
   6091  11195     1
   6094   6103     1
   6094   6100     1
   6094  11172     1
   6097   6103     1
   6097   6106     1
   6097   6118     1
   6103  11191     1
   6106  11168     1
   6112  11167     1
   6112  11184     1
   6115  11207     1
   6115  11190     1
   6120   6145     1
   6120   6142     1
   6120   6139     1
   6121   6136     1
   6121   6130     1
   6121  11241     1
   6124   6133     1
   6124   6130     1
   6124  11218     1
   6127   6133     1
   6127   6136     1
   6127   6148     1
   6133  11237     1
   6136  11214     1
   6142  11213     1
   6142  11230     1
   6145  11253     1
   6145  11236     1
   6150   6175     1
   6150   6172     1
   6150   6169     1
   6151   6166     1
   6151   6160     1
   6151  11287     1
   6154   6163     1
   6154   6160     1
   6154  11264     1
   6157   6163     1
   6157   6166     1
   6157   6178     1
   6163  11283     1
   6166  11260     1
   6172  11259     1
   6172  11276     1
   6175  11299     1
   6175  11282     1
   6180   6205     1
   6180   6202     1
   6180   6199     1
   6181   6196     1
   6181   6190     1
   6181  11333     1
   6184   6193     1
   6184   6190     1
   6184  11310     1
   6187   6193     1
   6187   6196     1
   6187   6208     1
   6193  11329     1
   6196  11306     1
   6202  11305     1
   6202  11322     1
   6205  11345     1
   6205  11328     1
   6210   6235     1
   6210   6232     1
   6210   6229     1
   6211   6226     1
   6211   6220     1
   6211  11379     1
   6214   6223     1
   6214   6220     1
   6214  11356     1
   6217   6223     1
   6217   6226     1
   6217   6238     1
   6223  11375     1
   6226  11352     1
   6232  11351     1
   6232  11368     1
   6235  11391     1
   6235  11374     1
   6240   6265     1
   6240   6262     1
   6240   6259     1
   6241   6256     1
   6241   6250     1
   6241  11425     1
   6244   6253     1
   6244   6250     1
   6244  11402     1
   6247   6253     1
   6247   6256     1
   6247   6268     1
   6253  11421     1
   6256  11398     1
   6262  11397     1
   6262  11414     1
   6265  11437     1
   6265  11420     1
   6270   6295     1
   6270   6292     1
   6270   6289     1
   6271   6286     1
   6271   6280     1
   6271  11471     1
   6274   6283     1
   6274   6280     1
   6274  11448     1
   6277   6283     1
   6277   6286     1
   6277   6298     1
   6283  11467     1
   6286  11444     1
   6292  11443     1
   6292  11460     1
   6295  11483     1
   6295  11466     1
   6300   6325     1
   6300   6322     1
   6300   6319     1
   6301   6316     1
   6301   6310     1
   6301  11517     1
   6304   6313     1
   6304   6310     1
   6304  11494     1
   6307   6313     1
   6307   6316     1
   6307   6328     1
   6313  11513     1
   6316  11490     1
   6322  11489     1
   6322  11506     1
   6325  11529     1
   6325  11512     1
   6330   6355     1
   6330   6352     1
   6330   6349     1
   6331   6346     1
   6331   6340     1
   6331  11563     1
   6334   6343     1
   6334   6340     1
   6334  11540     1
   6337   6343     1
   6337   6346     1
   6337   6358     1
   6343  11559     1
   6346  11536     1
   6352  11535     1
   6352  11552     1
   6355  11575     1
   6355  11558     1
   6360   6385     1
   6360   6382     1
   6360   6379     1
   6361   6376     1
   6361   6370     1
   6361  11609     1
   6364   6373     1
   6364   6370     1
   6364  11586     1
   6367   6373     1
   6367   6376     1
   6367   6388     1
   6373  11605     1
   6376  11582     1
   6382  11581     1
   6382  11598     1
   6385  11621     1
   6385  11604     1
   6390   6415     1
   6390   6412     1
   6390   6409     1
   6391   6406     1
   6391   6400     1
   6391  11655     1
   6394   6403     1
   6394   6400     1
   6394  11632     1
   6397   6403     1
   6397   6406     1
   6397   6418     1
   6403  11651     1
   6406  11628     1
   6412  11627     1
   6412  11644     1
   6415  11667     1
   6415  11650     1
   6420   6445     1
   6420   6442     1
   6420   6439     1
   6421   6436     1
   6421   6430     1
   6421  11701     1
   6424   6433     1
   6424   6430     1
   6424  11678     1
   6427   6433     1
   6427   6436     1
   6427   6448     1
   6433  11697     1
   6436  11674     1
   6442  11673     1
   6442  11690     1
   6445  11713     1
   6445  11696     1
   6450   6475     1
   6450   6472     1
   6450   6469     1
   6451   6466     1
   6451   6460     1
   6451  11747     1
   6454   6463     1
   6454   6460     1
   6454  11724     1
   6457   6463     1
   6457   6466     1
   6457   6478     1
   6463  11743     1
   6466  11720     1
   6472  11719     1
   6472  11736     1
   6475  11759     1
   6475  11742     1
   6480   6505     1
   6480   6502     1
   6480   6499     1
   6481   6496     1
   6481   6490     1
   6481  11793     1
   6484   6493     1
   6484   6490     1
   6484  11770     1
   6487   6493     1
   6487   6496     1
   6487   6508     1
   6493  11789     1
   6496  11766     1
   6502  11765     1
   6502  11782     1
   6505  11805     1
   6505  11788     1
   6510   6535     1
   6510   6532     1
   6510   6529     1
   6511   6526     1
   6511   6520     1
   6511  11839     1
   6514   6523     1
   6514   6520     1
   6514  11816     1
   6517   6523     1
   6517   6526     1
   6517   6538     1
   6523  11835     1
   6526  11812     1
   6532  11811     1
   6532  11828     1
   6535  11851     1
   6535  11834     1
   6540   6565     1
   6540   6562     1
   6540   6559     1
   6541   6556     1
   6541   6550     1
   6541  11885     1
   6544   6553     1
   6544   6550     1
   6544  11862     1
   6547   6553     1
   6547   6556     1
   6547   6568     1
   6553  11881     1
   6556  11858     1
   6562  11857     1
   6562  11874     1
   6565  11897     1
   6565  11880     1
   6570   6595     1
   6570   6592     1
   6570   6589     1
   6571   6586     1
   6571   6580     1
   6571  11931     1
   6574   6583     1
   6574   6580     1
   6574  11908     1
   6577   6583     1
   6577   6586     1
   6577   6598     1
   6583  11927     1
   6586  11904     1
   6592  11903     1
   6592  11920     1
   6595  11943     1
   6595  11926     1
   6600   6625     1
   6600   6622     1
   6600   6619     1
   6601   6616     1
   6601   6610     1
   6601  11977     1
   6604   6613     1
   6604   6610     1
   6604  11954     1
   6607   6613     1
   6607   6616     1
   6607   6628     1
   6613  11973     1
   6616  11950     1
   6622  11949     1
   6622  11966     1
   6625  11989     1
   6625  11972     1
   6630   6655     1
   6630   6652     1
   6630   6649     1
   6631   6646     1
   6631   6640     1
   6631  12023     1
   6634   6643     1
   6634   6640     1
   6634  12000     1
   6637   6643     1
   6637   6646     1
   6637   6658     1
   6643  12019     1
   6646  11996     1
   6652  11995     1
   6652  12012     1
   6655  12035     1
   6655  12018     1
   6660   6685     1
   6660   6682     1
   6660   6679     1
   6661   6676     1
   6661   6670     1
   6661  12069     1
   6664   6673     1
   6664   6670     1
   6664  12046     1
   6667   6673     1
   6667   6676     1
   6667   6688     1
   6673  12065     1
   6676  12042     1
   6682  12041     1
   6682  12058     1
   6685  12081     1
   6685  12064     1
   6690   6715     1
   6690   6712     1
   6690   6709     1
   6691   6706     1
   6691   6700     1
   6691  12115     1
   6694   6703     1
   6694   6700     1
   6694  12092     1
   6697   6703     1
   6697   6706     1
   6697   6718     1
   6703  12111     1
   6706  12088     1
   6712  12087     1
   6712  12104     1
   6715  12127     1
   6715  12110     1
   6720   6745     1
   6720   6742     1
   6720   6739     1
   6721   6736     1
   6721   6730     1
   6721  12161     1
   6724   6733     1
   6724   6730     1
   6724  12138     1
   6727   6733     1
   6727   6736     1
   6727   6748     1
   6733  12157     1
   6736  12134     1
   6742  12133     1
   6742  12150     1
   6745  12173     1
   6745  12156     1
   6750   6775     1
   6750   6772     1
   6750   6769     1
   6751   6766     1
   6751   6760     1
   6751  12207     1
   6754   6763     1
   6754   6760     1
   6754  12184     1
   6757   6763     1
   6757   6766     1
   6757   6778     1
   6763  12203     1
   6766  12180     1
   6772  12179     1
   6772  12196     1
   6775  12219     1
   6775  12202     1
   6780   6805     1
   6780   6802     1
   6780   6799     1
   6781   6796     1
   6781   6790     1
   6781  12253     1
   6784   6793     1
   6784   6790     1
   6784  12230     1
   6787   6793     1
   6787   6796     1
   6787   6808     1
   6793  12249     1
   6796  12226     1
   6802  12225     1
   6802  12242     1
   6805  12265     1
   6805  12248     1
   6810   6835     1
   6810   6832     1
   6810   6829     1
   6811   6826     1
   6811   6820     1
   6811  12299     1
   6814   6823     1
   6814   6820     1
   6814  12276     1
   6817   6823     1
   6817   6826     1
   6817   6838     1
   6823  12295     1
   6826  12272     1
   6832  12271     1
   6832  12288     1
   6835  12311     1
   6835  12294     1
   6840   6865     1
   6840   6862     1
   6840   6859     1
   6841   6856     1
   6841   6850     1
   6841  12345     1
   6844   6853     1
   6844   6850     1
   6844  12322     1
   6847   6853     1
   6847   6856     1
   6847   6868     1
   6853  12341     1
   6856  12318     1
   6862  12317     1
   6862  12334     1
   6865  12357     1
   6865  12340     1
   6870   6895     1
   6870   6892     1
   6870   6889     1
   6871   6886     1
   6871   6880     1
   6871  12391     1
   6874   6883     1
   6874   6880     1
   6874  12368     1
   6877   6883     1
   6877   6886     1
   6877   6898     1
   6883  12387     1
   6886  12364     1
   6892  12363     1
   6892  12380     1
   6895  12403     1
   6895  12386     1
   6900   6925     1
   6900   6922     1
   6900   6919     1
   6901   6916     1
   6901   6910     1
   6901  12437     1
   6904   6913     1
   6904   6910     1
   6904  12414     1
   6907   6913     1
   6907   6916     1
   6907   6928     1
   6913  12433     1
   6916  12410     1
   6922  12409     1
   6922  12426     1
   6925  12449     1
   6925  12432     1
   6930   6955     1
   6930   6952     1
   6930   6949     1
   6931   6946     1
   6931   6940     1
   6931  12483     1
   6934   6943     1
   6934   6940     1
   6934  12460     1
   6937   6943     1
   6937   6946     1
   6937   6958     1
   6943  12479     1
   6946  12456     1
   6952  12455     1
   6952  12472     1
   6955  12495     1
   6955  12478     1
   6960   6985     1
   6960   6982     1
   6960   6979     1
   6961   6976     1
   6961   6970     1
   6961  12529     1
   6964   6973     1
   6964   6970     1
   6964  12506     1
   6967   6973     1
   6967   6976     1
   6967   6988     1
   6973  12525     1
   6976  12502     1
   6982  12501     1
   6982  12518     1
   6985  12541     1
   6985  12524     1
   6990   7015     1
   6990   7012     1
   6990   7009     1
   6991   7006     1
   6991   7000     1
   6991  12575     1
   6994   7003     1
   6994   7000     1
   6994  12552     1
   6997   7003     1
   6997   7006     1
   6997   7018     1
   7003  12571     1
   7006  12548     1
   7012  12547     1
   7012  12564     1
   7015  12587     1
   7015  12570     1
   7020   7045     1
   7020   7042     1
   7020   7039     1
   7021   7036     1
   7021   7030     1
   7021  12621     1
   7024   7033     1
   7024   7030     1
   7024  12598     1
   7027   7033     1
   7027   7036     1
   7027   7048     1
   7033  12617     1
   7036  12594     1
   7042  12593     1
   7042  12610     1
   7045  12633     1
   7045  12616     1
   7050   7075     1
   7050   7072     1
   7050   7069     1
   7051   7066     1
   7051   7060     1
   7051  12667     1
   7054   7063     1
   7054   7060     1
   7054  12644     1
   7057   7063     1
   7057   7066     1
   7057   7078     1
   7063  12663     1
   7066  12640     1
   7072  12639     1
   7072  12656     1
   7075  12679     1
   7075  12662     1
   7080   7105     1
   7080   7102     1
   7080   7099     1
   7081   7096     1
   7081   7090     1
   7081  12713     1
   7084   7093     1
   7084   7090     1
   7084  12690     1
   7087   7093     1
   7087   7096     1
   7087   7108     1
   7093  12709     1
   7096  12686     1
   7102  12685     1
   7102  12702     1
   7105  12725     1
   7105  12708     1
   7110   7135     1
   7110   7132     1
   7110   7129     1
   7111   7126     1
   7111   7120     1
   7111  12759     1
   7114   7123     1
   7114   7120     1
   7114  12736     1
   7117   7123     1
   7117   7126     1
   7117   7138     1
   7123  12755     1
   7126  12732     1
   7132  12731     1
   7132  12748     1
   7135  12771     1
   7135  12754     1
   7140   7165     1
   7140   7162     1
   7140   7159     1
   7141   7156     1
   7141   7150     1
   7141  12805     1
   7144   7153     1
   7144   7150     1
   7144  12782     1
   7147   7153     1
   7147   7156     1
   7147   7168     1
   7153  12801     1
   7156  12778     1
   7162  12777     1
   7162  12794     1
   7165  12817     1
   7165  12800     1
   7170   7195     1
   7170   7192     1
   7170   7189     1
   7171   7186     1
   7171   7180     1
   7171  12851     1
   7174   7183     1
   7174   7180     1
   7174  12828     1
   7177   7183     1
   7177   7186     1
   7177   7198     1
   7183  12847     1
   7186  12824     1
   7192  12823     1
   7192  12840     1
   7195  12863     1
   7195  12846     1
   7200   7225     1
   7200   7222     1
   7200   7219     1
   7201   7216     1
   7201   7210     1
   7201  12897     1
   7204   7213     1
   7204   7210     1
   7204  12874     1
   7207   7213     1
   7207   7216     1
   7207   7228     1
   7213  12893     1
   7216  12870     1
   7222  12869     1
   7222  12886     1
   7225  12909     1
   7225  12892     1
   7230   7255     1
   7230   7252     1
   7230   7249     1
   7231   7246     1
   7231   7240     1
   7231  12943     1
   7234   7243     1
   7234   7240     1
   7234  12920     1
   7237   7243     1
   7237   7246     1
   7237   7258     1
   7243  12939     1
   7246  12916     1
   7252  12915     1
   7252  12932     1
   7255  12955     1
   7255  12938     1
   7260   7285     1
   7260   7282     1
   7260   7279     1
   7261   7276     1
   7261   7270     1
   7261  12989     1
   7264   7273     1
   7264   7270     1
   7264  12966     1
   7267   7273     1
   7267   7276     1
   7267   7288     1
   7273  12985     1
   7276  12962     1
   7282  12961     1
   7282  12978     1
   7285  13001     1
   7285  12984     1
   7290   7315     1
   7290   7312     1
   7290   7309     1
   7291   7306     1
   7291   7300     1
   7291  13035     1
   7294   7303     1
   7294   7300     1
   7294  13012     1
   7297   7303     1
   7297   7306     1
   7297   7318     1
   7303  13031     1
   7306  13008     1
   7312  13007     1
   7312  13024     1
   7315  13047     1
   7315  13030     1
   7320   7345     1
   7320   7342     1
   7320   7339     1
   7321   7336     1
   7321   7330     1
   7321  13081     1
   7324   7333     1
   7324   7330     1
   7324  13058     1
   7327   7333     1
   7327   7336     1
   7327   7348     1
   7333  13077     1
   7336  13054     1
   7342  13053     1
   7342  13070     1
   7345  13093     1
   7345  13076     1
   7350   7375     1
   7350   7372     1
   7350   7369     1
   7351   7366     1
   7351   7360     1
   7351  13127     1
   7354   7363     1
   7354   7360     1
   7354  13104     1
   7357   7363     1
   7357   7366     1
   7357   7378     1
   7363  13123     1
   7366  13100     1
   7372  13099     1
   7372  13116     1
   7375  13139     1
   7375  13122     1
   7380   7405     1
   7380   7402     1
   7380   7399     1
   7381   7396     1
   7381   7390     1
   7381  13173     1
   7384   7393     1
   7384   7390     1
   7384  13150     1
   7387   7393     1
   7387   7396     1
   7387   7408     1
   7393  13169     1
   7396  13146     1
   7402  13145     1
   7402  13162     1
   7405  13185     1
   7405  13168     1
   7410   7435     1
   7410   7432     1
   7410   7429     1
   7411   7426     1
   7411   7420     1
   7411  13219     1
   7414   7423     1
   7414   7420     1
   7414  13196     1
   7417   7423     1
   7417   7426     1
   7417   7438     1
   7423  13215     1
   7426  13192     1
   7432  13191     1
   7432  13208     1
   7435  13231     1
   7435  13214     1
   7440   7465     1
   7440   7462     1
   7440   7459     1
   7441   7456     1
   7441   7450     1
   7441  13265     1
   7444   7453     1
   7444   7450     1
   7444  13242     1
   7447   7453     1
   7447   7456     1
   7447   7468     1
   7453  13261     1
   7456  13238     1
   7462  13237     1
   7462  13254     1
   7465  13277     1
   7465  13260     1
   7470   7495     1
   7470   7492     1
   7470   7489     1
   7471   7486     1
   7471   7480     1
   7471  13311     1
   7474   7483     1
   7474   7480     1
   7474  13288     1
   7477   7483     1
   7477   7486     1
   7477   7498     1
   7483  13307     1
   7486  13284     1
   7492  13283     1
   7492  13300     1
   7495  13323     1
   7495  13306     1
   7500   7525     1
   7500   7522     1
   7500   7519     1
   7501   7516     1
   7501   7510     1
   7501  13357     1
   7504   7513     1
   7504   7510     1
   7504  13334     1
   7507   7513     1
   7507   7516     1
   7507   7528     1
   7513  13353     1
   7516  13330     1
   7522  13329     1
   7522  13346     1
   7525  13369     1
   7525  13352     1
   7530   7555     1
   7530   7552     1
   7530   7549     1
   7531   7546     1
   7531   7540     1
   7531  13403     1
   7534   7543     1
   7534   7540     1
   7534  13380     1
   7537   7543     1
   7537   7546     1
   7537   7558     1
   7543  13399     1
   7546  13376     1
   7552  13375     1
   7552  13392     1
   7555  13415     1
   7555  13398     1
   7560   7585     1
   7560   7582     1
   7560   7579     1
   7561   7576     1
   7561   7570     1
   7561  13449     1
   7564   7573     1
   7564   7570     1
   7564  13426     1
   7567   7573     1
   7567   7576     1
   7567   7588     1
   7573  13445     1
   7576  13422     1
   7582  13421     1
   7582  13438     1
   7585  13461     1
   7585  13444     1
   7590   7615     1
   7590   7612     1
   7590   7609     1
   7591   7606     1
   7591   7600     1
   7591  13495     1
   7594   7603     1
   7594   7600     1
   7594  13472     1
   7597   7603     1
   7597   7606     1
   7597   7618     1
   7603  13491     1
   7606  13468     1
   7612  13467     1
   7612  13484     1
   7615  13507     1
   7615  13490     1
   7620   7625     1
   7620   7632     1
   7620   7630     1
   7621   7640     1
   7621   7626     1
   7621   7631     1
   7624   7634     1
   7624   7642     1
   7624   7630     1
   7625   7633     1
   7626   7632     1
   7626   7634     1
   7630   7631     1
   7631   7632     1
   7631   7642     1
   7632   7633     1
   7633   7634     1
   7633   7642     1
   7640   7642     1
   7643   7648     1
   7643   7655     1
   7643   7653     1
   7644   7649     1
   7644   7654     1
   7644   7663     1
   7647   7653     1
   7647   7665     1
   7647   7657     1
   7648   7656     1
   7649   7657     1
   7649   7655     1
   7653   7654     1
   7654   7665     1
   7654   7655     1
   7655   7656     1
   7656   7657     1
   7656   7665     1
   7663   7665     1
   7666   7671     1
   7666   7678     1
   7666   7676     1
   7667   7686     1
   7667   7672     1
   7667   7677     1
   7670   7680     1
   7670   7688     1
   7670   7676     1
   7671   7679     1
   7672   7678     1
   7672   7680     1
   7676   7677     1
   7677   7678     1
   7677   7688     1
   7678   7679     1
   7679   7680     1
   7679   7688     1
   7686   7688     1
   7689   7694     1
   7689   7701     1
   7689   7699     1
   7690   7695     1
   7690   7700     1
   7690   7709     1
   7693   7699     1
   7693   7711     1
   7693   7703     1
   7694   7702     1
   7695   7703     1
   7695   7701     1
   7699   7700     1
   7700   7711     1
   7700   7701     1
   7701   7702     1
   7702   7703     1
   7702   7711     1
   7709   7711     1
   7712   7717     1
   7712   7724     1
   7712   7722     1
   7713   7732     1
   7713   7718     1
   7713   7723     1
   7716   7726     1
   7716   7734     1
   7716   7722     1
   7717   7725     1
   7718   7724     1
   7718   7726     1
   7722   7723     1
   7723   7724     1
   7723   7734     1
   7724   7725     1
   7725   7726     1
   7725   7734     1
   7732   7734     1
   7735   7740     1
   7735   7747     1
   7735   7745     1
   7736   7741     1
   7736   7746     1
   7736   7755     1
   7739   7745     1
   7739   7757     1
   7739   7749     1
   7740   7748     1
   7741   7749     1
   7741   7747     1
   7745   7746     1
   7746   7757     1
   7746   7747     1
   7747   7748     1
   7748   7749     1
   7748   7757     1
   7755   7757     1
   7758   7763     1
   7758   7770     1
   7758   7768     1
   7759   7778     1
   7759   7764     1
   7759   7769     1
   7762   7772     1
   7762   7780     1
   7762   7768     1
   7763   7771     1
   7764   7770     1
   7764   7772     1
   7768   7769     1
   7769   7770     1
   7769   7780     1
   7770   7771     1
   7771   7772     1
   7771   7780     1
   7778   7780     1
   7781   7786     1
   7781   7793     1
   7781   7791     1
   7782   7787     1
   7782   7792     1
   7782   7801     1
   7785   7791     1
   7785   7803     1
   7785   7795     1
   7786   7794     1
   7787   7795     1
   7787   7793     1
   7791   7792     1
   7792   7803     1
   7792   7793     1
   7793   7794     1
   7794   7795     1
   7794   7803     1
   7801   7803     1
   7804   7809     1
   7804   7816     1
   7804   7814     1
   7805   7824     1
   7805   7810     1
   7805   7815     1
   7808   7818     1
   7808   7826     1
   7808   7814     1
   7809   7817     1
   7810   7816     1
   7810   7818     1
   7814   7815     1
   7815   7816     1
   7815   7826     1
   7816   7817     1
   7817   7818     1
   7817   7826     1
   7824   7826     1
   7827   7832     1
   7827   7839     1
   7827   7837     1
   7828   7833     1
   7828   7838     1
   7828   7847     1
   7831   7837     1
   7831   7849     1
   7831   7841     1
   7832   7840     1
   7833   7841     1
   7833   7839     1
   7837   7838     1
   7838   7849     1
   7838   7839     1
   7839   7840     1
   7840   7841     1
   7840   7849     1
   7847   7849     1
   7850   7855     1
   7850   7862     1
   7850   7860     1
   7851   7870     1
   7851   7856     1
   7851   7861     1
   7854   7864     1
   7854   7872     1
   7854   7860     1
   7855   7863     1
   7856   7862     1
   7856   7864     1
   7860   7861     1
   7861   7862     1
   7861   7872     1
   7862   7863     1
   7863   7864     1
   7863   7872     1
   7870   7872     1
   7873   7878     1
   7873   7885     1
   7873   7883     1
   7874   7879     1
   7874   7884     1
   7874   7893     1
   7877   7883     1
   7877   7895     1
   7877   7887     1
   7878   7886     1
   7879   7887     1
   7879   7885     1
   7883   7884     1
   7884   7895     1
   7884   7885     1
   7885   7886     1
   7886   7887     1
   7886   7895     1
   7893   7895     1
   7896   7901     1
   7896   7908     1
   7896   7906     1
   7897   7916     1
   7897   7902     1
   7897   7907     1
   7900   7910     1
   7900   7918     1
   7900   7906     1
   7901   7909     1
   7902   7908     1
   7902   7910     1
   7906   7907     1
   7907   7908     1
   7907   7918     1
   7908   7909     1
   7909   7910     1
   7909   7918     1
   7916   7918     1
   7919   7924     1
   7919   7931     1
   7919   7929     1
   7920   7925     1
   7920   7930     1
   7920   7939     1
   7923   7929     1
   7923   7941     1
   7923   7933     1
   7924   7932     1
   7925   7933     1
   7925   7931     1
   7929   7930     1
   7930   7941     1
   7930   7931     1
   7931   7932     1
   7932   7933     1
   7932   7941     1
   7939   7941     1
   7942   7947     1
   7942   7954     1
   7942   7952     1
   7943   7962     1
   7943   7948     1
   7943   7953     1
   7946   7956     1
   7946   7964     1
   7946   7952     1
   7947   7955     1
   7948   7954     1
   7948   7956     1
   7952   7953     1
   7953   7954     1
   7953   7964     1
   7954   7955     1
   7955   7956     1
   7955   7964     1
   7962   7964     1
   7965   7970     1
   7965   7977     1
   7965   7975     1
   7966   7971     1
   7966   7976     1
   7966   7985     1
   7969   7975     1
   7969   7987     1
   7969   7979     1
   7970   7978     1
   7971   7979     1
   7971   7977     1
   7975   7976     1
   7976   7987     1
   7976   7977     1
   7977   7978     1
   7978   7979     1
   7978   7987     1
   7985   7987     1
   7988   7993     1
   7988   8000     1
   7988   7998     1
   7989   8008     1
   7989   7994     1
   7989   7999     1
   7992   8002     1
   7992   8010     1
   7992   7998     1
   7993   8001     1
   7994   8000     1
   7994   8002     1
   7998   7999     1
   7999   8000     1
   7999   8010     1
   8000   8001     1
   8001   8002     1
   8001   8010     1
   8008   8010     1
   8011   8016     1
   8011   8023     1
   8011   8021     1
   8012   8017     1
   8012   8022     1
   8012   8031     1
   8015   8021     1
   8015   8033     1
   8015   8025     1
   8016   8024     1
   8017   8025     1
   8017   8023     1
   8021   8022     1
   8022   8033     1
   8022   8023     1
   8023   8024     1
   8024   8025     1
   8024   8033     1
   8031   8033     1
   8034   8039     1
   8034   8046     1
   8034   8044     1
   8035   8054     1
   8035   8040     1
   8035   8045     1
   8038   8048     1
   8038   8056     1
   8038   8044     1
   8039   8047     1
   8040   8046     1
   8040   8048     1
   8044   8045     1
   8045   8046     1
   8045   8056     1
   8046   8047     1
   8047   8048     1
   8047   8056     1
   8054   8056     1
   8057   8062     1
   8057   8069     1
   8057   8067     1
   8058   8063     1
   8058   8068     1
   8058   8077     1
   8061   8067     1
   8061   8079     1
   8061   8071     1
   8062   8070     1
   8063   8071     1
   8063   8069     1
   8067   8068     1
   8068   8079     1
   8068   8069     1
   8069   8070     1
   8070   8071     1
   8070   8079     1
   8077   8079     1
   8080   8085     1
   8080   8092     1
   8080   8090     1
   8081   8100     1
   8081   8086     1
   8081   8091     1
   8084   8094     1
   8084   8102     1
   8084   8090     1
   8085   8093     1
   8086   8092     1
   8086   8094     1
   8090   8091     1
   8091   8092     1
   8091   8102     1
   8092   8093     1
   8093   8094     1
   8093   8102     1
   8100   8102     1
   8103   8108     1
   8103   8115     1
   8103   8113     1
   8104   8109     1
   8104   8114     1
   8104   8123     1
   8107   8113     1
   8107   8125     1
   8107   8117     1
   8108   8116     1
   8109   8117     1
   8109   8115     1
   8113   8114     1
   8114   8125     1
   8114   8115     1
   8115   8116     1
   8116   8117     1
   8116   8125     1
   8123   8125     1
   8126   8131     1
   8126   8138     1
   8126   8136     1
   8127   8146     1
   8127   8132     1
   8127   8137     1
   8130   8140     1
   8130   8148     1
   8130   8136     1
   8131   8139     1
   8132   8138     1
   8132   8140     1
   8136   8137     1
   8137   8138     1
   8137   8148     1
   8138   8139     1
   8139   8140     1
   8139   8148     1
   8146   8148     1
   8149   8154     1
   8149   8161     1
   8149   8159     1
   8150   8155     1
   8150   8160     1
   8150   8169     1
   8153   8159     1
   8153   8171     1
   8153   8163     1
   8154   8162     1
   8155   8163     1
   8155   8161     1
   8159   8160     1
   8160   8171     1
   8160   8161     1
   8161   8162     1
   8162   8163     1
   8162   8171     1
   8169   8171     1
   8172   8177     1
   8172   8184     1
   8172   8182     1
   8173   8192     1
   8173   8178     1
   8173   8183     1
   8176   8186     1
   8176   8194     1
   8176   8182     1
   8177   8185     1
   8178   8184     1
   8178   8186     1
   8182   8183     1
   8183   8184     1
   8183   8194     1
   8184   8185     1
   8185   8186     1
   8185   8194     1
   8192   8194     1
   8195   8200     1
   8195   8207     1
   8195   8205     1
   8196   8201     1
   8196   8206     1
   8196   8215     1
   8199   8205     1
   8199   8217     1
   8199   8209     1
   8200   8208     1
   8201   8209     1
   8201   8207     1
   8205   8206     1
   8206   8217     1
   8206   8207     1
   8207   8208     1
   8208   8209     1
   8208   8217     1
   8215   8217     1
   8218   8223     1
   8218   8230     1
   8218   8228     1
   8219   8238     1
   8219   8224     1
   8219   8229     1
   8222   8232     1
   8222   8240     1
   8222   8228     1
   8223   8231     1
   8224   8230     1
   8224   8232     1
   8228   8229     1
   8229   8230     1
   8229   8240     1
   8230   8231     1
   8231   8232     1
   8231   8240     1
   8238   8240     1
   8241   8246     1
   8241   8253     1
   8241   8251     1
   8242   8247     1
   8242   8252     1
   8242   8261     1
   8245   8251     1
   8245   8263     1
   8245   8255     1
   8246   8254     1
   8247   8255     1
   8247   8253     1
   8251   8252     1
   8252   8263     1
   8252   8253     1
   8253   8254     1
   8254   8255     1
   8254   8263     1
   8261   8263     1
   8264   8269     1
   8264   8276     1
   8264   8274     1
   8265   8284     1
   8265   8270     1
   8265   8275     1
   8268   8278     1
   8268   8286     1
   8268   8274     1
   8269   8277     1
   8270   8276     1
   8270   8278     1
   8274   8275     1
   8275   8276     1
   8275   8286     1
   8276   8277     1
   8277   8278     1
   8277   8286     1
   8284   8286     1
   8287   8292     1
   8287   8299     1
   8287   8297     1
   8288   8293     1
   8288   8298     1
   8288   8307     1
   8291   8297     1
   8291   8309     1
   8291   8301     1
   8292   8300     1
   8293   8301     1
   8293   8299     1
   8297   8298     1
   8298   8309     1
   8298   8299     1
   8299   8300     1
   8300   8301     1
   8300   8309     1
   8307   8309     1
   8310   8315     1
   8310   8322     1
   8310   8320     1
   8311   8330     1
   8311   8316     1
   8311   8321     1
   8314   8324     1
   8314   8332     1
   8314   8320     1
   8315   8323     1
   8316   8322     1
   8316   8324     1
   8320   8321     1
   8321   8322     1
   8321   8332     1
   8322   8323     1
   8323   8324     1
   8323   8332     1
   8330   8332     1
   8333   8338     1
   8333   8345     1
   8333   8343     1
   8334   8339     1
   8334   8344     1
   8334   8353     1
   8337   8343     1
   8337   8355     1
   8337   8347     1
   8338   8346     1
   8339   8347     1
   8339   8345     1
   8343   8344     1
   8344   8355     1
   8344   8345     1
   8345   8346     1
   8346   8347     1
   8346   8355     1
   8353   8355     1
   8356   8361     1
   8356   8368     1
   8356   8366     1
   8357   8376     1
   8357   8362     1
   8357   8367     1
   8360   8370     1
   8360   8378     1
   8360   8366     1
   8361   8369     1
   8362   8368     1
   8362   8370     1
   8366   8367     1
   8367   8368     1
   8367   8378     1
   8368   8369     1
   8369   8370     1
   8369   8378     1
   8376   8378     1
   8379   8384     1
   8379   8391     1
   8379   8389     1
   8380   8385     1
   8380   8390     1
   8380   8399     1
   8383   8389     1
   8383   8401     1
   8383   8393     1
   8384   8392     1
   8385   8393     1
   8385   8391     1
   8389   8390     1
   8390   8401     1
   8390   8391     1
   8391   8392     1
   8392   8393     1
   8392   8401     1
   8399   8401     1
   8402   8407     1
   8402   8414     1
   8402   8412     1
   8403   8422     1
   8403   8408     1
   8403   8413     1
   8406   8416     1
   8406   8424     1
   8406   8412     1
   8407   8415     1
   8408   8414     1
   8408   8416     1
   8412   8413     1
   8413   8414     1
   8413   8424     1
   8414   8415     1
   8415   8416     1
   8415   8424     1
   8422   8424     1
   8425   8430     1
   8425   8437     1
   8425   8435     1
   8426   8431     1
   8426   8436     1
   8426   8445     1
   8429   8435     1
   8429   8447     1
   8429   8439     1
   8430   8438     1
   8431   8439     1
   8431   8437     1
   8435   8436     1
   8436   8447     1
   8436   8437     1
   8437   8438     1
   8438   8439     1
   8438   8447     1
   8445   8447     1
   8448   8453     1
   8448   8460     1
   8448   8458     1
   8449   8468     1
   8449   8454     1
   8449   8459     1
   8452   8462     1
   8452   8470     1
   8452   8458     1
   8453   8461     1
   8454   8460     1
   8454   8462     1
   8458   8459     1
   8459   8460     1
   8459   8470     1
   8460   8461     1
   8461   8462     1
   8461   8470     1
   8468   8470     1
   8471   8476     1
   8471   8483     1
   8471   8481     1
   8472   8477     1
   8472   8482     1
   8472   8491     1
   8475   8481     1
   8475   8493     1
   8475   8485     1
   8476   8484     1
   8477   8485     1
   8477   8483     1
   8481   8482     1
   8482   8493     1
   8482   8483     1
   8483   8484     1
   8484   8485     1
   8484   8493     1
   8491   8493     1
   8494   8499     1
   8494   8506     1
   8494   8504     1
   8495   8514     1
   8495   8500     1
   8495   8505     1
   8498   8508     1
   8498   8516     1
   8498   8504     1
   8499   8507     1
   8500   8506     1
   8500   8508     1
   8504   8505     1
   8505   8506     1
   8505   8516     1
   8506   8507     1
   8507   8508     1
   8507   8516     1
   8514   8516     1
   8517   8522     1
   8517   8529     1
   8517   8527     1
   8518   8523     1
   8518   8528     1
   8518   8537     1
   8521   8527     1
   8521   8539     1
   8521   8531     1
   8522   8530     1
   8523   8531     1
   8523   8529     1
   8527   8528     1
   8528   8539     1
   8528   8529     1
   8529   8530     1
   8530   8531     1
   8530   8539     1
   8537   8539     1
   8540   8545     1
   8540   8552     1
   8540   8550     1
   8541   8560     1
   8541   8546     1
   8541   8551     1
   8544   8554     1
   8544   8562     1
   8544   8550     1
   8545   8553     1
   8546   8552     1
   8546   8554     1
   8550   8551     1
   8551   8552     1
   8551   8562     1
   8552   8553     1
   8553   8554     1
   8553   8562     1
   8560   8562     1
   8563   8568     1
   8563   8575     1
   8563   8573     1
   8564   8569     1
   8564   8574     1
   8564   8583     1
   8567   8573     1
   8567   8585     1
   8567   8577     1
   8568   8576     1
   8569   8577     1
   8569   8575     1
   8573   8574     1
   8574   8585     1
   8574   8575     1
   8575   8576     1
   8576   8577     1
   8576   8585     1
   8583   8585     1
   8586   8591     1
   8586   8598     1
   8586   8596     1
   8587   8606     1
   8587   8592     1
   8587   8597     1
   8590   8600     1
   8590   8608     1
   8590   8596     1
   8591   8599     1
   8592   8598     1
   8592   8600     1
   8596   8597     1
   8597   8598     1
   8597   8608     1
   8598   8599     1
   8599   8600     1
   8599   8608     1
   8606   8608     1
   8609   8614     1
   8609   8621     1
   8609   8619     1
   8610   8615     1
   8610   8620     1
   8610   8629     1
   8613   8619     1
   8613   8631     1
   8613   8623     1
   8614   8622     1
   8615   8623     1
   8615   8621     1
   8619   8620     1
   8620   8631     1
   8620   8621     1
   8621   8622     1
   8622   8623     1
   8622   8631     1
   8629   8631     1
   8632   8637     1
   8632   8644     1
   8632   8642     1
   8633   8652     1
   8633   8638     1
   8633   8643     1
   8636   8646     1
   8636   8654     1
   8636   8642     1
   8637   8645     1
   8638   8644     1
   8638   8646     1
   8642   8643     1
   8643   8644     1
   8643   8654     1
   8644   8645     1
   8645   8646     1
   8645   8654     1
   8652   8654     1
   8655   8660     1
   8655   8667     1
   8655   8665     1
   8656   8661     1
   8656   8666     1
   8656   8675     1
   8659   8665     1
   8659   8677     1
   8659   8669     1
   8660   8668     1
   8661   8669     1
   8661   8667     1
   8665   8666     1
   8666   8677     1
   8666   8667     1
   8667   8668     1
   8668   8669     1
   8668   8677     1
   8675   8677     1
   8678   8683     1
   8678   8690     1
   8678   8688     1
   8679   8698     1
   8679   8684     1
   8679   8689     1
   8682   8692     1
   8682   8700     1
   8682   8688     1
   8683   8691     1
   8684   8690     1
   8684   8692     1
   8688   8689     1
   8689   8690     1
   8689   8700     1
   8690   8691     1
   8691   8692     1
   8691   8700     1
   8698   8700     1
   8701   8706     1
   8701   8713     1
   8701   8711     1
   8702   8707     1
   8702   8712     1
   8702   8721     1
   8705   8711     1
   8705   8723     1
   8705   8715     1
   8706   8714     1
   8707   8715     1
   8707   8713     1
   8711   8712     1
   8712   8723     1
   8712   8713     1
   8713   8714     1
   8714   8715     1
   8714   8723     1
   8721   8723     1
   8724   8729     1
   8724   8736     1
   8724   8734     1
   8725   8744     1
   8725   8730     1
   8725   8735     1
   8728   8738     1
   8728   8746     1
   8728   8734     1
   8729   8737     1
   8730   8736     1
   8730   8738     1
   8734   8735     1
   8735   8736     1
   8735   8746     1
   8736   8737     1
   8737   8738     1
   8737   8746     1
   8744   8746     1
   8747   8752     1
   8747   8759     1
   8747   8757     1
   8748   8753     1
   8748   8758     1
   8748   8767     1
   8751   8757     1
   8751   8769     1
   8751   8761     1
   8752   8760     1
   8753   8761     1
   8753   8759     1
   8757   8758     1
   8758   8769     1
   8758   8759     1
   8759   8760     1
   8760   8761     1
   8760   8769     1
   8767   8769     1
   8770   8775     1
   8770   8782     1
   8770   8780     1
   8771   8790     1
   8771   8776     1
   8771   8781     1
   8774   8784     1
   8774   8792     1
   8774   8780     1
   8775   8783     1
   8776   8782     1
   8776   8784     1
   8780   8781     1
   8781   8782     1
   8781   8792     1
   8782   8783     1
   8783   8784     1
   8783   8792     1
   8790   8792     1
   8793   8798     1
   8793   8805     1
   8793   8803     1
   8794   8799     1
   8794   8804     1
   8794   8813     1
   8797   8803     1
   8797   8815     1
   8797   8807     1
   8798   8806     1
   8799   8807     1
   8799   8805     1
   8803   8804     1
   8804   8815     1
   8804   8805     1
   8805   8806     1
   8806   8807     1
   8806   8815     1
   8813   8815     1
   8816   8821     1
   8816   8828     1
   8816   8826     1
   8817   8836     1
   8817   8822     1
   8817   8827     1
   8820   8830     1
   8820   8838     1
   8820   8826     1
   8821   8829     1
   8822   8828     1
   8822   8830     1
   8826   8827     1
   8827   8828     1
   8827   8838     1
   8828   8829     1
   8829   8830     1
   8829   8838     1
   8836   8838     1
   8839   8844     1
   8839   8851     1
   8839   8849     1
   8840   8845     1
   8840   8850     1
   8840   8859     1
   8843   8849     1
   8843   8861     1
   8843   8853     1
   8844   8852     1
   8845   8853     1
   8845   8851     1
   8849   8850     1
   8850   8861     1
   8850   8851     1
   8851   8852     1
   8852   8853     1
   8852   8861     1
   8859   8861     1
   8862   8867     1
   8862   8874     1
   8862   8872     1
   8863   8882     1
   8863   8868     1
   8863   8873     1
   8866   8876     1
   8866   8884     1
   8866   8872     1
   8867   8875     1
   8868   8874     1
   8868   8876     1
   8872   8873     1
   8873   8874     1
   8873   8884     1
   8874   8875     1
   8875   8876     1
   8875   8884     1
   8882   8884     1
   8885   8890     1
   8885   8897     1
   8885   8895     1
   8886   8891     1
   8886   8896     1
   8886   8905     1
   8889   8895     1
   8889   8907     1
   8889   8899     1
   8890   8898     1
   8891   8899     1
   8891   8897     1
   8895   8896     1
   8896   8907     1
   8896   8897     1
   8897   8898     1
   8898   8899     1
   8898   8907     1
   8905   8907     1
   8908   8913     1
   8908   8920     1
   8908   8918     1
   8909   8928     1
   8909   8914     1
   8909   8919     1
   8912   8922     1
   8912   8930     1
   8912   8918     1
   8913   8921     1
   8914   8920     1
   8914   8922     1
   8918   8919     1
   8919   8920     1
   8919   8930     1
   8920   8921     1
   8921   8922     1
   8921   8930     1
   8928   8930     1
   8931   8936     1
   8931   8943     1
   8931   8941     1
   8932   8937     1
   8932   8942     1
   8932   8951     1
   8935   8941     1
   8935   8953     1
   8935   8945     1
   8936   8944     1
   8937   8945     1
   8937   8943     1
   8941   8942     1
   8942   8953     1
   8942   8943     1
   8943   8944     1
   8944   8945     1
   8944   8953     1
   8951   8953     1
   8954   8959     1
   8954   8966     1
   8954   8964     1
   8955   8974     1
   8955   8960     1
   8955   8965     1
   8958   8968     1
   8958   8976     1
   8958   8964     1
   8959   8967     1
   8960   8966     1
   8960   8968     1
   8964   8965     1
   8965   8966     1
   8965   8976     1
   8966   8967     1
   8967   8968     1
   8967   8976     1
   8974   8976     1
   8977   8982     1
   8977   8989     1
   8977   8987     1
   8978   8983     1
   8978   8988     1
   8978   8997     1
   8981   8987     1
   8981   8999     1
   8981   8991     1
   8982   8990     1
   8983   8991     1
   8983   8989     1
   8987   8988     1
   8988   8999     1
   8988   8989     1
   8989   8990     1
   8990   8991     1
   8990   8999     1
   8997   8999     1
   9000   9005     1
   9000   9012     1
   9000   9010     1
   9001   9020     1
   9001   9006     1
   9001   9011     1
   9004   9014     1
   9004   9022     1
   9004   9010     1
   9005   9013     1
   9006   9012     1
   9006   9014     1
   9010   9011     1
   9011   9012     1
   9011   9022     1
   9012   9013     1
   9013   9014     1
   9013   9022     1
   9020   9022     1
   9023   9028     1
   9023   9035     1
   9023   9033     1
   9024   9029     1
   9024   9034     1
   9024   9043     1
   9027   9033     1
   9027   9045     1
   9027   9037     1
   9028   9036     1
   9029   9037     1
   9029   9035     1
   9033   9034     1
   9034   9045     1
   9034   9035     1
   9035   9036     1
   9036   9037     1
   9036   9045     1
   9043   9045     1
   9046   9051     1
   9046   9058     1
   9046   9056     1
   9047   9066     1
   9047   9052     1
   9047   9057     1
   9050   9060     1
   9050   9068     1
   9050   9056     1
   9051   9059     1
   9052   9058     1
   9052   9060     1
   9056   9057     1
   9057   9058     1
   9057   9068     1
   9058   9059     1
   9059   9060     1
   9059   9068     1
   9066   9068     1
   9069   9074     1
   9069   9081     1
   9069   9079     1
   9070   9075     1
   9070   9080     1
   9070   9089     1
   9073   9079     1
   9073   9091     1
   9073   9083     1
   9074   9082     1
   9075   9083     1
   9075   9081     1
   9079   9080     1
   9080   9091     1
   9080   9081     1
   9081   9082     1
   9082   9083     1
   9082   9091     1
   9089   9091     1
   9092   9097     1
   9092   9104     1
   9092   9102     1
   9093   9112     1
   9093   9098     1
   9093   9103     1
   9096   9106     1
   9096   9114     1
   9096   9102     1
   9097   9105     1
   9098   9104     1
   9098   9106     1
   9102   9103     1
   9103   9104     1
   9103   9114     1
   9104   9105     1
   9105   9106     1
   9105   9114     1
   9112   9114     1
   9115   9120     1
   9115   9127     1
   9115   9125     1
   9116   9121     1
   9116   9126     1
   9116   9135     1
   9119   9125     1
   9119   9137     1
   9119   9129     1
   9120   9128     1
   9121   9129     1
   9121   9127     1
   9125   9126     1
   9126   9137     1
   9126   9127     1
   9127   9128     1
   9128   9129     1
   9128   9137     1
   9135   9137     1
   9138   9143     1
   9138   9150     1
   9138   9148     1
   9139   9158     1
   9139   9144     1
   9139   9149     1
   9142   9152     1
   9142   9160     1
   9142   9148     1
   9143   9151     1
   9144   9150     1
   9144   9152     1
   9148   9149     1
   9149   9150     1
   9149   9160     1
   9150   9151     1
   9151   9152     1
   9151   9160     1
   9158   9160     1
   9161   9166     1
   9161   9173     1
   9161   9171     1
   9162   9167     1
   9162   9172     1
   9162   9181     1
   9165   9171     1
   9165   9183     1
   9165   9175     1
   9166   9174     1
   9167   9175     1
   9167   9173     1
   9171   9172     1
   9172   9183     1
   9172   9173     1
   9173   9174     1
   9174   9175     1
   9174   9183     1
   9181   9183     1
   9184   9189     1
   9184   9196     1
   9184   9194     1
   9185   9204     1
   9185   9190     1
   9185   9195     1
   9188   9198     1
   9188   9206     1
   9188   9194     1
   9189   9197     1
   9190   9196     1
   9190   9198     1
   9194   9195     1
   9195   9196     1
   9195   9206     1
   9196   9197     1
   9197   9198     1
   9197   9206     1
   9204   9206     1
   9207   9212     1
   9207   9219     1
   9207   9217     1
   9208   9213     1
   9208   9218     1
   9208   9227     1
   9211   9217     1
   9211   9229     1
   9211   9221     1
   9212   9220     1
   9213   9221     1
   9213   9219     1
   9217   9218     1
   9218   9229     1
   9218   9219     1
   9219   9220     1
   9220   9221     1
   9220   9229     1
   9227   9229     1
   9230   9235     1
   9230   9242     1
   9230   9240     1
   9231   9250     1
   9231   9236     1
   9231   9241     1
   9234   9244     1
   9234   9252     1
   9234   9240     1
   9235   9243     1
   9236   9242     1
   9236   9244     1
   9240   9241     1
   9241   9242     1
   9241   9252     1
   9242   9243     1
   9243   9244     1
   9243   9252     1
   9250   9252     1
   9253   9258     1
   9253   9265     1
   9253   9263     1
   9254   9259     1
   9254   9264     1
   9254   9273     1
   9257   9263     1
   9257   9275     1
   9257   9267     1
   9258   9266     1
   9259   9267     1
   9259   9265     1
   9263   9264     1
   9264   9275     1
   9264   9265     1
   9265   9266     1
   9266   9267     1
   9266   9275     1
   9273   9275     1
   9276   9281     1
   9276   9288     1
   9276   9286     1
   9277   9296     1
   9277   9282     1
   9277   9287     1
   9280   9290     1
   9280   9298     1
   9280   9286     1
   9281   9289     1
   9282   9288     1
   9282   9290     1
   9286   9287     1
   9287   9288     1
   9287   9298     1
   9288   9289     1
   9289   9290     1
   9289   9298     1
   9296   9298     1
   9299   9304     1
   9299   9311     1
   9299   9309     1
   9300   9305     1
   9300   9310     1
   9300   9319     1
   9303   9309     1
   9303   9321     1
   9303   9313     1
   9304   9312     1
   9305   9313     1
   9305   9311     1
   9309   9310     1
   9310   9321     1
   9310   9311     1
   9311   9312     1
   9312   9313     1
   9312   9321     1
   9319   9321     1
   9322   9327     1
   9322   9334     1
   9322   9332     1
   9323   9342     1
   9323   9328     1
   9323   9333     1
   9326   9336     1
   9326   9344     1
   9326   9332     1
   9327   9335     1
   9328   9334     1
   9328   9336     1
   9332   9333     1
   9333   9334     1
   9333   9344     1
   9334   9335     1
   9335   9336     1
   9335   9344     1
   9342   9344     1
   9345   9350     1
   9345   9357     1
   9345   9355     1
   9346   9351     1
   9346   9356     1
   9346   9365     1
   9349   9355     1
   9349   9367     1
   9349   9359     1
   9350   9358     1
   9351   9359     1
   9351   9357     1
   9355   9356     1
   9356   9367     1
   9356   9357     1
   9357   9358     1
   9358   9359     1
   9358   9367     1
   9365   9367     1
   9368   9373     1
   9368   9380     1
   9368   9378     1
   9369   9388     1
   9369   9374     1
   9369   9379     1
   9372   9382     1
   9372   9390     1
   9372   9378     1
   9373   9381     1
   9374   9380     1
   9374   9382     1
   9378   9379     1
   9379   9380     1
   9379   9390     1
   9380   9381     1
   9381   9382     1
   9381   9390     1
   9388   9390     1
   9391   9396     1
   9391   9403     1
   9391   9401     1
   9392   9397     1
   9392   9402     1
   9392   9411     1
   9395   9401     1
   9395   9413     1
   9395   9405     1
   9396   9404     1
   9397   9405     1
   9397   9403     1
   9401   9402     1
   9402   9413     1
   9402   9403     1
   9403   9404     1
   9404   9405     1
   9404   9413     1
   9411   9413     1
   9414   9419     1
   9414   9426     1
   9414   9424     1
   9415   9434     1
   9415   9420     1
   9415   9425     1
   9418   9428     1
   9418   9436     1
   9418   9424     1
   9419   9427     1
   9420   9426     1
   9420   9428     1
   9424   9425     1
   9425   9426     1
   9425   9436     1
   9426   9427     1
   9427   9428     1
   9427   9436     1
   9434   9436     1
   9437   9442     1
   9437   9449     1
   9437   9447     1
   9438   9443     1
   9438   9448     1
   9438   9457     1
   9441   9447     1
   9441   9459     1
   9441   9451     1
   9442   9450     1
   9443   9451     1
   9443   9449     1
   9447   9448     1
   9448   9459     1
   9448   9449     1
   9449   9450     1
   9450   9451     1
   9450   9459     1
   9457   9459     1
   9460   9465     1
   9460   9472     1
   9460   9470     1
   9461   9480     1
   9461   9466     1
   9461   9471     1
   9464   9474     1
   9464   9482     1
   9464   9470     1
   9465   9473     1
   9466   9472     1
   9466   9474     1
   9470   9471     1
   9471   9472     1
   9471   9482     1
   9472   9473     1
   9473   9474     1
   9473   9482     1
   9480   9482     1
   9483   9488     1
   9483   9495     1
   9483   9493     1
   9484   9489     1
   9484   9494     1
   9484   9503     1
   9487   9493     1
   9487   9505     1
   9487   9497     1
   9488   9496     1
   9489   9497     1
   9489   9495     1
   9493   9494     1
   9494   9505     1
   9494   9495     1
   9495   9496     1
   9496   9497     1
   9496   9505     1
   9503   9505     1
   9506   9511     1
   9506   9518     1
   9506   9516     1
   9507   9526     1
   9507   9512     1
   9507   9517     1
   9510   9520     1
   9510   9528     1
   9510   9516     1
   9511   9519     1
   9512   9518     1
   9512   9520     1
   9516   9517     1
   9517   9518     1
   9517   9528     1
   9518   9519     1
   9519   9520     1
   9519   9528     1
   9526   9528     1
   9529   9534     1
   9529   9541     1
   9529   9539     1
   9530   9535     1
   9530   9540     1
   9530   9549     1
   9533   9539     1
   9533   9551     1
   9533   9543     1
   9534   9542     1
   9535   9543     1
   9535   9541     1
   9539   9540     1
   9540   9551     1
   9540   9541     1
   9541   9542     1
   9542   9543     1
   9542   9551     1
   9549   9551     1
   9552   9557     1
   9552   9564     1
   9552   9562     1
   9553   9572     1
   9553   9558     1
   9553   9563     1
   9556   9566     1
   9556   9574     1
   9556   9562     1
   9557   9565     1
   9558   9564     1
   9558   9566     1
   9562   9563     1
   9563   9564     1
   9563   9574     1
   9564   9565     1
   9565   9566     1
   9565   9574     1
   9572   9574     1
   9575   9580     1
   9575   9587     1
   9575   9585     1
   9576   9581     1
   9576   9586     1
   9576   9595     1
   9579   9585     1
   9579   9597     1
   9579   9589     1
   9580   9588     1
   9581   9589     1
   9581   9587     1
   9585   9586     1
   9586   9597     1
   9586   9587     1
   9587   9588     1
   9588   9589     1
   9588   9597     1
   9595   9597     1
   9598   9603     1
   9598   9610     1
   9598   9608     1
   9599   9618     1
   9599   9604     1
   9599   9609     1
   9602   9612     1
   9602   9620     1
   9602   9608     1
   9603   9611     1
   9604   9610     1
   9604   9612     1
   9608   9609     1
   9609   9610     1
   9609   9620     1
   9610   9611     1
   9611   9612     1
   9611   9620     1
   9618   9620     1
   9621   9626     1
   9621   9633     1
   9621   9631     1
   9622   9627     1
   9622   9632     1
   9622   9641     1
   9625   9631     1
   9625   9643     1
   9625   9635     1
   9626   9634     1
   9627   9635     1
   9627   9633     1
   9631   9632     1
   9632   9643     1
   9632   9633     1
   9633   9634     1
   9634   9635     1
   9634   9643     1
   9641   9643     1
   9644   9649     1
   9644   9656     1
   9644   9654     1
   9645   9664     1
   9645   9650     1
   9645   9655     1
   9648   9658     1
   9648   9666     1
   9648   9654     1
   9649   9657     1
   9650   9656     1
   9650   9658     1
   9654   9655     1
   9655   9656     1
   9655   9666     1
   9656   9657     1
   9657   9658     1
   9657   9666     1
   9664   9666     1
   9667   9672     1
   9667   9679     1
   9667   9677     1
   9668   9673     1
   9668   9678     1
   9668   9687     1
   9671   9677     1
   9671   9689     1
   9671   9681     1
   9672   9680     1
   9673   9681     1
   9673   9679     1
   9677   9678     1
   9678   9689     1
   9678   9679     1
   9679   9680     1
   9680   9681     1
   9680   9689     1
   9687   9689     1
   9690   9695     1
   9690   9702     1
   9690   9700     1
   9691   9710     1
   9691   9696     1
   9691   9701     1
   9694   9704     1
   9694   9712     1
   9694   9700     1
   9695   9703     1
   9696   9702     1
   9696   9704     1
   9700   9701     1
   9701   9702     1
   9701   9712     1
   9702   9703     1
   9703   9704     1
   9703   9712     1
   9710   9712     1
   9713   9718     1
   9713   9725     1
   9713   9723     1
   9714   9719     1
   9714   9724     1
   9714   9733     1
   9717   9723     1
   9717   9735     1
   9717   9727     1
   9718   9726     1
   9719   9727     1
   9719   9725     1
   9723   9724     1
   9724   9735     1
   9724   9725     1
   9725   9726     1
   9726   9727     1
   9726   9735     1
   9733   9735     1
   9736   9741     1
   9736   9748     1
   9736   9746     1
   9737   9756     1
   9737   9742     1
   9737   9747     1
   9740   9750     1
   9740   9758     1
   9740   9746     1
   9741   9749     1
   9742   9748     1
   9742   9750     1
   9746   9747     1
   9747   9748     1
   9747   9758     1
   9748   9749     1
   9749   9750     1
   9749   9758     1
   9756   9758     1
   9759   9764     1
   9759   9771     1
   9759   9769     1
   9760   9765     1
   9760   9770     1
   9760   9779     1
   9763   9769     1
   9763   9781     1
   9763   9773     1
   9764   9772     1
   9765   9773     1
   9765   9771     1
   9769   9770     1
   9770   9781     1
   9770   9771     1
   9771   9772     1
   9772   9773     1
   9772   9781     1
   9779   9781     1
   9782   9787     1
   9782   9794     1
   9782   9792     1
   9783   9802     1
   9783   9788     1
   9783   9793     1
   9786   9796     1
   9786   9804     1
   9786   9792     1
   9787   9795     1
   9788   9794     1
   9788   9796     1
   9792   9793     1
   9793   9794     1
   9793   9804     1
   9794   9795     1
   9795   9796     1
   9795   9804     1
   9802   9804     1
   9805   9810     1
   9805   9817     1
   9805   9815     1
   9806   9811     1
   9806   9816     1
   9806   9825     1
   9809   9815     1
   9809   9827     1
   9809   9819     1
   9810   9818     1
   9811   9819     1
   9811   9817     1
   9815   9816     1
   9816   9827     1
   9816   9817     1
   9817   9818     1
   9818   9819     1
   9818   9827     1
   9825   9827     1
   9828   9833     1
   9828   9840     1
   9828   9838     1
   9829   9848     1
   9829   9834     1
   9829   9839     1
   9832   9842     1
   9832   9850     1
   9832   9838     1
   9833   9841     1
   9834   9840     1
   9834   9842     1
   9838   9839     1
   9839   9840     1
   9839   9850     1
   9840   9841     1
   9841   9842     1
   9841   9850     1
   9848   9850     1
   9851   9856     1
   9851   9863     1
   9851   9861     1
   9852   9857     1
   9852   9862     1
   9852   9871     1
   9855   9861     1
   9855   9873     1
   9855   9865     1
   9856   9864     1
   9857   9865     1
   9857   9863     1
   9861   9862     1
   9862   9873     1
   9862   9863     1
   9863   9864     1
   9864   9865     1
   9864   9873     1
   9871   9873     1
   9874   9879     1
   9874   9886     1
   9874   9884     1
   9875   9894     1
   9875   9880     1
   9875   9885     1
   9878   9888     1
   9878   9896     1
   9878   9884     1
   9879   9887     1
   9880   9886     1
   9880   9888     1
   9884   9885     1
   9885   9886     1
   9885   9896     1
   9886   9887     1
   9887   9888     1
   9887   9896     1
   9894   9896     1
   9897   9902     1
   9897   9909     1
   9897   9907     1
   9898   9903     1
   9898   9908     1
   9898   9917     1
   9901   9907     1
   9901   9919     1
   9901   9911     1
   9902   9910     1
   9903   9911     1
   9903   9909     1
   9907   9908     1
   9908   9919     1
   9908   9909     1
   9909   9910     1
   9910   9911     1
   9910   9919     1
   9917   9919     1
   9920   9925     1
   9920   9932     1
   9920   9930     1
   9921   9940     1
   9921   9926     1
   9921   9931     1
   9924   9934     1
   9924   9942     1
   9924   9930     1
   9925   9933     1
   9926   9932     1
   9926   9934     1
   9930   9931     1
   9931   9932     1
   9931   9942     1
   9932   9933     1
   9933   9934     1
   9933   9942     1
   9940   9942     1
   9943   9948     1
   9943   9955     1
   9943   9953     1
   9944   9949     1
   9944   9954     1
   9944   9963     1
   9947   9953     1
   9947   9965     1
   9947   9957     1
   9948   9956     1
   9949   9957     1
   9949   9955     1
   9953   9954     1
   9954   9965     1
   9954   9955     1
   9955   9956     1
   9956   9957     1
   9956   9965     1
   9963   9965     1
   9966   9971     1
   9966   9978     1
   9966   9976     1
   9967   9986     1
   9967   9972     1
   9967   9977     1
   9970   9980     1
   9970   9988     1
   9970   9976     1
   9971   9979     1
   9972   9978     1
   9972   9980     1
   9976   9977     1
   9977   9978     1
   9977   9988     1
   9978   9979     1
   9979   9980     1
   9979   9988     1
   9986   9988     1
   9989   9994     1
   9989  10001     1
   9989   9999     1
   9990   9995     1
   9990  10000     1
   9990  10009     1
   9993   9999     1
   9993  10011     1
   9993  10003     1
   9994  10002     1
   9995  10003     1
   9995  10001     1
   9999  10000     1
  10000  10011     1
  10000  10001     1
  10001  10002     1
  10002  10003     1
  10002  10011     1
  10009  10011     1
  10012  10017     1
  10012  10024     1
  10012  10022     1
  10013  10032     1
  10013  10018     1
  10013  10023     1
  10016  10026     1
  10016  10034     1
  10016  10022     1
  10017  10025     1
  10018  10024     1
  10018  10026     1
  10022  10023     1
  10023  10024     1
  10023  10034     1
  10024  10025     1
  10025  10026     1
  10025  10034     1
  10032  10034     1
  10035  10040     1
  10035  10047     1
  10035  10045     1
  10036  10041     1
  10036  10046     1
  10036  10055     1
  10039  10045     1
  10039  10057     1
  10039  10049     1
  10040  10048     1
  10041  10049     1
  10041  10047     1
  10045  10046     1
  10046  10057     1
  10046  10047     1
  10047  10048     1
  10048  10049     1
  10048  10057     1
  10055  10057     1
  10058  10063     1
  10058  10070     1
  10058  10068     1
  10059  10078     1
  10059  10064     1
  10059  10069     1
  10062  10072     1
  10062  10080     1
  10062  10068     1
  10063  10071     1
  10064  10070     1
  10064  10072     1
  10068  10069     1
  10069  10070     1
  10069  10080     1
  10070  10071     1
  10071  10072     1
  10071  10080     1
  10078  10080     1
  10081  10086     1
  10081  10093     1
  10081  10091     1
  10082  10087     1
  10082  10092     1
  10082  10101     1
  10085  10091     1
  10085  10103     1
  10085  10095     1
  10086  10094     1
  10087  10095     1
  10087  10093     1
  10091  10092     1
  10092  10103     1
  10092  10093     1
  10093  10094     1
  10094  10095     1
  10094  10103     1
  10101  10103     1
  10104  10109     1
  10104  10116     1
  10104  10114     1
  10105  10124     1
  10105  10110     1
  10105  10115     1
  10108  10118     1
  10108  10126     1
  10108  10114     1
  10109  10117     1
  10110  10116     1
  10110  10118     1
  10114  10115     1
  10115  10116     1
  10115  10126     1
  10116  10117     1
  10117  10118     1
  10117  10126     1
  10124  10126     1
  10127  10132     1
  10127  10139     1
  10127  10137     1
  10128  10133     1
  10128  10138     1
  10128  10147     1
  10131  10137     1
  10131  10149     1
  10131  10141     1
  10132  10140     1
  10133  10141     1
  10133  10139     1
  10137  10138     1
  10138  10149     1
  10138  10139     1
  10139  10140     1
  10140  10141     1
  10140  10149     1
  10147  10149     1
  10150  10155     1
  10150  10162     1
  10150  10160     1
  10151  10170     1
  10151  10156     1
  10151  10161     1
  10154  10164     1
  10154  10172     1
  10154  10160     1
  10155  10163     1
  10156  10162     1
  10156  10164     1
  10160  10161     1
  10161  10162     1
  10161  10172     1
  10162  10163     1
  10163  10164     1
  10163  10172     1
  10170  10172     1
  10173  10178     1
  10173  10185     1
  10173  10183     1
  10174  10179     1
  10174  10184     1
  10174  10193     1
  10177  10183     1
  10177  10195     1
  10177  10187     1
  10178  10186     1
  10179  10187     1
  10179  10185     1
  10183  10184     1
  10184  10195     1
  10184  10185     1
  10185  10186     1
  10186  10187     1
  10186  10195     1
  10193  10195     1
  10196  10201     1
  10196  10208     1
  10196  10206     1
  10197  10216     1
  10197  10202     1
  10197  10207     1
  10200  10210     1
  10200  10218     1
  10200  10206     1
  10201  10209     1
  10202  10208     1
  10202  10210     1
  10206  10207     1
  10207  10208     1
  10207  10218     1
  10208  10209     1
  10209  10210     1
  10209  10218     1
  10216  10218     1
  10219  10224     1
  10219  10231     1
  10219  10229     1
  10220  10225     1
  10220  10230     1
  10220  10239     1
  10223  10229     1
  10223  10241     1
  10223  10233     1
  10224  10232     1
  10225  10233     1
  10225  10231     1
  10229  10230     1
  10230  10241     1
  10230  10231     1
  10231  10232     1
  10232  10233     1
  10232  10241     1
  10239  10241     1
  10242  10247     1
  10242  10254     1
  10242  10252     1
  10243  10262     1
  10243  10248     1
  10243  10253     1
  10246  10256     1
  10246  10264     1
  10246  10252     1
  10247  10255     1
  10248  10254     1
  10248  10256     1
  10252  10253     1
  10253  10254     1
  10253  10264     1
  10254  10255     1
  10255  10256     1
  10255  10264     1
  10262  10264     1
  10265  10270     1
  10265  10277     1
  10265  10275     1
  10266  10271     1
  10266  10276     1
  10266  10285     1
  10269  10275     1
  10269  10287     1
  10269  10279     1
  10270  10278     1
  10271  10279     1
  10271  10277     1
  10275  10276     1
  10276  10287     1
  10276  10277     1
  10277  10278     1
  10278  10279     1
  10278  10287     1
  10285  10287     1
  10288  10293     1
  10288  10300     1
  10288  10298     1
  10289  10308     1
  10289  10294     1
  10289  10299     1
  10292  10302     1
  10292  10310     1
  10292  10298     1
  10293  10301     1
  10294  10300     1
  10294  10302     1
  10298  10299     1
  10299  10300     1
  10299  10310     1
  10300  10301     1
  10301  10302     1
  10301  10310     1
  10308  10310     1
  10311  10316     1
  10311  10323     1
  10311  10321     1
  10312  10317     1
  10312  10322     1
  10312  10331     1
  10315  10321     1
  10315  10333     1
  10315  10325     1
  10316  10324     1
  10317  10325     1
  10317  10323     1
  10321  10322     1
  10322  10333     1
  10322  10323     1
  10323  10324     1
  10324  10325     1
  10324  10333     1
  10331  10333     1
  10334  10339     1
  10334  10346     1
  10334  10344     1
  10335  10354     1
  10335  10340     1
  10335  10345     1
  10338  10348     1
  10338  10356     1
  10338  10344     1
  10339  10347     1
  10340  10346     1
  10340  10348     1
  10344  10345     1
  10345  10346     1
  10345  10356     1
  10346  10347     1
  10347  10348     1
  10347  10356     1
  10354  10356     1
  10357  10362     1
  10357  10369     1
  10357  10367     1
  10358  10363     1
  10358  10368     1
  10358  10377     1
  10361  10367     1
  10361  10379     1
  10361  10371     1
  10362  10370     1
  10363  10371     1
  10363  10369     1
  10367  10368     1
  10368  10379     1
  10368  10369     1
  10369  10370     1
  10370  10371     1
  10370  10379     1
  10377  10379     1
  10380  10385     1
  10380  10392     1
  10380  10390     1
  10381  10400     1
  10381  10386     1
  10381  10391     1
  10384  10394     1
  10384  10402     1
  10384  10390     1
  10385  10393     1
  10386  10392     1
  10386  10394     1
  10390  10391     1
  10391  10392     1
  10391  10402     1
  10392  10393     1
  10393  10394     1
  10393  10402     1
  10400  10402     1
  10403  10408     1
  10403  10415     1
  10403  10413     1
  10404  10409     1
  10404  10414     1
  10404  10423     1
  10407  10413     1
  10407  10425     1
  10407  10417     1
  10408  10416     1
  10409  10417     1
  10409  10415     1
  10413  10414     1
  10414  10425     1
  10414  10415     1
  10415  10416     1
  10416  10417     1
  10416  10425     1
  10423  10425     1
  10426  10431     1
  10426  10438     1
  10426  10436     1
  10427  10446     1
  10427  10432     1
  10427  10437     1
  10430  10440     1
  10430  10448     1
  10430  10436     1
  10431  10439     1
  10432  10438     1
  10432  10440     1
  10436  10437     1
  10437  10438     1
  10437  10448     1
  10438  10439     1
  10439  10440     1
  10439  10448     1
  10446  10448     1
  10449  10454     1
  10449  10461     1
  10449  10459     1
  10450  10455     1
  10450  10460     1
  10450  10469     1
  10453  10459     1
  10453  10471     1
  10453  10463     1
  10454  10462     1
  10455  10463     1
  10455  10461     1
  10459  10460     1
  10460  10471     1
  10460  10461     1
  10461  10462     1
  10462  10463     1
  10462  10471     1
  10469  10471     1
  10472  10477     1
  10472  10484     1
  10472  10482     1
  10473  10492     1
  10473  10478     1
  10473  10483     1
  10476  10486     1
  10476  10494     1
  10476  10482     1
  10477  10485     1
  10478  10484     1
  10478  10486     1
  10482  10483     1
  10483  10484     1
  10483  10494     1
  10484  10485     1
  10485  10486     1
  10485  10494     1
  10492  10494     1
  10495  10500     1
  10495  10507     1
  10495  10505     1
  10496  10501     1
  10496  10506     1
  10496  10515     1
  10499  10505     1
  10499  10517     1
  10499  10509     1
  10500  10508     1
  10501  10509     1
  10501  10507     1
  10505  10506     1
  10506  10517     1
  10506  10507     1
  10507  10508     1
  10508  10509     1
  10508  10517     1
  10515  10517     1
  10518  10523     1
  10518  10530     1
  10518  10528     1
  10519  10538     1
  10519  10524     1
  10519  10529     1
  10522  10532     1
  10522  10540     1
  10522  10528     1
  10523  10531     1
  10524  10530     1
  10524  10532     1
  10528  10529     1
  10529  10530     1
  10529  10540     1
  10530  10531     1
  10531  10532     1
  10531  10540     1
  10538  10540     1
  10541  10546     1
  10541  10553     1
  10541  10551     1
  10542  10547     1
  10542  10552     1
  10542  10561     1
  10545  10551     1
  10545  10563     1
  10545  10555     1
  10546  10554     1
  10547  10555     1
  10547  10553     1
  10551  10552     1
  10552  10563     1
  10552  10553     1
  10553  10554     1
  10554  10555     1
  10554  10563     1
  10561  10563     1
  10564  10569     1
  10564  10576     1
  10564  10574     1
  10565  10584     1
  10565  10570     1
  10565  10575     1
  10568  10578     1
  10568  10586     1
  10568  10574     1
  10569  10577     1
  10570  10576     1
  10570  10578     1
  10574  10575     1
  10575  10576     1
  10575  10586     1
  10576  10577     1
  10577  10578     1
  10577  10586     1
  10584  10586     1
  10587  10592     1
  10587  10599     1
  10587  10597     1
  10588  10593     1
  10588  10598     1
  10588  10607     1
  10591  10597     1
  10591  10609     1
  10591  10601     1
  10592  10600     1
  10593  10601     1
  10593  10599     1
  10597  10598     1
  10598  10609     1
  10598  10599     1
  10599  10600     1
  10600  10601     1
  10600  10609     1
  10607  10609     1
  10610  10615     1
  10610  10622     1
  10610  10620     1
  10611  10630     1
  10611  10616     1
  10611  10621     1
  10614  10624     1
  10614  10632     1
  10614  10620     1
  10615  10623     1
  10616  10622     1
  10616  10624     1
  10620  10621     1
  10621  10622     1
  10621  10632     1
  10622  10623     1
  10623  10624     1
  10623  10632     1
  10630  10632     1
  10633  10638     1
  10633  10645     1
  10633  10643     1
  10634  10639     1
  10634  10644     1
  10634  10653     1
  10637  10643     1
  10637  10655     1
  10637  10647     1
  10638  10646     1
  10639  10647     1
  10639  10645     1
  10643  10644     1
  10644  10655     1
  10644  10645     1
  10645  10646     1
  10646  10647     1
  10646  10655     1
  10653  10655     1
  10656  10661     1
  10656  10668     1
  10656  10666     1
  10657  10676     1
  10657  10662     1
  10657  10667     1
  10660  10670     1
  10660  10678     1
  10660  10666     1
  10661  10669     1
  10662  10668     1
  10662  10670     1
  10666  10667     1
  10667  10668     1
  10667  10678     1
  10668  10669     1
  10669  10670     1
  10669  10678     1
  10676  10678     1
  10679  10684     1
  10679  10691     1
  10679  10689     1
  10680  10685     1
  10680  10690     1
  10680  10699     1
  10683  10689     1
  10683  10701     1
  10683  10693     1
  10684  10692     1
  10685  10693     1
  10685  10691     1
  10689  10690     1
  10690  10701     1
  10690  10691     1
  10691  10692     1
  10692  10693     1
  10692  10701     1
  10699  10701     1
  10702  10707     1
  10702  10714     1
  10702  10712     1
  10703  10722     1
  10703  10708     1
  10703  10713     1
  10706  10716     1
  10706  10724     1
  10706  10712     1
  10707  10715     1
  10708  10714     1
  10708  10716     1
  10712  10713     1
  10713  10714     1
  10713  10724     1
  10714  10715     1
  10715  10716     1
  10715  10724     1
  10722  10724     1
  10725  10730     1
  10725  10737     1
  10725  10735     1
  10726  10731     1
  10726  10736     1
  10726  10745     1
  10729  10735     1
  10729  10747     1
  10729  10739     1
  10730  10738     1
  10731  10739     1
  10731  10737     1
  10735  10736     1
  10736  10747     1
  10736  10737     1
  10737  10738     1
  10738  10739     1
  10738  10747     1
  10745  10747     1
  10748  10753     1
  10748  10760     1
  10748  10758     1
  10749  10768     1
  10749  10754     1
  10749  10759     1
  10752  10762     1
  10752  10770     1
  10752  10758     1
  10753  10761     1
  10754  10760     1
  10754  10762     1
  10758  10759     1
  10759  10760     1
  10759  10770     1
  10760  10761     1
  10761  10762     1
  10761  10770     1
  10768  10770     1
  10771  10776     1
  10771  10783     1
  10771  10781     1
  10772  10777     1
  10772  10782     1
  10772  10791     1
  10775  10781     1
  10775  10793     1
  10775  10785     1
  10776  10784     1
  10777  10785     1
  10777  10783     1
  10781  10782     1
  10782  10793     1
  10782  10783     1
  10783  10784     1
  10784  10785     1
  10784  10793     1
  10791  10793     1
  10794  10799     1
  10794  10806     1
  10794  10804     1
  10795  10814     1
  10795  10800     1
  10795  10805     1
  10798  10808     1
  10798  10816     1
  10798  10804     1
  10799  10807     1
  10800  10806     1
  10800  10808     1
  10804  10805     1
  10805  10806     1
  10805  10816     1
  10806  10807     1
  10807  10808     1
  10807  10816     1
  10814  10816     1
  10817  10822     1
  10817  10829     1
  10817  10827     1
  10818  10823     1
  10818  10828     1
  10818  10837     1
  10821  10827     1
  10821  10839     1
  10821  10831     1
  10822  10830     1
  10823  10831     1
  10823  10829     1
  10827  10828     1
  10828  10839     1
  10828  10829     1
  10829  10830     1
  10830  10831     1
  10830  10839     1
  10837  10839     1
  10840  10845     1
  10840  10852     1
  10840  10850     1
  10841  10860     1
  10841  10846     1
  10841  10851     1
  10844  10854     1
  10844  10862     1
  10844  10850     1
  10845  10853     1
  10846  10852     1
  10846  10854     1
  10850  10851     1
  10851  10852     1
  10851  10862     1
  10852  10853     1
  10853  10854     1
  10853  10862     1
  10860  10862     1
  10863  10868     1
  10863  10875     1
  10863  10873     1
  10864  10869     1
  10864  10874     1
  10864  10883     1
  10867  10873     1
  10867  10885     1
  10867  10877     1
  10868  10876     1
  10869  10877     1
  10869  10875     1
  10873  10874     1
  10874  10885     1
  10874  10875     1
  10875  10876     1
  10876  10877     1
  10876  10885     1
  10883  10885     1
  10886  10891     1
  10886  10898     1
  10886  10896     1
  10887  10906     1
  10887  10892     1
  10887  10897     1
  10890  10900     1
  10890  10908     1
  10890  10896     1
  10891  10899     1
  10892  10898     1
  10892  10900     1
  10896  10897     1
  10897  10898     1
  10897  10908     1
  10898  10899     1
  10899  10900     1
  10899  10908     1
  10906  10908     1
  10909  10914     1
  10909  10921     1
  10909  10919     1
  10910  10915     1
  10910  10920     1
  10910  10929     1
  10913  10919     1
  10913  10931     1
  10913  10923     1
  10914  10922     1
  10915  10923     1
  10915  10921     1
  10919  10920     1
  10920  10931     1
  10920  10921     1
  10921  10922     1
  10922  10923     1
  10922  10931     1
  10929  10931     1
  10932  10937     1
  10932  10944     1
  10932  10942     1
  10933  10952     1
  10933  10938     1
  10933  10943     1
  10936  10946     1
  10936  10954     1
  10936  10942     1
  10937  10945     1
  10938  10944     1
  10938  10946     1
  10942  10943     1
  10943  10944     1
  10943  10954     1
  10944  10945     1
  10945  10946     1
  10945  10954     1
  10952  10954     1
  10955  10960     1
  10955  10967     1
  10955  10965     1
  10956  10961     1
  10956  10966     1
  10956  10975     1
  10959  10965     1
  10959  10977     1
  10959  10969     1
  10960  10968     1
  10961  10969     1
  10961  10967     1
  10965  10966     1
  10966  10977     1
  10966  10967     1
  10967  10968     1
  10968  10969     1
  10968  10977     1
  10975  10977     1
  10978  10983     1
  10978  10990     1
  10978  10988     1
  10979  10998     1
  10979  10984     1
  10979  10989     1
  10982  10992     1
  10982  11000     1
  10982  10988     1
  10983  10991     1
  10984  10990     1
  10984  10992     1
  10988  10989     1
  10989  10990     1
  10989  11000     1
  10990  10991     1
  10991  10992     1
  10991  11000     1
  10998  11000     1
  11001  11006     1
  11001  11013     1
  11001  11011     1
  11002  11007     1
  11002  11012     1
  11002  11021     1
  11005  11011     1
  11005  11023     1
  11005  11015     1
  11006  11014     1
  11007  11015     1
  11007  11013     1
  11011  11012     1
  11012  11023     1
  11012  11013     1
  11013  11014     1
  11014  11015     1
  11014  11023     1
  11021  11023     1
  11024  11029     1
  11024  11036     1
  11024  11034     1
  11025  11044     1
  11025  11030     1
  11025  11035     1
  11028  11038     1
  11028  11046     1
  11028  11034     1
  11029  11037     1
  11030  11036     1
  11030  11038     1
  11034  11035     1
  11035  11036     1
  11035  11046     1
  11036  11037     1
  11037  11038     1
  11037  11046     1
  11044  11046     1
  11047  11052     1
  11047  11059     1
  11047  11057     1
  11048  11053     1
  11048  11058     1
  11048  11067     1
  11051  11057     1
  11051  11069     1
  11051  11061     1
  11052  11060     1
  11053  11061     1
  11053  11059     1
  11057  11058     1
  11058  11069     1
  11058  11059     1
  11059  11060     1
  11060  11061     1
  11060  11069     1
  11067  11069     1
  11070  11075     1
  11070  11082     1
  11070  11080     1
  11071  11090     1
  11071  11076     1
  11071  11081     1
  11074  11084     1
  11074  11092     1
  11074  11080     1
  11075  11083     1
  11076  11082     1
  11076  11084     1
  11080  11081     1
  11081  11082     1
  11081  11092     1
  11082  11083     1
  11083  11084     1
  11083  11092     1
  11090  11092     1
  11093  11098     1
  11093  11105     1
  11093  11103     1
  11094  11099     1
  11094  11104     1
  11094  11113     1
  11097  11103     1
  11097  11115     1
  11097  11107     1
  11098  11106     1
  11099  11107     1
  11099  11105     1
  11103  11104     1
  11104  11115     1
  11104  11105     1
  11105  11106     1
  11106  11107     1
  11106  11115     1
  11113  11115     1
  11116  11121     1
  11116  11128     1
  11116  11126     1
  11117  11136     1
  11117  11122     1
  11117  11127     1
  11120  11130     1
  11120  11138     1
  11120  11126     1
  11121  11129     1
  11122  11128     1
  11122  11130     1
  11126  11127     1
  11127  11128     1
  11127  11138     1
  11128  11129     1
  11129  11130     1
  11129  11138     1
  11136  11138     1
  11139  11144     1
  11139  11151     1
  11139  11149     1
  11140  11145     1
  11140  11150     1
  11140  11159     1
  11143  11149     1
  11143  11161     1
  11143  11153     1
  11144  11152     1
  11145  11153     1
  11145  11151     1
  11149  11150     1
  11150  11161     1
  11150  11151     1
  11151  11152     1
  11152  11153     1
  11152  11161     1
  11159  11161     1
  11162  11167     1
  11162  11174     1
  11162  11172     1
  11163  11182     1
  11163  11168     1
  11163  11173     1
  11166  11176     1
  11166  11184     1
  11166  11172     1
  11167  11175     1
  11168  11174     1
  11168  11176     1
  11172  11173     1
  11173  11174     1
  11173  11184     1
  11174  11175     1
  11175  11176     1
  11175  11184     1
  11182  11184     1
  11185  11190     1
  11185  11197     1
  11185  11195     1
  11186  11191     1
  11186  11196     1
  11186  11205     1
  11189  11195     1
  11189  11207     1
  11189  11199     1
  11190  11198     1
  11191  11199     1
  11191  11197     1
  11195  11196     1
  11196  11207     1
  11196  11197     1
  11197  11198     1
  11198  11199     1
  11198  11207     1
  11205  11207     1
  11208  11213     1
  11208  11220     1
  11208  11218     1
  11209  11228     1
  11209  11214     1
  11209  11219     1
  11212  11222     1
  11212  11230     1
  11212  11218     1
  11213  11221     1
  11214  11220     1
  11214  11222     1
  11218  11219     1
  11219  11220     1
  11219  11230     1
  11220  11221     1
  11221  11222     1
  11221  11230     1
  11228  11230     1
  11231  11236     1
  11231  11243     1
  11231  11241     1
  11232  11237     1
  11232  11242     1
  11232  11251     1
  11235  11241     1
  11235  11253     1
  11235  11245     1
  11236  11244     1
  11237  11245     1
  11237  11243     1
  11241  11242     1
  11242  11253     1
  11242  11243     1
  11243  11244     1
  11244  11245     1
  11244  11253     1
  11251  11253     1
  11254  11259     1
  11254  11266     1
  11254  11264     1
  11255  11274     1
  11255  11260     1
  11255  11265     1
  11258  11268     1
  11258  11276     1
  11258  11264     1
  11259  11267     1
  11260  11266     1
  11260  11268     1
  11264  11265     1
  11265  11266     1
  11265  11276     1
  11266  11267     1
  11267  11268     1
  11267  11276     1
  11274  11276     1
  11277  11282     1
  11277  11289     1
  11277  11287     1
  11278  11283     1
  11278  11288     1
  11278  11297     1
  11281  11287     1
  11281  11299     1
  11281  11291     1
  11282  11290     1
  11283  11291     1
  11283  11289     1
  11287  11288     1
  11288  11299     1
  11288  11289     1
  11289  11290     1
  11290  11291     1
  11290  11299     1
  11297  11299     1
  11300  11305     1
  11300  11312     1
  11300  11310     1
  11301  11320     1
  11301  11306     1
  11301  11311     1
  11304  11314     1
  11304  11322     1
  11304  11310     1
  11305  11313     1
  11306  11312     1
  11306  11314     1
  11310  11311     1
  11311  11312     1
  11311  11322     1
  11312  11313     1
  11313  11314     1
  11313  11322     1
  11320  11322     1
  11323  11328     1
  11323  11335     1
  11323  11333     1
  11324  11329     1
  11324  11334     1
  11324  11343     1
  11327  11333     1
  11327  11345     1
  11327  11337     1
  11328  11336     1
  11329  11337     1
  11329  11335     1
  11333  11334     1
  11334  11345     1
  11334  11335     1
  11335  11336     1
  11336  11337     1
  11336  11345     1
  11343  11345     1
  11346  11351     1
  11346  11358     1
  11346  11356     1
  11347  11366     1
  11347  11352     1
  11347  11357     1
  11350  11360     1
  11350  11368     1
  11350  11356     1
  11351  11359     1
  11352  11358     1
  11352  11360     1
  11356  11357     1
  11357  11358     1
  11357  11368     1
  11358  11359     1
  11359  11360     1
  11359  11368     1
  11366  11368     1
  11369  11374     1
  11369  11381     1
  11369  11379     1
  11370  11375     1
  11370  11380     1
  11370  11389     1
  11373  11379     1
  11373  11391     1
  11373  11383     1
  11374  11382     1
  11375  11383     1
  11375  11381     1
  11379  11380     1
  11380  11391     1
  11380  11381     1
  11381  11382     1
  11382  11383     1
  11382  11391     1
  11389  11391     1
  11392  11397     1
  11392  11404     1
  11392  11402     1
  11393  11412     1
  11393  11398     1
  11393  11403     1
  11396  11406     1
  11396  11414     1
  11396  11402     1
  11397  11405     1
  11398  11404     1
  11398  11406     1
  11402  11403     1
  11403  11404     1
  11403  11414     1
  11404  11405     1
  11405  11406     1
  11405  11414     1
  11412  11414     1
  11415  11420     1
  11415  11427     1
  11415  11425     1
  11416  11421     1
  11416  11426     1
  11416  11435     1
  11419  11425     1
  11419  11437     1
  11419  11429     1
  11420  11428     1
  11421  11429     1
  11421  11427     1
  11425  11426     1
  11426  11437     1
  11426  11427     1
  11427  11428     1
  11428  11429     1
  11428  11437     1
  11435  11437     1
  11438  11443     1
  11438  11450     1
  11438  11448     1
  11439  11458     1
  11439  11444     1
  11439  11449     1
  11442  11452     1
  11442  11460     1
  11442  11448     1
  11443  11451     1
  11444  11450     1
  11444  11452     1
  11448  11449     1
  11449  11450     1
  11449  11460     1
  11450  11451     1
  11451  11452     1
  11451  11460     1
  11458  11460     1
  11461  11466     1
  11461  11473     1
  11461  11471     1
  11462  11467     1
  11462  11472     1
  11462  11481     1
  11465  11471     1
  11465  11483     1
  11465  11475     1
  11466  11474     1
  11467  11475     1
  11467  11473     1
  11471  11472     1
  11472  11483     1
  11472  11473     1
  11473  11474     1
  11474  11475     1
  11474  11483     1
  11481  11483     1
  11484  11489     1
  11484  11496     1
  11484  11494     1
  11485  11504     1
  11485  11490     1
  11485  11495     1
  11488  11498     1
  11488  11506     1
  11488  11494     1
  11489  11497     1
  11490  11496     1
  11490  11498     1
  11494  11495     1
  11495  11496     1
  11495  11506     1
  11496  11497     1
  11497  11498     1
  11497  11506     1
  11504  11506     1
  11507  11512     1
  11507  11519     1
  11507  11517     1
  11508  11513     1
  11508  11518     1
  11508  11527     1
  11511  11517     1
  11511  11529     1
  11511  11521     1
  11512  11520     1
  11513  11521     1
  11513  11519     1
  11517  11518     1
  11518  11529     1
  11518  11519     1
  11519  11520     1
  11520  11521     1
  11520  11529     1
  11527  11529     1
  11530  11535     1
  11530  11542     1
  11530  11540     1
  11531  11550     1
  11531  11536     1
  11531  11541     1
  11534  11544     1
  11534  11552     1
  11534  11540     1
  11535  11543     1
  11536  11542     1
  11536  11544     1
  11540  11541     1
  11541  11542     1
  11541  11552     1
  11542  11543     1
  11543  11544     1
  11543  11552     1
  11550  11552     1
  11553  11558     1
  11553  11565     1
  11553  11563     1
  11554  11559     1
  11554  11564     1
  11554  11573     1
  11557  11563     1
  11557  11575     1
  11557  11567     1
  11558  11566     1
  11559  11567     1
  11559  11565     1
  11563  11564     1
  11564  11575     1
  11564  11565     1
  11565  11566     1
  11566  11567     1
  11566  11575     1
  11573  11575     1
  11576  11581     1
  11576  11588     1
  11576  11586     1
  11577  11596     1
  11577  11582     1
  11577  11587     1
  11580  11590     1
  11580  11598     1
  11580  11586     1
  11581  11589     1
  11582  11588     1
  11582  11590     1
  11586  11587     1
  11587  11588     1
  11587  11598     1
  11588  11589     1
  11589  11590     1
  11589  11598     1
  11596  11598     1
  11599  11604     1
  11599  11611     1
  11599  11609     1
  11600  11605     1
  11600  11610     1
  11600  11619     1
  11603  11609     1
  11603  11621     1
  11603  11613     1
  11604  11612     1
  11605  11613     1
  11605  11611     1
  11609  11610     1
  11610  11621     1
  11610  11611     1
  11611  11612     1
  11612  11613     1
  11612  11621     1
  11619  11621     1
  11622  11627     1
  11622  11634     1
  11622  11632     1
  11623  11642     1
  11623  11628     1
  11623  11633     1
  11626  11636     1
  11626  11644     1
  11626  11632     1
  11627  11635     1
  11628  11634     1
  11628  11636     1
  11632  11633     1
  11633  11634     1
  11633  11644     1
  11634  11635     1
  11635  11636     1
  11635  11644     1
  11642  11644     1
  11645  11650     1
  11645  11657     1
  11645  11655     1
  11646  11651     1
  11646  11656     1
  11646  11665     1
  11649  11655     1
  11649  11667     1
  11649  11659     1
  11650  11658     1
  11651  11659     1
  11651  11657     1
  11655  11656     1
  11656  11667     1
  11656  11657     1
  11657  11658     1
  11658  11659     1
  11658  11667     1
  11665  11667     1
  11668  11673     1
  11668  11680     1
  11668  11678     1
  11669  11688     1
  11669  11674     1
  11669  11679     1
  11672  11682     1
  11672  11690     1
  11672  11678     1
  11673  11681     1
  11674  11680     1
  11674  11682     1
  11678  11679     1
  11679  11680     1
  11679  11690     1
  11680  11681     1
  11681  11682     1
  11681  11690     1
  11688  11690     1
  11691  11696     1
  11691  11703     1
  11691  11701     1
  11692  11697     1
  11692  11702     1
  11692  11711     1
  11695  11701     1
  11695  11713     1
  11695  11705     1
  11696  11704     1
  11697  11705     1
  11697  11703     1
  11701  11702     1
  11702  11713     1
  11702  11703     1
  11703  11704     1
  11704  11705     1
  11704  11713     1
  11711  11713     1
  11714  11719     1
  11714  11726     1
  11714  11724     1
  11715  11734     1
  11715  11720     1
  11715  11725     1
  11718  11728     1
  11718  11736     1
  11718  11724     1
  11719  11727     1
  11720  11726     1
  11720  11728     1
  11724  11725     1
  11725  11726     1
  11725  11736     1
  11726  11727     1
  11727  11728     1
  11727  11736     1
  11734  11736     1
  11737  11742     1
  11737  11749     1
  11737  11747     1
  11738  11743     1
  11738  11748     1
  11738  11757     1
  11741  11747     1
  11741  11759     1
  11741  11751     1
  11742  11750     1
  11743  11751     1
  11743  11749     1
  11747  11748     1
  11748  11759     1
  11748  11749     1
  11749  11750     1
  11750  11751     1
  11750  11759     1
  11757  11759     1
  11760  11765     1
  11760  11772     1
  11760  11770     1
  11761  11780     1
  11761  11766     1
  11761  11771     1
  11764  11774     1
  11764  11782     1
  11764  11770     1
  11765  11773     1
  11766  11772     1
  11766  11774     1
  11770  11771     1
  11771  11772     1
  11771  11782     1
  11772  11773     1
  11773  11774     1
  11773  11782     1
  11780  11782     1
  11783  11788     1
  11783  11795     1
  11783  11793     1
  11784  11789     1
  11784  11794     1
  11784  11803     1
  11787  11793     1
  11787  11805     1
  11787  11797     1
  11788  11796     1
  11789  11797     1
  11789  11795     1
  11793  11794     1
  11794  11805     1
  11794  11795     1
  11795  11796     1
  11796  11797     1
  11796  11805     1
  11803  11805     1
  11806  11811     1
  11806  11818     1
  11806  11816     1
  11807  11826     1
  11807  11812     1
  11807  11817     1
  11810  11820     1
  11810  11828     1
  11810  11816     1
  11811  11819     1
  11812  11818     1
  11812  11820     1
  11816  11817     1
  11817  11818     1
  11817  11828     1
  11818  11819     1
  11819  11820     1
  11819  11828     1
  11826  11828     1
  11829  11834     1
  11829  11841     1
  11829  11839     1
  11830  11835     1
  11830  11840     1
  11830  11849     1
  11833  11839     1
  11833  11851     1
  11833  11843     1
  11834  11842     1
  11835  11843     1
  11835  11841     1
  11839  11840     1
  11840  11851     1
  11840  11841     1
  11841  11842     1
  11842  11843     1
  11842  11851     1
  11849  11851     1
  11852  11857     1
  11852  11864     1
  11852  11862     1
  11853  11872     1
  11853  11858     1
  11853  11863     1
  11856  11866     1
  11856  11874     1
  11856  11862     1
  11857  11865     1
  11858  11864     1
  11858  11866     1
  11862  11863     1
  11863  11864     1
  11863  11874     1
  11864  11865     1
  11865  11866     1
  11865  11874     1
  11872  11874     1
  11875  11880     1
  11875  11887     1
  11875  11885     1
  11876  11881     1
  11876  11886     1
  11876  11895     1
  11879  11885     1
  11879  11897     1
  11879  11889     1
  11880  11888     1
  11881  11889     1
  11881  11887     1
  11885  11886     1
  11886  11897     1
  11886  11887     1
  11887  11888     1
  11888  11889     1
  11888  11897     1
  11895  11897     1
  11898  11903     1
  11898  11910     1
  11898  11908     1
  11899  11918     1
  11899  11904     1
  11899  11909     1
  11902  11912     1
  11902  11920     1
  11902  11908     1
  11903  11911     1
  11904  11910     1
  11904  11912     1
  11908  11909     1
  11909  11910     1
  11909  11920     1
  11910  11911     1
  11911  11912     1
  11911  11920     1
  11918  11920     1
  11921  11926     1
  11921  11933     1
  11921  11931     1
  11922  11927     1
  11922  11932     1
  11922  11941     1
  11925  11931     1
  11925  11943     1
  11925  11935     1
  11926  11934     1
  11927  11935     1
  11927  11933     1
  11931  11932     1
  11932  11943     1
  11932  11933     1
  11933  11934     1
  11934  11935     1
  11934  11943     1
  11941  11943     1
  11944  11949     1
  11944  11956     1
  11944  11954     1
  11945  11964     1
  11945  11950     1
  11945  11955     1
  11948  11958     1
  11948  11966     1
  11948  11954     1
  11949  11957     1
  11950  11956     1
  11950  11958     1
  11954  11955     1
  11955  11956     1
  11955  11966     1
  11956  11957     1
  11957  11958     1
  11957  11966     1
  11964  11966     1
  11967  11972     1
  11967  11979     1
  11967  11977     1
  11968  11973     1
  11968  11978     1
  11968  11987     1
  11971  11977     1
  11971  11989     1
  11971  11981     1
  11972  11980     1
  11973  11981     1
  11973  11979     1
  11977  11978     1
  11978  11989     1
  11978  11979     1
  11979  11980     1
  11980  11981     1
  11980  11989     1
  11987  11989     1
  11990  11995     1
  11990  12002     1
  11990  12000     1
  11991  12010     1
  11991  11996     1
  11991  12001     1
  11994  12004     1
  11994  12012     1
  11994  12000     1
  11995  12003     1
  11996  12002     1
  11996  12004     1
  12000  12001     1
  12001  12002     1
  12001  12012     1
  12002  12003     1
  12003  12004     1
  12003  12012     1
  12010  12012     1
  12013  12018     1
  12013  12025     1
  12013  12023     1
  12014  12019     1
  12014  12024     1
  12014  12033     1
  12017  12023     1
  12017  12035     1
  12017  12027     1
  12018  12026     1
  12019  12027     1
  12019  12025     1
  12023  12024     1
  12024  12035     1
  12024  12025     1
  12025  12026     1
  12026  12027     1
  12026  12035     1
  12033  12035     1
  12036  12041     1
  12036  12048     1
  12036  12046     1
  12037  12056     1
  12037  12042     1
  12037  12047     1
  12040  12050     1
  12040  12058     1
  12040  12046     1
  12041  12049     1
  12042  12048     1
  12042  12050     1
  12046  12047     1
  12047  12048     1
  12047  12058     1
  12048  12049     1
  12049  12050     1
  12049  12058     1
  12056  12058     1
  12059  12064     1
  12059  12071     1
  12059  12069     1
  12060  12065     1
  12060  12070     1
  12060  12079     1
  12063  12069     1
  12063  12081     1
  12063  12073     1
  12064  12072     1
  12065  12073     1
  12065  12071     1
  12069  12070     1
  12070  12081     1
  12070  12071     1
  12071  12072     1
  12072  12073     1
  12072  12081     1
  12079  12081     1
  12082  12087     1
  12082  12094     1
  12082  12092     1
  12083  12102     1
  12083  12088     1
  12083  12093     1
  12086  12096     1
  12086  12104     1
  12086  12092     1
  12087  12095     1
  12088  12094     1
  12088  12096     1
  12092  12093     1
  12093  12094     1
  12093  12104     1
  12094  12095     1
  12095  12096     1
  12095  12104     1
  12102  12104     1
  12105  12110     1
  12105  12117     1
  12105  12115     1
  12106  12111     1
  12106  12116     1
  12106  12125     1
  12109  12115     1
  12109  12127     1
  12109  12119     1
  12110  12118     1
  12111  12119     1
  12111  12117     1
  12115  12116     1
  12116  12127     1
  12116  12117     1
  12117  12118     1
  12118  12119     1
  12118  12127     1
  12125  12127     1
  12128  12133     1
  12128  12140     1
  12128  12138     1
  12129  12148     1
  12129  12134     1
  12129  12139     1
  12132  12142     1
  12132  12150     1
  12132  12138     1
  12133  12141     1
  12134  12140     1
  12134  12142     1
  12138  12139     1
  12139  12140     1
  12139  12150     1
  12140  12141     1
  12141  12142     1
  12141  12150     1
  12148  12150     1
  12151  12156     1
  12151  12163     1
  12151  12161     1
  12152  12157     1
  12152  12162     1
  12152  12171     1
  12155  12161     1
  12155  12173     1
  12155  12165     1
  12156  12164     1
  12157  12165     1
  12157  12163     1
  12161  12162     1
  12162  12173     1
  12162  12163     1
  12163  12164     1
  12164  12165     1
  12164  12173     1
  12171  12173     1
  12174  12179     1
  12174  12186     1
  12174  12184     1
  12175  12194     1
  12175  12180     1
  12175  12185     1
  12178  12188     1
  12178  12196     1
  12178  12184     1
  12179  12187     1
  12180  12186     1
  12180  12188     1
  12184  12185     1
  12185  12186     1
  12185  12196     1
  12186  12187     1
  12187  12188     1
  12187  12196     1
  12194  12196     1
  12197  12202     1
  12197  12209     1
  12197  12207     1
  12198  12203     1
  12198  12208     1
  12198  12217     1
  12201  12207     1
  12201  12219     1
  12201  12211     1
  12202  12210     1
  12203  12211     1
  12203  12209     1
  12207  12208     1
  12208  12219     1
  12208  12209     1
  12209  12210     1
  12210  12211     1
  12210  12219     1
  12217  12219     1
  12220  12225     1
  12220  12232     1
  12220  12230     1
  12221  12240     1
  12221  12226     1
  12221  12231     1
  12224  12234     1
  12224  12242     1
  12224  12230     1
  12225  12233     1
  12226  12232     1
  12226  12234     1
  12230  12231     1
  12231  12232     1
  12231  12242     1
  12232  12233     1
  12233  12234     1
  12233  12242     1
  12240  12242     1
  12243  12248     1
  12243  12255     1
  12243  12253     1
  12244  12249     1
  12244  12254     1
  12244  12263     1
  12247  12253     1
  12247  12265     1
  12247  12257     1
  12248  12256     1
  12249  12257     1
  12249  12255     1
  12253  12254     1
  12254  12265     1
  12254  12255     1
  12255  12256     1
  12256  12257     1
  12256  12265     1
  12263  12265     1
  12266  12271     1
  12266  12278     1
  12266  12276     1
  12267  12286     1
  12267  12272     1
  12267  12277     1
  12270  12280     1
  12270  12288     1
  12270  12276     1
  12271  12279     1
  12272  12278     1
  12272  12280     1
  12276  12277     1
  12277  12278     1
  12277  12288     1
  12278  12279     1
  12279  12280     1
  12279  12288     1
  12286  12288     1
  12289  12294     1
  12289  12301     1
  12289  12299     1
  12290  12295     1
  12290  12300     1
  12290  12309     1
  12293  12299     1
  12293  12311     1
  12293  12303     1
  12294  12302     1
  12295  12303     1
  12295  12301     1
  12299  12300     1
  12300  12311     1
  12300  12301     1
  12301  12302     1
  12302  12303     1
  12302  12311     1
  12309  12311     1
  12312  12317     1
  12312  12324     1
  12312  12322     1
  12313  12332     1
  12313  12318     1
  12313  12323     1
  12316  12326     1
  12316  12334     1
  12316  12322     1
  12317  12325     1
  12318  12324     1
  12318  12326     1
  12322  12323     1
  12323  12324     1
  12323  12334     1
  12324  12325     1
  12325  12326     1
  12325  12334     1
  12332  12334     1
  12335  12340     1
  12335  12347     1
  12335  12345     1
  12336  12341     1
  12336  12346     1
  12336  12355     1
  12339  12345     1
  12339  12357     1
  12339  12349     1
  12340  12348     1
  12341  12349     1
  12341  12347     1
  12345  12346     1
  12346  12357     1
  12346  12347     1
  12347  12348     1
  12348  12349     1
  12348  12357     1
  12355  12357     1
  12358  12363     1
  12358  12370     1
  12358  12368     1
  12359  12378     1
  12359  12364     1
  12359  12369     1
  12362  12372     1
  12362  12380     1
  12362  12368     1
  12363  12371     1
  12364  12370     1
  12364  12372     1
  12368  12369     1
  12369  12370     1
  12369  12380     1
  12370  12371     1
  12371  12372     1
  12371  12380     1
  12378  12380     1
  12381  12386     1
  12381  12393     1
  12381  12391     1
  12382  12387     1
  12382  12392     1
  12382  12401     1
  12385  12391     1
  12385  12403     1
  12385  12395     1
  12386  12394     1
  12387  12395     1
  12387  12393     1
  12391  12392     1
  12392  12403     1
  12392  12393     1
  12393  12394     1
  12394  12395     1
  12394  12403     1
  12401  12403     1
  12404  12409     1
  12404  12416     1
  12404  12414     1
  12405  12424     1
  12405  12410     1
  12405  12415     1
  12408  12418     1
  12408  12426     1
  12408  12414     1
  12409  12417     1
  12410  12416     1
  12410  12418     1
  12414  12415     1
  12415  12416     1
  12415  12426     1
  12416  12417     1
  12417  12418     1
  12417  12426     1
  12424  12426     1
  12427  12432     1
  12427  12439     1
  12427  12437     1
  12428  12433     1
  12428  12438     1
  12428  12447     1
  12431  12437     1
  12431  12449     1
  12431  12441     1
  12432  12440     1
  12433  12441     1
  12433  12439     1
  12437  12438     1
  12438  12449     1
  12438  12439     1
  12439  12440     1
  12440  12441     1
  12440  12449     1
  12447  12449     1
  12450  12455     1
  12450  12462     1
  12450  12460     1
  12451  12470     1
  12451  12456     1
  12451  12461     1
  12454  12464     1
  12454  12472     1
  12454  12460     1
  12455  12463     1
  12456  12462     1
  12456  12464     1
  12460  12461     1
  12461  12462     1
  12461  12472     1
  12462  12463     1
  12463  12464     1
  12463  12472     1
  12470  12472     1
  12473  12478     1
  12473  12485     1
  12473  12483     1
  12474  12479     1
  12474  12484     1
  12474  12493     1
  12477  12483     1
  12477  12495     1
  12477  12487     1
  12478  12486     1
  12479  12487     1
  12479  12485     1
  12483  12484     1
  12484  12495     1
  12484  12485     1
  12485  12486     1
  12486  12487     1
  12486  12495     1
  12493  12495     1
  12496  12501     1
  12496  12508     1
  12496  12506     1
  12497  12516     1
  12497  12502     1
  12497  12507     1
  12500  12510     1
  12500  12518     1
  12500  12506     1
  12501  12509     1
  12502  12508     1
  12502  12510     1
  12506  12507     1
  12507  12508     1
  12507  12518     1
  12508  12509     1
  12509  12510     1
  12509  12518     1
  12516  12518     1
  12519  12524     1
  12519  12531     1
  12519  12529     1
  12520  12525     1
  12520  12530     1
  12520  12539     1
  12523  12529     1
  12523  12541     1
  12523  12533     1
  12524  12532     1
  12525  12533     1
  12525  12531     1
  12529  12530     1
  12530  12541     1
  12530  12531     1
  12531  12532     1
  12532  12533     1
  12532  12541     1
  12539  12541     1
  12542  12547     1
  12542  12554     1
  12542  12552     1
  12543  12562     1
  12543  12548     1
  12543  12553     1
  12546  12556     1
  12546  12564     1
  12546  12552     1
  12547  12555     1
  12548  12554     1
  12548  12556     1
  12552  12553     1
  12553  12554     1
  12553  12564     1
  12554  12555     1
  12555  12556     1
  12555  12564     1
  12562  12564     1
  12565  12570     1
  12565  12577     1
  12565  12575     1
  12566  12571     1
  12566  12576     1
  12566  12585     1
  12569  12575     1
  12569  12587     1
  12569  12579     1
  12570  12578     1
  12571  12579     1
  12571  12577     1
  12575  12576     1
  12576  12587     1
  12576  12577     1
  12577  12578     1
  12578  12579     1
  12578  12587     1
  12585  12587     1
  12588  12593     1
  12588  12600     1
  12588  12598     1
  12589  12608     1
  12589  12594     1
  12589  12599     1
  12592  12602     1
  12592  12610     1
  12592  12598     1
  12593  12601     1
  12594  12600     1
  12594  12602     1
  12598  12599     1
  12599  12600     1
  12599  12610     1
  12600  12601     1
  12601  12602     1
  12601  12610     1
  12608  12610     1
  12611  12616     1
  12611  12623     1
  12611  12621     1
  12612  12617     1
  12612  12622     1
  12612  12631     1
  12615  12621     1
  12615  12633     1
  12615  12625     1
  12616  12624     1
  12617  12625     1
  12617  12623     1
  12621  12622     1
  12622  12633     1
  12622  12623     1
  12623  12624     1
  12624  12625     1
  12624  12633     1
  12631  12633     1
  12634  12639     1
  12634  12646     1
  12634  12644     1
  12635  12654     1
  12635  12640     1
  12635  12645     1
  12638  12648     1
  12638  12656     1
  12638  12644     1
  12639  12647     1
  12640  12646     1
  12640  12648     1
  12644  12645     1
  12645  12646     1
  12645  12656     1
  12646  12647     1
  12647  12648     1
  12647  12656     1
  12654  12656     1
  12657  12662     1
  12657  12669     1
  12657  12667     1
  12658  12663     1
  12658  12668     1
  12658  12677     1
  12661  12667     1
  12661  12679     1
  12661  12671     1
  12662  12670     1
  12663  12671     1
  12663  12669     1
  12667  12668     1
  12668  12679     1
  12668  12669     1
  12669  12670     1
  12670  12671     1
  12670  12679     1
  12677  12679     1
  12680  12685     1
  12680  12692     1
  12680  12690     1
  12681  12700     1
  12681  12686     1
  12681  12691     1
  12684  12694     1
  12684  12702     1
  12684  12690     1
  12685  12693     1
  12686  12692     1
  12686  12694     1
  12690  12691     1
  12691  12692     1
  12691  12702     1
  12692  12693     1
  12693  12694     1
  12693  12702     1
  12700  12702     1
  12703  12708     1
  12703  12715     1
  12703  12713     1
  12704  12709     1
  12704  12714     1
  12704  12723     1
  12707  12713     1
  12707  12725     1
  12707  12717     1
  12708  12716     1
  12709  12717     1
  12709  12715     1
  12713  12714     1
  12714  12725     1
  12714  12715     1
  12715  12716     1
  12716  12717     1
  12716  12725     1
  12723  12725     1
  12726  12731     1
  12726  12738     1
  12726  12736     1
  12727  12746     1
  12727  12732     1
  12727  12737     1
  12730  12740     1
  12730  12748     1
  12730  12736     1
  12731  12739     1
  12732  12738     1
  12732  12740     1
  12736  12737     1
  12737  12738     1
  12737  12748     1
  12738  12739     1
  12739  12740     1
  12739  12748     1
  12746  12748     1
  12749  12754     1
  12749  12761     1
  12749  12759     1
  12750  12755     1
  12750  12760     1
  12750  12769     1
  12753  12759     1
  12753  12771     1
  12753  12763     1
  12754  12762     1
  12755  12763     1
  12755  12761     1
  12759  12760     1
  12760  12771     1
  12760  12761     1
  12761  12762     1
  12762  12763     1
  12762  12771     1
  12769  12771     1
  12772  12777     1
  12772  12784     1
  12772  12782     1
  12773  12792     1
  12773  12778     1
  12773  12783     1
  12776  12786     1
  12776  12794     1
  12776  12782     1
  12777  12785     1
  12778  12784     1
  12778  12786     1
  12782  12783     1
  12783  12784     1
  12783  12794     1
  12784  12785     1
  12785  12786     1
  12785  12794     1
  12792  12794     1
  12795  12800     1
  12795  12807     1
  12795  12805     1
  12796  12801     1
  12796  12806     1
  12796  12815     1
  12799  12805     1
  12799  12817     1
  12799  12809     1
  12800  12808     1
  12801  12809     1
  12801  12807     1
  12805  12806     1
  12806  12817     1
  12806  12807     1
  12807  12808     1
  12808  12809     1
  12808  12817     1
  12815  12817     1
  12818  12823     1
  12818  12830     1
  12818  12828     1
  12819  12838     1
  12819  12824     1
  12819  12829     1
  12822  12832     1
  12822  12840     1
  12822  12828     1
  12823  12831     1
  12824  12830     1
  12824  12832     1
  12828  12829     1
  12829  12830     1
  12829  12840     1
  12830  12831     1
  12831  12832     1
  12831  12840     1
  12838  12840     1
  12841  12846     1
  12841  12853     1
  12841  12851     1
  12842  12847     1
  12842  12852     1
  12842  12861     1
  12845  12851     1
  12845  12863     1
  12845  12855     1
  12846  12854     1
  12847  12855     1
  12847  12853     1
  12851  12852     1
  12852  12863     1
  12852  12853     1
  12853  12854     1
  12854  12855     1
  12854  12863     1
  12861  12863     1
  12864  12869     1
  12864  12876     1
  12864  12874     1
  12865  12884     1
  12865  12870     1
  12865  12875     1
  12868  12878     1
  12868  12886     1
  12868  12874     1
  12869  12877     1
  12870  12876     1
  12870  12878     1
  12874  12875     1
  12875  12876     1
  12875  12886     1
  12876  12877     1
  12877  12878     1
  12877  12886     1
  12884  12886     1
  12887  12892     1
  12887  12899     1
  12887  12897     1
  12888  12893     1
  12888  12898     1
  12888  12907     1
  12891  12897     1
  12891  12909     1
  12891  12901     1
  12892  12900     1
  12893  12901     1
  12893  12899     1
  12897  12898     1
  12898  12909     1
  12898  12899     1
  12899  12900     1
  12900  12901     1
  12900  12909     1
  12907  12909     1
  12910  12915     1
  12910  12922     1
  12910  12920     1
  12911  12930     1
  12911  12916     1
  12911  12921     1
  12914  12924     1
  12914  12932     1
  12914  12920     1
  12915  12923     1
  12916  12922     1
  12916  12924     1
  12920  12921     1
  12921  12922     1
  12921  12932     1
  12922  12923     1
  12923  12924     1
  12923  12932     1
  12930  12932     1
  12933  12938     1
  12933  12945     1
  12933  12943     1
  12934  12939     1
  12934  12944     1
  12934  12953     1
  12937  12943     1
  12937  12955     1
  12937  12947     1
  12938  12946     1
  12939  12947     1
  12939  12945     1
  12943  12944     1
  12944  12955     1
  12944  12945     1
  12945  12946     1
  12946  12947     1
  12946  12955     1
  12953  12955     1
  12956  12961     1
  12956  12968     1
  12956  12966     1
  12957  12976     1
  12957  12962     1
  12957  12967     1
  12960  12970     1
  12960  12978     1
  12960  12966     1
  12961  12969     1
  12962  12968     1
  12962  12970     1
  12966  12967     1
  12967  12968     1
  12967  12978     1
  12968  12969     1
  12969  12970     1
  12969  12978     1
  12976  12978     1
  12979  12984     1
  12979  12991     1
  12979  12989     1
  12980  12985     1
  12980  12990     1
  12980  12999     1
  12983  12989     1
  12983  13001     1
  12983  12993     1
  12984  12992     1
  12985  12993     1
  12985  12991     1
  12989  12990     1
  12990  13001     1
  12990  12991     1
  12991  12992     1
  12992  12993     1
  12992  13001     1
  12999  13001     1
  13002  13007     1
  13002  13014     1
  13002  13012     1
  13003  13022     1
  13003  13008     1
  13003  13013     1
  13006  13016     1
  13006  13024     1
  13006  13012     1
  13007  13015     1
  13008  13014     1
  13008  13016     1
  13012  13013     1
  13013  13014     1
  13013  13024     1
  13014  13015     1
  13015  13016     1
  13015  13024     1
  13022  13024     1
  13025  13030     1
  13025  13037     1
  13025  13035     1
  13026  13031     1
  13026  13036     1
  13026  13045     1
  13029  13035     1
  13029  13047     1
  13029  13039     1
  13030  13038     1
  13031  13039     1
  13031  13037     1
  13035  13036     1
  13036  13047     1
  13036  13037     1
  13037  13038     1
  13038  13039     1
  13038  13047     1
  13045  13047     1
  13048  13053     1
  13048  13060     1
  13048  13058     1
  13049  13068     1
  13049  13054     1
  13049  13059     1
  13052  13062     1
  13052  13070     1
  13052  13058     1
  13053  13061     1
  13054  13060     1
  13054  13062     1
  13058  13059     1
  13059  13060     1
  13059  13070     1
  13060  13061     1
  13061  13062     1
  13061  13070     1
  13068  13070     1
  13071  13076     1
  13071  13083     1
  13071  13081     1
  13072  13077     1
  13072  13082     1
  13072  13091     1
  13075  13081     1
  13075  13093     1
  13075  13085     1
  13076  13084     1
  13077  13085     1
  13077  13083     1
  13081  13082     1
  13082  13093     1
  13082  13083     1
  13083  13084     1
  13084  13085     1
  13084  13093     1
  13091  13093     1
  13094  13099     1
  13094  13106     1
  13094  13104     1
  13095  13114     1
  13095  13100     1
  13095  13105     1
  13098  13108     1
  13098  13116     1
  13098  13104     1
  13099  13107     1
  13100  13106     1
  13100  13108     1
  13104  13105     1
  13105  13106     1
  13105  13116     1
  13106  13107     1
  13107  13108     1
  13107  13116     1
  13114  13116     1
  13117  13122     1
  13117  13129     1
  13117  13127     1
  13118  13123     1
  13118  13128     1
  13118  13137     1
  13121  13127     1
  13121  13139     1
  13121  13131     1
  13122  13130     1
  13123  13131     1
  13123  13129     1
  13127  13128     1
  13128  13139     1
  13128  13129     1
  13129  13130     1
  13130  13131     1
  13130  13139     1
  13137  13139     1
  13140  13145     1
  13140  13152     1
  13140  13150     1
  13141  13160     1
  13141  13146     1
  13141  13151     1
  13144  13154     1
  13144  13162     1
  13144  13150     1
  13145  13153     1
  13146  13152     1
  13146  13154     1
  13150  13151     1
  13151  13152     1
  13151  13162     1
  13152  13153     1
  13153  13154     1
  13153  13162     1
  13160  13162     1
  13163  13168     1
  13163  13175     1
  13163  13173     1
  13164  13169     1
  13164  13174     1
  13164  13183     1
  13167  13173     1
  13167  13185     1
  13167  13177     1
  13168  13176     1
  13169  13177     1
  13169  13175     1
  13173  13174     1
  13174  13185     1
  13174  13175     1
  13175  13176     1
  13176  13177     1
  13176  13185     1
  13183  13185     1
  13186  13191     1
  13186  13198     1
  13186  13196     1
  13187  13206     1
  13187  13192     1
  13187  13197     1
  13190  13200     1
  13190  13208     1
  13190  13196     1
  13191  13199     1
  13192  13198     1
  13192  13200     1
  13196  13197     1
  13197  13198     1
  13197  13208     1
  13198  13199     1
  13199  13200     1
  13199  13208     1
  13206  13208     1
  13209  13214     1
  13209  13221     1
  13209  13219     1
  13210  13215     1
  13210  13220     1
  13210  13229     1
  13213  13219     1
  13213  13231     1
  13213  13223     1
  13214  13222     1
  13215  13223     1
  13215  13221     1
  13219  13220     1
  13220  13231     1
  13220  13221     1
  13221  13222     1
  13222  13223     1
  13222  13231     1
  13229  13231     1
  13232  13237     1
  13232  13244     1
  13232  13242     1
  13233  13252     1
  13233  13238     1
  13233  13243     1
  13236  13246     1
  13236  13254     1
  13236  13242     1
  13237  13245     1
  13238  13244     1
  13238  13246     1
  13242  13243     1
  13243  13244     1
  13243  13254     1
  13244  13245     1
  13245  13246     1
  13245  13254     1
  13252  13254     1
  13255  13260     1
  13255  13267     1
  13255  13265     1
  13256  13261     1
  13256  13266     1
  13256  13275     1
  13259  13265     1
  13259  13277     1
  13259  13269     1
  13260  13268     1
  13261  13269     1
  13261  13267     1
  13265  13266     1
  13266  13277     1
  13266  13267     1
  13267  13268     1
  13268  13269     1
  13268  13277     1
  13275  13277     1
  13278  13283     1
  13278  13290     1
  13278  13288     1
  13279  13298     1
  13279  13284     1
  13279  13289     1
  13282  13292     1
  13282  13300     1
  13282  13288     1
  13283  13291     1
  13284  13290     1
  13284  13292     1
  13288  13289     1
  13289  13290     1
  13289  13300     1
  13290  13291     1
  13291  13292     1
  13291  13300     1
  13298  13300     1
  13301  13306     1
  13301  13313     1
  13301  13311     1
  13302  13307     1
  13302  13312     1
  13302  13321     1
  13305  13311     1
  13305  13323     1
  13305  13315     1
  13306  13314     1
  13307  13315     1
  13307  13313     1
  13311  13312     1
  13312  13323     1
  13312  13313     1
  13313  13314     1
  13314  13315     1
  13314  13323     1
  13321  13323     1
  13324  13329     1
  13324  13336     1
  13324  13334     1
  13325  13344     1
  13325  13330     1
  13325  13335     1
  13328  13338     1
  13328  13346     1
  13328  13334     1
  13329  13337     1
  13330  13336     1
  13330  13338     1
  13334  13335     1
  13335  13336     1
  13335  13346     1
  13336  13337     1
  13337  13338     1
  13337  13346     1
  13344  13346     1
  13347  13352     1
  13347  13359     1
  13347  13357     1
  13348  13353     1
  13348  13358     1
  13348  13367     1
  13351  13357     1
  13351  13369     1
  13351  13361     1
  13352  13360     1
  13353  13361     1
  13353  13359     1
  13357  13358     1
  13358  13369     1
  13358  13359     1
  13359  13360     1
  13360  13361     1
  13360  13369     1
  13367  13369     1
  13370  13375     1
  13370  13382     1
  13370  13380     1
  13371  13390     1
  13371  13376     1
  13371  13381     1
  13374  13384     1
  13374  13392     1
  13374  13380     1
  13375  13383     1
  13376  13382     1
  13376  13384     1
  13380  13381     1
  13381  13382     1
  13381  13392     1
  13382  13383     1
  13383  13384     1
  13383  13392     1
  13390  13392     1
  13393  13398     1
  13393  13405     1
  13393  13403     1
  13394  13399     1
  13394  13404     1
  13394  13413     1
  13397  13403     1
  13397  13415     1
  13397  13407     1
  13398  13406     1
  13399  13407     1
  13399  13405     1
  13403  13404     1
  13404  13415     1
  13404  13405     1
  13405  13406     1
  13406  13407     1
  13406  13415     1
  13413  13415     1
  13416  13421     1
  13416  13428     1
  13416  13426     1
  13417  13436     1
  13417  13422     1
  13417  13427     1
  13420  13430     1
  13420  13438     1
  13420  13426     1
  13421  13429     1
  13422  13428     1
  13422  13430     1
  13426  13427     1
  13427  13428     1
  13427  13438     1
  13428  13429     1
  13429  13430     1
  13429  13438     1
  13436  13438     1
  13439  13444     1
  13439  13451     1
  13439  13449     1
  13440  13445     1
  13440  13450     1
  13440  13459     1
  13443  13449     1
  13443  13461     1
  13443  13453     1
  13444  13452     1
  13445  13453     1
  13445  13451     1
  13449  13450     1
  13450  13461     1
  13450  13451     1
  13451  13452     1
  13452  13453     1
  13452  13461     1
  13459  13461     1
  13462  13467     1
  13462  13474     1
  13462  13472     1
  13463  13482     1
  13463  13468     1
  13463  13473     1
  13466  13476     1
  13466  13484     1
  13466  13472     1
  13467  13475     1
  13468  13474     1
  13468  13476     1
  13472  13473     1
  13473  13474     1
  13473  13484     1
  13474  13475     1
  13475  13476     1
  13475  13484     1
  13482  13484     1
  13485  13490     1
  13485  13497     1
  13485  13495     1
  13486  13491     1
  13486  13496     1
  13486  13505     1
  13489  13495     1
  13489  13507     1
  13489  13499     1
  13490  13498     1
  13491  13499     1
  13491  13497     1
  13495  13496     1
  13496  13507     1
  13496  13497     1
  13497  13498     1
  13498  13499     1
  13498  13507     1
  13505  13507     1
      1      9     1
      1     10     1
      1     12     1
      1     13     1
      2      6     1
      2      7     1
      2     15     1
      2     16     1
      5      3     1
      3     14     1
      3      9     1
      3     10     1
      5      4     1
      4     14     1
      4      9     1
      4     10     1
      5     18     1
      5     19     1
      6     17     1
      6     12     1
      6     13     1
      7     17     1
      7     12     1
      7     13     1
      8     58     1
      9     20     1
      9     15     1
      9     16     1
     10     20     1
     10     15     1
     10     16     1
     11     59     1
     12     21     1
     12     18     1
     12     19     1
     13     21     1
     13     18     1
     13     19     1
     14     29     1
     14     30     1
     14     32     1
     14     33     1
     15     28     1
     15     31     1
     15     58     1
     16     28     1
     16     31     1
     16     58     1
     17     23     1
     17     24     1
     17     26     1
     17     27     1
     18     22     1
     18     25     1
     18     59     1
     19     22     1
     19     25     1
     19     59     1
     20     41     1
     20     42     1
     20     44     1
     20     45     1
     21     35     1
     21     36     1
     21     38     1
     21     39     1
     22     26     1
     22     27     1
     22     56     1
     22     57     1
     23     25     1
     23     59     1
     23     55     1
     23     35     1
     23     36     1
     24     25     1
     24     59     1
     24     55     1
     24     35     1
     24     36     1
     25     53     1
     25     54     1
     26     59     1
     26     52     1
     26     38     1
     26     39     1
     27     59     1
     27     52     1
     27     38     1
     27     39     1
     28     32     1
     28     33     1
     28     50     1
     28     51     1
     29     31     1
     29     58     1
     29     49     1
     29     41     1
     29     42     1
     30     31     1
     30     58     1
     30     49     1
     30     41     1
     30     42     1
     31     47     1
     31     48     1
     32     58     1
     32     46     1
     32     44     1
     32     45     1
     33     58     1
     33     46     1
     33     44     1
     33     45     1
     34     59     1
     35    178     1
     35     56     1
     35     57     1
     36    178     1
     36     56     1
     36     57     1
     37     59     1
     38    148     1
     38     53     1
     38     54     1
     39    148     1
     39     53     1
     39     54     1
     40     58     1
     41    118     1
     41     50     1
     41     51     1
     42    118     1
     42     50     1
     42     51     1
     43     58     1
     44     88     1
     44     47     1
     44     48     1
     45     88     1
     45     47     1
     45     48     1
     46     80     1
     46     81     1
     47     79     1
     48     79     1
     49    110     1
     49    111     1
     50    109     1
     51    109     1
     52    140     1
     52    141     1
     53    139     1
     54    139     1
     55    170     1
     55    171     1
     56    169     1
     57    169     1
     60     74     1
     60     75     1
     60     77     1
     60     78     1
     60     71     1
     60     72     1
     61     65     1
     61     66     1
     61     68     1
     61     69     1
     61     86     1
     61     87     1
     62     64     1
     62     67     1
     62     89     1
     62     85     1
     62     74     1
     62     75     1
     63     64     1
     63     67     1
     63     89     1
     63     85     1
     63     74     1
     63     75     1
     64     68     1
     64     69     1
     64     83     1
     64     84     1
     65     67     1
     65     89     1
     65     82     1
     65     77     1
     65     78     1
     66     67     1
     66     89     1
     66     82     1
     66     77     1
     66     78     1
     67     80     1
     67     81     1
     68     89     1
     68     79     1
     68     71     1
     68     72     1
     69     89     1
     69     79     1
     69     71     1
     69     72     1
     70     89     1
     71     88     1
     71     80     1
     71     81     1
     72     88     1
     72     80     1
     72     81     1
     73     89     1
     74    238     1
     74     86     1
     74     87     1
     75    238     1
     75     86     1
     75     87     1
     76     89     1
     77    208     1
     77     83     1
     77     84     1
     78    208     1
     78     83     1
     78     84     1
     82    200     1
     82    201     1
     83    199     1
     84    199     1
     85    230     1
     85    231     1
     86    229     1
     87    229     1
     90    104     1
     90    105     1
     90    107     1
     90    108     1
     90    101     1
     90    102     1
     91     95     1
     91     96     1
     91     98     1
     91     99     1
     91    116     1
     91    117     1
     92     94     1
     92     97     1
     92    119     1
     92    115     1
     92    104     1
     92    105     1
     93     94     1
     93     97     1
     93    119     1
     93    115     1
     93    104     1
     93    105     1
     94     98     1
     94     99     1
     94    113     1
     94    114     1
     95     97     1
     95    119     1
     95    112     1
     95    107     1
     95    108     1
     96     97     1
     96    119     1
     96    112     1
     96    107     1
     96    108     1
     97    110     1
     97    111     1
     98    119     1
     98    109     1
     98    101     1
     98    102     1
     99    119     1
     99    109     1
     99    101     1
     99    102     1
    100    119     1
    101    118     1
    101    110     1
    101    111     1
    102    118     1
    102    110     1
    102    111     1
    103    119     1
    104    298     1
    104    116     1
    104    117     1
    105    298     1
    105    116     1
    105    117     1
    106    119     1
    107    268     1
    107    113     1
    107    114     1
    108    268     1
    108    113     1
    108    114     1
    112    260     1
    112    261     1
    113    259     1
    114    259     1
    115    290     1
    115    291     1
    116    289     1
    117    289     1
    120    134     1
    120    135     1
    120    137     1
    120    138     1
    120    131     1
    120    132     1
    121    125     1
    121    126     1
    121    128     1
    121    129     1
    121    146     1
    121    147     1
    122    124     1
    122    127     1
    122    149     1
    122    145     1
    122    134     1
    122    135     1
    123    124     1
    123    127     1
    123    149     1
    123    145     1
    123    134     1
    123    135     1
    124    128     1
    124    129     1
    124    143     1
    124    144     1
    125    127     1
    125    149     1
    125    142     1
    125    137     1
    125    138     1
    126    127     1
    126    149     1
    126    142     1
    126    137     1
    126    138     1
    127    140     1
    127    141     1
    128    149     1
    128    139     1
    128    131     1
    128    132     1
    129    149     1
    129    139     1
    129    131     1
    129    132     1
    130    149     1
    131    148     1
    131    140     1
    131    141     1
    132    148     1
    132    140     1
    132    141     1
    133    149     1
    134    358     1
    134    146     1
    134    147     1
    135    358     1
    135    146     1
    135    147     1
    136    149     1
    137    328     1
    137    143     1
    137    144     1
    138    328     1
    138    143     1
    138    144     1
    142    320     1
    142    321     1
    143    319     1
    144    319     1
    145    350     1
    145    351     1
    146    349     1
    147    349     1
    150    164     1
    150    165     1
    150    167     1
    150    168     1
    150    161     1
    150    162     1
    151    155     1
    151    156     1
    151    158     1
    151    159     1
    151    176     1
    151    177     1
    152    154     1
    152    157     1
    152    179     1
    152    175     1
    152    164     1
    152    165     1
    153    154     1
    153    157     1
    153    179     1
    153    175     1
    153    164     1
    153    165     1
    154    158     1
    154    159     1
    154    173     1
    154    174     1
    155    157     1
    155    179     1
    155    172     1
    155    167     1
    155    168     1
    156    157     1
    156    179     1
    156    172     1
    156    167     1
    156    168     1
    157    170     1
    157    171     1
    158    179     1
    158    169     1
    158    161     1
    158    162     1
    159    179     1
    159    169     1
    159    161     1
    159    162     1
    160    179     1
    161    178     1
    161    170     1
    161    171     1
    162    178     1
    162    170     1
    162    171     1
    163    179     1
    164    418     1
    164    176     1
    164    177     1
    165    418     1
    165    176     1
    165    177     1
    166    179     1
    167    388     1
    167    173     1
    167    174     1
    168    388     1
    168    173     1
    168    174     1
    172    380     1
    172    381     1
    173    379     1
    174    379     1
    175    410     1
    175    411     1
    176    409     1
    177    409     1
    180    194     1
    180    195     1
    180    197     1
    180    198     1
    180    191     1
    180    192     1
    181    185     1
    181    186     1
    181    188     1
    181    189     1
    181    206     1
    181    207     1
    182    184     1
    182    187     1
    182    209     1
    182    205     1
    182    194     1
    182    195     1
    183    184     1
    183    187     1
    183    209     1
    183    205     1
    183    194     1
    183    195     1
    184    188     1
    184    189     1
    184    203     1
    184    204     1
    185    187     1
    185    209     1
    185    202     1
    185    197     1
    185    198     1
    186    187     1
    186    209     1
    186    202     1
    186    197     1
    186    198     1
    187    200     1
    187    201     1
    188    209     1
    188    199     1
    188    191     1
    188    192     1
    189    209     1
    189    199     1
    189    191     1
    189    192     1
    190    209     1
    191    208     1
    191    200     1
    191    201     1
    192    208     1
    192    200     1
    192    201     1
    193    209     1
    194    478     1
    194    206     1
    194    207     1
    195    478     1
    195    206     1
    195    207     1
    196    209     1
    197    448     1
    197    203     1
    197    204     1
    198    448     1
    198    203     1
    198    204     1
    202    440     1
    202    441     1
    203    439     1
    204    439     1
    205    470     1
    205    471     1
    206    469     1
    207    469     1
    210    224     1
    210    225     1
    210    227     1
    210    228     1
    210    221     1
    210    222     1
    211    215     1
    211    216     1
    211    218     1
    211    219     1
    211    236     1
    211    237     1
    212    214     1
    212    217     1
    212    239     1
    212    235     1
    212    224     1
    212    225     1
    213    214     1
    213    217     1
    213    239     1
    213    235     1
    213    224     1
    213    225     1
    214    218     1
    214    219     1
    214    233     1
    214    234     1
    215    217     1
    215    239     1
    215    232     1
    215    227     1
    215    228     1
    216    217     1
    216    239     1
    216    232     1
    216    227     1
    216    228     1
    217    230     1
    217    231     1
    218    239     1
    218    229     1
    218    221     1
    218    222     1
    219    239     1
    219    229     1
    219    221     1
    219    222     1
    220    239     1
    221    238     1
    221    230     1
    221    231     1
    222    238     1
    222    230     1
    222    231     1
    223    239     1
    224    538     1
    224    236     1
    224    237     1
    225    538     1
    225    236     1
    225    237     1
    226    239     1
    227    508     1
    227    233     1
    227    234     1
    228    508     1
    228    233     1
    228    234     1
    232    500     1
    232    501     1
    233    499     1
    234    499     1
    235    530     1
    235    531     1
    236    529     1
    237    529     1
    240    254     1
    240    255     1
    240    257     1
    240    258     1
    240    251     1
    240    252     1
    241    245     1
    241    246     1
    241    248     1
    241    249     1
    241    266     1
    241    267     1
    242    244     1
    242    247     1
    242    269     1
    242    265     1
    242    254     1
    242    255     1
    243    244     1
    243    247     1
    243    269     1
    243    265     1
    243    254     1
    243    255     1
    244    248     1
    244    249     1
    244    263     1
    244    264     1
    245    247     1
    245    269     1
    245    262     1
    245    257     1
    245    258     1
    246    247     1
    246    269     1
    246    262     1
    246    257     1
    246    258     1
    247    260     1
    247    261     1
    248    269     1
    248    259     1
    248    251     1
    248    252     1
    249    269     1
    249    259     1
    249    251     1
    249    252     1
    250    269     1
    251    268     1
    251    260     1
    251    261     1
    252    268     1
    252    260     1
    252    261     1
    253    269     1
    254    598     1
    254    266     1
    254    267     1
    255    598     1
    255    266     1
    255    267     1
    256    269     1
    257    568     1
    257    263     1
    257    264     1
    258    568     1
    258    263     1
    258    264     1
    262    560     1
    262    561     1
    263    559     1
    264    559     1
    265    590     1
    265    591     1
    266    589     1
    267    589     1
    270    284     1
    270    285     1
    270    287     1
    270    288     1
    270    281     1
    270    282     1
    271    275     1
    271    276     1
    271    278     1
    271    279     1
    271    296     1
    271    297     1
    272    274     1
    272    277     1
    272    299     1
    272    295     1
    272    284     1
    272    285     1
    273    274     1
    273    277     1
    273    299     1
    273    295     1
    273    284     1
    273    285     1
    274    278     1
    274    279     1
    274    293     1
    274    294     1
    275    277     1
    275    299     1
    275    292     1
    275    287     1
    275    288     1
    276    277     1
    276    299     1
    276    292     1
    276    287     1
    276    288     1
    277    290     1
    277    291     1
    278    299     1
    278    289     1
    278    281     1
    278    282     1
    279    299     1
    279    289     1
    279    281     1
    279    282     1
    280    299     1
    281    298     1
    281    290     1
    281    291     1
    282    298     1
    282    290     1
    282    291     1
    283    299     1
    284    658     1
    284    296     1
    284    297     1
    285    658     1
    285    296     1
    285    297     1
    286    299     1
    287    628     1
    287    293     1
    287    294     1
    288    628     1
    288    293     1
    288    294     1
    292    620     1
    292    621     1
    293    619     1
    294    619     1
    295    650     1
    295    651     1
    296    649     1
    297    649     1
    300    314     1
    300    315     1
    300    317     1
    300    318     1
    300    311     1
    300    312     1
    301    305     1
    301    306     1
    301    308     1
    301    309     1
    301    326     1
    301    327     1
    302    304     1
    302    307     1
    302    329     1
    302    325     1
    302    314     1
    302    315     1
    303    304     1
    303    307     1
    303    329     1
    303    325     1
    303    314     1
    303    315     1
    304    308     1
    304    309     1
    304    323     1
    304    324     1
    305    307     1
    305    329     1
    305    322     1
    305    317     1
    305    318     1
    306    307     1
    306    329     1
    306    322     1
    306    317     1
    306    318     1
    307    320     1
    307    321     1
    308    329     1
    308    319     1
    308    311     1
    308    312     1
    309    329     1
    309    319     1
    309    311     1
    309    312     1
    310    329     1
    311    328     1
    311    320     1
    311    321     1
    312    328     1
    312    320     1
    312    321     1
    313    329     1
    314    718     1
    314    326     1
    314    327     1
    315    718     1
    315    326     1
    315    327     1
    316    329     1
    317    688     1
    317    323     1
    317    324     1
    318    688     1
    318    323     1
    318    324     1
    322    680     1
    322    681     1
    323    679     1
    324    679     1
    325    710     1
    325    711     1
    326    709     1
    327    709     1
    330    344     1
    330    345     1
    330    347     1
    330    348     1
    330    341     1
    330    342     1
    331    335     1
    331    336     1
    331    338     1
    331    339     1
    331    356     1
    331    357     1
    332    334     1
    332    337     1
    332    359     1
    332    355     1
    332    344     1
    332    345     1
    333    334     1
    333    337     1
    333    359     1
    333    355     1
    333    344     1
    333    345     1
    334    338     1
    334    339     1
    334    353     1
    334    354     1
    335    337     1
    335    359     1
    335    352     1
    335    347     1
    335    348     1
    336    337     1
    336    359     1
    336    352     1
    336    347     1
    336    348     1
    337    350     1
    337    351     1
    338    359     1
    338    349     1
    338    341     1
    338    342     1
    339    359     1
    339    349     1
    339    341     1
    339    342     1
    340    359     1
    341    358     1
    341    350     1
    341    351     1
    342    358     1
    342    350     1
    342    351     1
    343    359     1
    344    778     1
    344    356     1
    344    357     1
    345    778     1
    345    356     1
    345    357     1
    346    359     1
    347    748     1
    347    353     1
    347    354     1
    348    748     1
    348    353     1
    348    354     1
    352    740     1
    352    741     1
    353    739     1
    354    739     1
    355    770     1
    355    771     1
    356    769     1
    357    769     1
    360    374     1
    360    375     1
    360    377     1
    360    378     1
    360    371     1
    360    372     1
    361    365     1
    361    366     1
    361    368     1
    361    369     1
    361    386     1
    361    387     1
    362    364     1
    362    367     1
    362    389     1
    362    385     1
    362    374     1
    362    375     1
    363    364     1
    363    367     1
    363    389     1
    363    385     1
    363    374     1
    363    375     1
    364    368     1
    364    369     1
    364    383     1
    364    384     1
    365    367     1
    365    389     1
    365    382     1
    365    377     1
    365    378     1
    366    367     1
    366    389     1
    366    382     1
    366    377     1
    366    378     1
    367    380     1
    367    381     1
    368    389     1
    368    379     1
    368    371     1
    368    372     1
    369    389     1
    369    379     1
    369    371     1
    369    372     1
    370    389     1
    371    388     1
    371    380     1
    371    381     1
    372    388     1
    372    380     1
    372    381     1
    373    389     1
    374    838     1
    374    386     1
    374    387     1
    375    838     1
    375    386     1
    375    387     1
    376    389     1
    377    808     1
    377    383     1
    377    384     1
    378    808     1
    378    383     1
    378    384     1
    382    800     1
    382    801     1
    383    799     1
    384    799     1
    385    830     1
    385    831     1
    386    829     1
    387    829     1
    390    404     1
    390    405     1
    390    407     1
    390    408     1
    390    401     1
    390    402     1
    391    395     1
    391    396     1
    391    398     1
    391    399     1
    391    416     1
    391    417     1
    392    394     1
    392    397     1
    392    419     1
    392    415     1
    392    404     1
    392    405     1
    393    394     1
    393    397     1
    393    419     1
    393    415     1
    393    404     1
    393    405     1
    394    398     1
    394    399     1
    394    413     1
    394    414     1
    395    397     1
    395    419     1
    395    412     1
    395    407     1
    395    408     1
    396    397     1
    396    419     1
    396    412     1
    396    407     1
    396    408     1
    397    410     1
    397    411     1
    398    419     1
    398    409     1
    398    401     1
    398    402     1
    399    419     1
    399    409     1
    399    401     1
    399    402     1
    400    419     1
    401    418     1
    401    410     1
    401    411     1
    402    418     1
    402    410     1
    402    411     1
    403    419     1
    404    898     1
    404    416     1
    404    417     1
    405    898     1
    405    416     1
    405    417     1
    406    419     1
    407    868     1
    407    413     1
    407    414     1
    408    868     1
    408    413     1
    408    414     1
    412    860     1
    412    861     1
    413    859     1
    414    859     1
    415    890     1
    415    891     1
    416    889     1
    417    889     1
    420    434     1
    420    435     1
    420    437     1
    420    438     1
    420    431     1
    420    432     1
    421    425     1
    421    426     1
    421    428     1
    421    429     1
    421    446     1
    421    447     1
    422    424     1
    422    427     1
    422    449     1
    422    445     1
    422    434     1
    422    435     1
    423    424     1
    423    427     1
    423    449     1
    423    445     1
    423    434     1
    423    435     1
    424    428     1
    424    429     1
    424    443     1
    424    444     1
    425    427     1
    425    449     1
    425    442     1
    425    437     1
    425    438     1
    426    427     1
    426    449     1
    426    442     1
    426    437     1
    426    438     1
    427    440     1
    427    441     1
    428    449     1
    428    439     1
    428    431     1
    428    432     1
    429    449     1
    429    439     1
    429    431     1
    429    432     1
    430    449     1
    431    448     1
    431    440     1
    431    441     1
    432    448     1
    432    440     1
    432    441     1
    433    449     1
    434    958     1
    434    446     1
    434    447     1
    435    958     1
    435    446     1
    435    447     1
    436    449     1
    437    928     1
    437    443     1
    437    444     1
    438    928     1
    438    443     1
    438    444     1
    442    920     1
    442    921     1
    443    919     1
    444    919     1
    445    950     1
    445    951     1
    446    949     1
    447    949     1
    450    464     1
    450    465     1
    450    467     1
    450    468     1
    450    461     1
    450    462     1
    451    455     1
    451    456     1
    451    458     1
    451    459     1
    451    476     1
    451    477     1
    452    454     1
    452    457     1
    452    479     1
    452    475     1
    452    464     1
    452    465     1
    453    454     1
    453    457     1
    453    479     1
    453    475     1
    453    464     1
    453    465     1
    454    458     1
    454    459     1
    454    473     1
    454    474     1
    455    457     1
    455    479     1
    455    472     1
    455    467     1
    455    468     1
    456    457     1
    456    479     1
    456    472     1
    456    467     1
    456    468     1
    457    470     1
    457    471     1
    458    479     1
    458    469     1
    458    461     1
    458    462     1
    459    479     1
    459    469     1
    459    461     1
    459    462     1
    460    479     1
    461    478     1
    461    470     1
    461    471     1
    462    478     1
    462    470     1
    462    471     1
    463    479     1
    464   1018     1
    464    476     1
    464    477     1
    465   1018     1
    465    476     1
    465    477     1
    466    479     1
    467    988     1
    467    473     1
    467    474     1
    468    988     1
    468    473     1
    468    474     1
    472    980     1
    472    981     1
    473    979     1
    474    979     1
    475   1010     1
    475   1011     1
    476   1009     1
    477   1009     1
    480    494     1
    480    495     1
    480    497     1
    480    498     1
    480    491     1
    480    492     1
    481    485     1
    481    486     1
    481    488     1
    481    489     1
    481    506     1
    481    507     1
    482    484     1
    482    487     1
    482    509     1
    482    505     1
    482    494     1
    482    495     1
    483    484     1
    483    487     1
    483    509     1
    483    505     1
    483    494     1
    483    495     1
    484    488     1
    484    489     1
    484    503     1
    484    504     1
    485    487     1
    485    509     1
    485    502     1
    485    497     1
    485    498     1
    486    487     1
    486    509     1
    486    502     1
    486    497     1
    486    498     1
    487    500     1
    487    501     1
    488    509     1
    488    499     1
    488    491     1
    488    492     1
    489    509     1
    489    499     1
    489    491     1
    489    492     1
    490    509     1
    491    508     1
    491    500     1
    491    501     1
    492    508     1
    492    500     1
    492    501     1
    493    509     1
    494   1078     1
    494    506     1
    494    507     1
    495   1078     1
    495    506     1
    495    507     1
    496    509     1
    497   1048     1
    497    503     1
    497    504     1
    498   1048     1
    498    503     1
    498    504     1
    502   1040     1
    502   1041     1
    503   1039     1
    504   1039     1
    505   1070     1
    505   1071     1
    506   1069     1
    507   1069     1
    510    524     1
    510    525     1
    510    527     1
    510    528     1
    510    521     1
    510    522     1
    511    515     1
    511    516     1
    511    518     1
    511    519     1
    511    536     1
    511    537     1
    512    514     1
    512    517     1
    512    539     1
    512    535     1
    512    524     1
    512    525     1
    513    514     1
    513    517     1
    513    539     1
    513    535     1
    513    524     1
    513    525     1
    514    518     1
    514    519     1
    514    533     1
    514    534     1
    515    517     1
    515    539     1
    515    532     1
    515    527     1
    515    528     1
    516    517     1
    516    539     1
    516    532     1
    516    527     1
    516    528     1
    517    530     1
    517    531     1
    518    539     1
    518    529     1
    518    521     1
    518    522     1
    519    539     1
    519    529     1
    519    521     1
    519    522     1
    520    539     1
    521    538     1
    521    530     1
    521    531     1
    522    538     1
    522    530     1
    522    531     1
    523    539     1
    524   1138     1
    524    536     1
    524    537     1
    525   1138     1
    525    536     1
    525    537     1
    526    539     1
    527   1108     1
    527    533     1
    527    534     1
    528   1108     1
    528    533     1
    528    534     1
    532   1100     1
    532   1101     1
    533   1099     1
    534   1099     1
    535   1130     1
    535   1131     1
    536   1129     1
    537   1129     1
    540    554     1
    540    555     1
    540    557     1
    540    558     1
    540    551     1
    540    552     1
    541    545     1
    541    546     1
    541    548     1
    541    549     1
    541    566     1
    541    567     1
    542    544     1
    542    547     1
    542    569     1
    542    565     1
    542    554     1
    542    555     1
    543    544     1
    543    547     1
    543    569     1
    543    565     1
    543    554     1
    543    555     1
    544    548     1
    544    549     1
    544    563     1
    544    564     1
    545    547     1
    545    569     1
    545    562     1
    545    557     1
    545    558     1
    546    547     1
    546    569     1
    546    562     1
    546    557     1
    546    558     1
    547    560     1
    547    561     1
    548    569     1
    548    559     1
    548    551     1
    548    552     1
    549    569     1
    549    559     1
    549    551     1
    549    552     1
    550    569     1
    551    568     1
    551    560     1
    551    561     1
    552    568     1
    552    560     1
    552    561     1
    553    569     1
    554   1198     1
    554    566     1
    554    567     1
    555   1198     1
    555    566     1
    555    567     1
    556    569     1
    557   1168     1
    557    563     1
    557    564     1
    558   1168     1
    558    563     1
    558    564     1
    562   1160     1
    562   1161     1
    563   1159     1
    564   1159     1
    565   1190     1
    565   1191     1
    566   1189     1
    567   1189     1
    570    584     1
    570    585     1
    570    587     1
    570    588     1
    570    581     1
    570    582     1
    571    575     1
    571    576     1
    571    578     1
    571    579     1
    571    596     1
    571    597     1
    572    574     1
    572    577     1
    572    599     1
    572    595     1
    572    584     1
    572    585     1
    573    574     1
    573    577     1
    573    599     1
    573    595     1
    573    584     1
    573    585     1
    574    578     1
    574    579     1
    574    593     1
    574    594     1
    575    577     1
    575    599     1
    575    592     1
    575    587     1
    575    588     1
    576    577     1
    576    599     1
    576    592     1
    576    587     1
    576    588     1
    577    590     1
    577    591     1
    578    599     1
    578    589     1
    578    581     1
    578    582     1
    579    599     1
    579    589     1
    579    581     1
    579    582     1
    580    599     1
    581    598     1
    581    590     1
    581    591     1
    582    598     1
    582    590     1
    582    591     1
    583    599     1
    584   1258     1
    584    596     1
    584    597     1
    585   1258     1
    585    596     1
    585    597     1
    586    599     1
    587   1228     1
    587    593     1
    587    594     1
    588   1228     1
    588    593     1
    588    594     1
    592   1220     1
    592   1221     1
    593   1219     1
    594   1219     1
    595   1250     1
    595   1251     1
    596   1249     1
    597   1249     1
    600    614     1
    600    615     1
    600    617     1
    600    618     1
    600    611     1
    600    612     1
    601    605     1
    601    606     1
    601    608     1
    601    609     1
    601    626     1
    601    627     1
    602    604     1
    602    607     1
    602    629     1
    602    625     1
    602    614     1
    602    615     1
    603    604     1
    603    607     1
    603    629     1
    603    625     1
    603    614     1
    603    615     1
    604    608     1
    604    609     1
    604    623     1
    604    624     1
    605    607     1
    605    629     1
    605    622     1
    605    617     1
    605    618     1
    606    607     1
    606    629     1
    606    622     1
    606    617     1
    606    618     1
    607    620     1
    607    621     1
    608    629     1
    608    619     1
    608    611     1
    608    612     1
    609    629     1
    609    619     1
    609    611     1
    609    612     1
    610    629     1
    611    628     1
    611    620     1
    611    621     1
    612    628     1
    612    620     1
    612    621     1
    613    629     1
    614   1318     1
    614    626     1
    614    627     1
    615   1318     1
    615    626     1
    615    627     1
    616    629     1
    617   1288     1
    617    623     1
    617    624     1
    618   1288     1
    618    623     1
    618    624     1
    622   1280     1
    622   1281     1
    623   1279     1
    624   1279     1
    625   1310     1
    625   1311     1
    626   1309     1
    627   1309     1
    630    644     1
    630    645     1
    630    647     1
    630    648     1
    630    641     1
    630    642     1
    631    635     1
    631    636     1
    631    638     1
    631    639     1
    631    656     1
    631    657     1
    632    634     1
    632    637     1
    632    659     1
    632    655     1
    632    644     1
    632    645     1
    633    634     1
    633    637     1
    633    659     1
    633    655     1
    633    644     1
    633    645     1
    634    638     1
    634    639     1
    634    653     1
    634    654     1
    635    637     1
    635    659     1
    635    652     1
    635    647     1
    635    648     1
    636    637     1
    636    659     1
    636    652     1
    636    647     1
    636    648     1
    637    650     1
    637    651     1
    638    659     1
    638    649     1
    638    641     1
    638    642     1
    639    659     1
    639    649     1
    639    641     1
    639    642     1
    640    659     1
    641    658     1
    641    650     1
    641    651     1
    642    658     1
    642    650     1
    642    651     1
    643    659     1
    644   1378     1
    644    656     1
    644    657     1
    645   1378     1
    645    656     1
    645    657     1
    646    659     1
    647   1348     1
    647    653     1
    647    654     1
    648   1348     1
    648    653     1
    648    654     1
    652   1340     1
    652   1341     1
    653   1339     1
    654   1339     1
    655   1370     1
    655   1371     1
    656   1369     1
    657   1369     1
    660    674     1
    660    675     1
    660    677     1
    660    678     1
    660    671     1
    660    672     1
    661    665     1
    661    666     1
    661    668     1
    661    669     1
    661    686     1
    661    687     1
    662    664     1
    662    667     1
    662    689     1
    662    685     1
    662    674     1
    662    675     1
    663    664     1
    663    667     1
    663    689     1
    663    685     1
    663    674     1
    663    675     1
    664    668     1
    664    669     1
    664    683     1
    664    684     1
    665    667     1
    665    689     1
    665    682     1
    665    677     1
    665    678     1
    666    667     1
    666    689     1
    666    682     1
    666    677     1
    666    678     1
    667    680     1
    667    681     1
    668    689     1
    668    679     1
    668    671     1
    668    672     1
    669    689     1
    669    679     1
    669    671     1
    669    672     1
    670    689     1
    671    688     1
    671    680     1
    671    681     1
    672    688     1
    672    680     1
    672    681     1
    673    689     1
    674   1438     1
    674    686     1
    674    687     1
    675   1438     1
    675    686     1
    675    687     1
    676    689     1
    677   1408     1
    677    683     1
    677    684     1
    678   1408     1
    678    683     1
    678    684     1
    682   1400     1
    682   1401     1
    683   1399     1
    684   1399     1
    685   1430     1
    685   1431     1
    686   1429     1
    687   1429     1
    690    704     1
    690    705     1
    690    707     1
    690    708     1
    690    701     1
    690    702     1
    691    695     1
    691    696     1
    691    698     1
    691    699     1
    691    716     1
    691    717     1
    692    694     1
    692    697     1
    692    719     1
    692    715     1
    692    704     1
    692    705     1
    693    694     1
    693    697     1
    693    719     1
    693    715     1
    693    704     1
    693    705     1
    694    698     1
    694    699     1
    694    713     1
    694    714     1
    695    697     1
    695    719     1
    695    712     1
    695    707     1
    695    708     1
    696    697     1
    696    719     1
    696    712     1
    696    707     1
    696    708     1
    697    710     1
    697    711     1
    698    719     1
    698    709     1
    698    701     1
    698    702     1
    699    719     1
    699    709     1
    699    701     1
    699    702     1
    700    719     1
    701    718     1
    701    710     1
    701    711     1
    702    718     1
    702    710     1
    702    711     1
    703    719     1
    704   1498     1
    704    716     1
    704    717     1
    705   1498     1
    705    716     1
    705    717     1
    706    719     1
    707   1468     1
    707    713     1
    707    714     1
    708   1468     1
    708    713     1
    708    714     1
    712   1460     1
    712   1461     1
    713   1459     1
    714   1459     1
    715   1490     1
    715   1491     1
    716   1489     1
    717   1489     1
    720    734     1
    720    735     1
    720    737     1
    720    738     1
    720    731     1
    720    732     1
    721    725     1
    721    726     1
    721    728     1
    721    729     1
    721    746     1
    721    747     1
    722    724     1
    722    727     1
    722    749     1
    722    745     1
    722    734     1
    722    735     1
    723    724     1
    723    727     1
    723    749     1
    723    745     1
    723    734     1
    723    735     1
    724    728     1
    724    729     1
    724    743     1
    724    744     1
    725    727     1
    725    749     1
    725    742     1
    725    737     1
    725    738     1
    726    727     1
    726    749     1
    726    742     1
    726    737     1
    726    738     1
    727    740     1
    727    741     1
    728    749     1
    728    739     1
    728    731     1
    728    732     1
    729    749     1
    729    739     1
    729    731     1
    729    732     1
    730    749     1
    731    748     1
    731    740     1
    731    741     1
    732    748     1
    732    740     1
    732    741     1
    733    749     1
    734   1558     1
    734    746     1
    734    747     1
    735   1558     1
    735    746     1
    735    747     1
    736    749     1
    737   1528     1
    737    743     1
    737    744     1
    738   1528     1
    738    743     1
    738    744     1
    742   1520     1
    742   1521     1
    743   1519     1
    744   1519     1
    745   1550     1
    745   1551     1
    746   1549     1
    747   1549     1
    750    764     1
    750    765     1
    750    767     1
    750    768     1
    750    761     1
    750    762     1
    751    755     1
    751    756     1
    751    758     1
    751    759     1
    751    776     1
    751    777     1
    752    754     1
    752    757     1
    752    779     1
    752    775     1
    752    764     1
    752    765     1
    753    754     1
    753    757     1
    753    779     1
    753    775     1
    753    764     1
    753    765     1
    754    758     1
    754    759     1
    754    773     1
    754    774     1
    755    757     1
    755    779     1
    755    772     1
    755    767     1
    755    768     1
    756    757     1
    756    779     1
    756    772     1
    756    767     1
    756    768     1
    757    770     1
    757    771     1
    758    779     1
    758    769     1
    758    761     1
    758    762     1
    759    779     1
    759    769     1
    759    761     1
    759    762     1
    760    779     1
    761    778     1
    761    770     1
    761    771     1
    762    778     1
    762    770     1
    762    771     1
    763    779     1
    764   1618     1
    764    776     1
    764    777     1
    765   1618     1
    765    776     1
    765    777     1
    766    779     1
    767   1588     1
    767    773     1
    767    774     1
    768   1588     1
    768    773     1
    768    774     1
    772   1580     1
    772   1581     1
    773   1579     1
    774   1579     1
    775   1610     1
    775   1611     1
    776   1609     1
    777   1609     1
    780    794     1
    780    795     1
    780    797     1
    780    798     1
    780    791     1
    780    792     1
    781    785     1
    781    786     1
    781    788     1
    781    789     1
    781    806     1
    781    807     1
    782    784     1
    782    787     1
    782    809     1
    782    805     1
    782    794     1
    782    795     1
    783    784     1
    783    787     1
    783    809     1
    783    805     1
    783    794     1
    783    795     1
    784    788     1
    784    789     1
    784    803     1
    784    804     1
    785    787     1
    785    809     1
    785    802     1
    785    797     1
    785    798     1
    786    787     1
    786    809     1
    786    802     1
    786    797     1
    786    798     1
    787    800     1
    787    801     1
    788    809     1
    788    799     1
    788    791     1
    788    792     1
    789    809     1
    789    799     1
    789    791     1
    789    792     1
    790    809     1
    791    808     1
    791    800     1
    791    801     1
    792    808     1
    792    800     1
    792    801     1
    793    809     1
    794   1678     1
    794    806     1
    794    807     1
    795   1678     1
    795    806     1
    795    807     1
    796    809     1
    797   1648     1
    797    803     1
    797    804     1
    798   1648     1
    798    803     1
    798    804     1
    802   1640     1
    802   1641     1
    803   1639     1
    804   1639     1
    805   1670     1
    805   1671     1
    806   1669     1
    807   1669     1
    810    824     1
    810    825     1
    810    827     1
    810    828     1
    810    821     1
    810    822     1
    811    815     1
    811    816     1
    811    818     1
    811    819     1
    811    836     1
    811    837     1
    812    814     1
    812    817     1
    812    839     1
    812    835     1
    812    824     1
    812    825     1
    813    814     1
    813    817     1
    813    839     1
    813    835     1
    813    824     1
    813    825     1
    814    818     1
    814    819     1
    814    833     1
    814    834     1
    815    817     1
    815    839     1
    815    832     1
    815    827     1
    815    828     1
    816    817     1
    816    839     1
    816    832     1
    816    827     1
    816    828     1
    817    830     1
    817    831     1
    818    839     1
    818    829     1
    818    821     1
    818    822     1
    819    839     1
    819    829     1
    819    821     1
    819    822     1
    820    839     1
    821    838     1
    821    830     1
    821    831     1
    822    838     1
    822    830     1
    822    831     1
    823    839     1
    824   1738     1
    824    836     1
    824    837     1
    825   1738     1
    825    836     1
    825    837     1
    826    839     1
    827   1708     1
    827    833     1
    827    834     1
    828   1708     1
    828    833     1
    828    834     1
    832   1700     1
    832   1701     1
    833   1699     1
    834   1699     1
    835   1730     1
    835   1731     1
    836   1729     1
    837   1729     1
    840    854     1
    840    855     1
    840    857     1
    840    858     1
    840    851     1
    840    852     1
    841    845     1
    841    846     1
    841    848     1
    841    849     1
    841    866     1
    841    867     1
    842    844     1
    842    847     1
    842    869     1
    842    865     1
    842    854     1
    842    855     1
    843    844     1
    843    847     1
    843    869     1
    843    865     1
    843    854     1
    843    855     1
    844    848     1
    844    849     1
    844    863     1
    844    864     1
    845    847     1
    845    869     1
    845    862     1
    845    857     1
    845    858     1
    846    847     1
    846    869     1
    846    862     1
    846    857     1
    846    858     1
    847    860     1
    847    861     1
    848    869     1
    848    859     1
    848    851     1
    848    852     1
    849    869     1
    849    859     1
    849    851     1
    849    852     1
    850    869     1
    851    868     1
    851    860     1
    851    861     1
    852    868     1
    852    860     1
    852    861     1
    853    869     1
    854   1798     1
    854    866     1
    854    867     1
    855   1798     1
    855    866     1
    855    867     1
    856    869     1
    857   1768     1
    857    863     1
    857    864     1
    858   1768     1
    858    863     1
    858    864     1
    862   1760     1
    862   1761     1
    863   1759     1
    864   1759     1
    865   1790     1
    865   1791     1
    866   1789     1
    867   1789     1
    870    884     1
    870    885     1
    870    887     1
    870    888     1
    870    881     1
    870    882     1
    871    875     1
    871    876     1
    871    878     1
    871    879     1
    871    896     1
    871    897     1
    872    874     1
    872    877     1
    872    899     1
    872    895     1
    872    884     1
    872    885     1
    873    874     1
    873    877     1
    873    899     1
    873    895     1
    873    884     1
    873    885     1
    874    878     1
    874    879     1
    874    893     1
    874    894     1
    875    877     1
    875    899     1
    875    892     1
    875    887     1
    875    888     1
    876    877     1
    876    899     1
    876    892     1
    876    887     1
    876    888     1
    877    890     1
    877    891     1
    878    899     1
    878    889     1
    878    881     1
    878    882     1
    879    899     1
    879    889     1
    879    881     1
    879    882     1
    880    899     1
    881    898     1
    881    890     1
    881    891     1
    882    898     1
    882    890     1
    882    891     1
    883    899     1
    884   1858     1
    884    896     1
    884    897     1
    885   1858     1
    885    896     1
    885    897     1
    886    899     1
    887   1828     1
    887    893     1
    887    894     1
    888   1828     1
    888    893     1
    888    894     1
    892   1820     1
    892   1821     1
    893   1819     1
    894   1819     1
    895   1850     1
    895   1851     1
    896   1849     1
    897   1849     1
    900    914     1
    900    915     1
    900    917     1
    900    918     1
    900    911     1
    900    912     1
    901    905     1
    901    906     1
    901    908     1
    901    909     1
    901    926     1
    901    927     1
    902    904     1
    902    907     1
    902    929     1
    902    925     1
    902    914     1
    902    915     1
    903    904     1
    903    907     1
    903    929     1
    903    925     1
    903    914     1
    903    915     1
    904    908     1
    904    909     1
    904    923     1
    904    924     1
    905    907     1
    905    929     1
    905    922     1
    905    917     1
    905    918     1
    906    907     1
    906    929     1
    906    922     1
    906    917     1
    906    918     1
    907    920     1
    907    921     1
    908    929     1
    908    919     1
    908    911     1
    908    912     1
    909    929     1
    909    919     1
    909    911     1
    909    912     1
    910    929     1
    911    928     1
    911    920     1
    911    921     1
    912    928     1
    912    920     1
    912    921     1
    913    929     1
    914   1918     1
    914    926     1
    914    927     1
    915   1918     1
    915    926     1
    915    927     1
    916    929     1
    917   1888     1
    917    923     1
    917    924     1
    918   1888     1
    918    923     1
    918    924     1
    922   1880     1
    922   1881     1
    923   1879     1
    924   1879     1
    925   1910     1
    925   1911     1
    926   1909     1
    927   1909     1
    930    944     1
    930    945     1
    930    947     1
    930    948     1
    930    941     1
    930    942     1
    931    935     1
    931    936     1
    931    938     1
    931    939     1
    931    956     1
    931    957     1
    932    934     1
    932    937     1
    932    959     1
    932    955     1
    932    944     1
    932    945     1
    933    934     1
    933    937     1
    933    959     1
    933    955     1
    933    944     1
    933    945     1
    934    938     1
    934    939     1
    934    953     1
    934    954     1
    935    937     1
    935    959     1
    935    952     1
    935    947     1
    935    948     1
    936    937     1
    936    959     1
    936    952     1
    936    947     1
    936    948     1
    937    950     1
    937    951     1
    938    959     1
    938    949     1
    938    941     1
    938    942     1
    939    959     1
    939    949     1
    939    941     1
    939    942     1
    940    959     1
    941    958     1
    941    950     1
    941    951     1
    942    958     1
    942    950     1
    942    951     1
    943    959     1
    944   1978     1
    944    956     1
    944    957     1
    945   1978     1
    945    956     1
    945    957     1
    946    959     1
    947   1948     1
    947    953     1
    947    954     1
    948   1948     1
    948    953     1
    948    954     1
    952   1940     1
    952   1941     1
    953   1939     1
    954   1939     1
    955   1970     1
    955   1971     1
    956   1969     1
    957   1969     1
    960    974     1
    960    975     1
    960    977     1
    960    978     1
    960    971     1
    960    972     1
    961    965     1
    961    966     1
    961    968     1
    961    969     1
    961    986     1
    961    987     1
    962    964     1
    962    967     1
    962    989     1
    962    985     1
    962    974     1
    962    975     1
    963    964     1
    963    967     1
    963    989     1
    963    985     1
    963    974     1
    963    975     1
    964    968     1
    964    969     1
    964    983     1
    964    984     1
    965    967     1
    965    989     1
    965    982     1
    965    977     1
    965    978     1
    966    967     1
    966    989     1
    966    982     1
    966    977     1
    966    978     1
    967    980     1
    967    981     1
    968    989     1
    968    979     1
    968    971     1
    968    972     1
    969    989     1
    969    979     1
    969    971     1
    969    972     1
    970    989     1
    971    988     1
    971    980     1
    971    981     1
    972    988     1
    972    980     1
    972    981     1
    973    989     1
    974   2038     1
    974    986     1
    974    987     1
    975   2038     1
    975    986     1
    975    987     1
    976    989     1
    977   2008     1
    977    983     1
    977    984     1
    978   2008     1
    978    983     1
    978    984     1
    982   2000     1
    982   2001     1
    983   1999     1
    984   1999     1
    985   2030     1
    985   2031     1
    986   2029     1
    987   2029     1
    990   1004     1
    990   1005     1
    990   1007     1
    990   1008     1
    990   1001     1
    990   1002     1
    991    995     1
    991    996     1
    991    998     1
    991    999     1
    991   1016     1
    991   1017     1
    992    994     1
    992    997     1
    992   1019     1
    992   1015     1
    992   1004     1
    992   1005     1
    993    994     1
    993    997     1
    993   1019     1
    993   1015     1
    993   1004     1
    993   1005     1
    994    998     1
    994    999     1
    994   1013     1
    994   1014     1
    995    997     1
    995   1019     1
    995   1012     1
    995   1007     1
    995   1008     1
    996    997     1
    996   1019     1
    996   1012     1
    996   1007     1
    996   1008     1
    997   1010     1
    997   1011     1
    998   1019     1
    998   1009     1
    998   1001     1
    998   1002     1
    999   1019     1
    999   1009     1
    999   1001     1
    999   1002     1
   1000   1019     1
   1001   1018     1
   1001   1010     1
   1001   1011     1
   1002   1018     1
   1002   1010     1
   1002   1011     1
   1003   1019     1
   1004   2098     1
   1004   1016     1
   1004   1017     1
   1005   2098     1
   1005   1016     1
   1005   1017     1
   1006   1019     1
   1007   2068     1
   1007   1013     1
   1007   1014     1
   1008   2068     1
   1008   1013     1
   1008   1014     1
   1012   2060     1
   1012   2061     1
   1013   2059     1
   1014   2059     1
   1015   2090     1
   1015   2091     1
   1016   2089     1
   1017   2089     1
   1020   1034     1
   1020   1035     1
   1020   1037     1
   1020   1038     1
   1020   1031     1
   1020   1032     1
   1021   1025     1
   1021   1026     1
   1021   1028     1
   1021   1029     1
   1021   1046     1
   1021   1047     1
   1022   1024     1
   1022   1027     1
   1022   1049     1
   1022   1045     1
   1022   1034     1
   1022   1035     1
   1023   1024     1
   1023   1027     1
   1023   1049     1
   1023   1045     1
   1023   1034     1
   1023   1035     1
   1024   1028     1
   1024   1029     1
   1024   1043     1
   1024   1044     1
   1025   1027     1
   1025   1049     1
   1025   1042     1
   1025   1037     1
   1025   1038     1
   1026   1027     1
   1026   1049     1
   1026   1042     1
   1026   1037     1
   1026   1038     1
   1027   1040     1
   1027   1041     1
   1028   1049     1
   1028   1039     1
   1028   1031     1
   1028   1032     1
   1029   1049     1
   1029   1039     1
   1029   1031     1
   1029   1032     1
   1030   1049     1
   1031   1048     1
   1031   1040     1
   1031   1041     1
   1032   1048     1
   1032   1040     1
   1032   1041     1
   1033   1049     1
   1034   2158     1
   1034   1046     1
   1034   1047     1
   1035   2158     1
   1035   1046     1
   1035   1047     1
   1036   1049     1
   1037   2128     1
   1037   1043     1
   1037   1044     1
   1038   2128     1
   1038   1043     1
   1038   1044     1
   1042   2120     1
   1042   2121     1
   1043   2119     1
   1044   2119     1
   1045   2150     1
   1045   2151     1
   1046   2149     1
   1047   2149     1
   1050   1064     1
   1050   1065     1
   1050   1067     1
   1050   1068     1
   1050   1061     1
   1050   1062     1
   1051   1055     1
   1051   1056     1
   1051   1058     1
   1051   1059     1
   1051   1076     1
   1051   1077     1
   1052   1054     1
   1052   1057     1
   1052   1079     1
   1052   1075     1
   1052   1064     1
   1052   1065     1
   1053   1054     1
   1053   1057     1
   1053   1079     1
   1053   1075     1
   1053   1064     1
   1053   1065     1
   1054   1058     1
   1054   1059     1
   1054   1073     1
   1054   1074     1
   1055   1057     1
   1055   1079     1
   1055   1072     1
   1055   1067     1
   1055   1068     1
   1056   1057     1
   1056   1079     1
   1056   1072     1
   1056   1067     1
   1056   1068     1
   1057   1070     1
   1057   1071     1
   1058   1079     1
   1058   1069     1
   1058   1061     1
   1058   1062     1
   1059   1079     1
   1059   1069     1
   1059   1061     1
   1059   1062     1
   1060   1079     1
   1061   1078     1
   1061   1070     1
   1061   1071     1
   1062   1078     1
   1062   1070     1
   1062   1071     1
   1063   1079     1
   1064   2218     1
   1064   1076     1
   1064   1077     1
   1065   2218     1
   1065   1076     1
   1065   1077     1
   1066   1079     1
   1067   2188     1
   1067   1073     1
   1067   1074     1
   1068   2188     1
   1068   1073     1
   1068   1074     1
   1072   2180     1
   1072   2181     1
   1073   2179     1
   1074   2179     1
   1075   2210     1
   1075   2211     1
   1076   2209     1
   1077   2209     1
   1080   1094     1
   1080   1095     1
   1080   1097     1
   1080   1098     1
   1080   1091     1
   1080   1092     1
   1081   1085     1
   1081   1086     1
   1081   1088     1
   1081   1089     1
   1081   1106     1
   1081   1107     1
   1082   1084     1
   1082   1087     1
   1082   1109     1
   1082   1105     1
   1082   1094     1
   1082   1095     1
   1083   1084     1
   1083   1087     1
   1083   1109     1
   1083   1105     1
   1083   1094     1
   1083   1095     1
   1084   1088     1
   1084   1089     1
   1084   1103     1
   1084   1104     1
   1085   1087     1
   1085   1109     1
   1085   1102     1
   1085   1097     1
   1085   1098     1
   1086   1087     1
   1086   1109     1
   1086   1102     1
   1086   1097     1
   1086   1098     1
   1087   1100     1
   1087   1101     1
   1088   1109     1
   1088   1099     1
   1088   1091     1
   1088   1092     1
   1089   1109     1
   1089   1099     1
   1089   1091     1
   1089   1092     1
   1090   1109     1
   1091   1108     1
   1091   1100     1
   1091   1101     1
   1092   1108     1
   1092   1100     1
   1092   1101     1
   1093   1109     1
   1094   2278     1
   1094   1106     1
   1094   1107     1
   1095   2278     1
   1095   1106     1
   1095   1107     1
   1096   1109     1
   1097   2248     1
   1097   1103     1
   1097   1104     1
   1098   2248     1
   1098   1103     1
   1098   1104     1
   1102   2240     1
   1102   2241     1
   1103   2239     1
   1104   2239     1
   1105   2270     1
   1105   2271     1
   1106   2269     1
   1107   2269     1
   1110   1124     1
   1110   1125     1
   1110   1127     1
   1110   1128     1
   1110   1121     1
   1110   1122     1
   1111   1115     1
   1111   1116     1
   1111   1118     1
   1111   1119     1
   1111   1136     1
   1111   1137     1
   1112   1114     1
   1112   1117     1
   1112   1139     1
   1112   1135     1
   1112   1124     1
   1112   1125     1
   1113   1114     1
   1113   1117     1
   1113   1139     1
   1113   1135     1
   1113   1124     1
   1113   1125     1
   1114   1118     1
   1114   1119     1
   1114   1133     1
   1114   1134     1
   1115   1117     1
   1115   1139     1
   1115   1132     1
   1115   1127     1
   1115   1128     1
   1116   1117     1
   1116   1139     1
   1116   1132     1
   1116   1127     1
   1116   1128     1
   1117   1130     1
   1117   1131     1
   1118   1139     1
   1118   1129     1
   1118   1121     1
   1118   1122     1
   1119   1139     1
   1119   1129     1
   1119   1121     1
   1119   1122     1
   1120   1139     1
   1121   1138     1
   1121   1130     1
   1121   1131     1
   1122   1138     1
   1122   1130     1
   1122   1131     1
   1123   1139     1
   1124   2338     1
   1124   1136     1
   1124   1137     1
   1125   2338     1
   1125   1136     1
   1125   1137     1
   1126   1139     1
   1127   2308     1
   1127   1133     1
   1127   1134     1
   1128   2308     1
   1128   1133     1
   1128   1134     1
   1132   2300     1
   1132   2301     1
   1133   2299     1
   1134   2299     1
   1135   2330     1
   1135   2331     1
   1136   2329     1
   1137   2329     1
   1140   1154     1
   1140   1155     1
   1140   1157     1
   1140   1158     1
   1140   1151     1
   1140   1152     1
   1141   1145     1
   1141   1146     1
   1141   1148     1
   1141   1149     1
   1141   1166     1
   1141   1167     1
   1142   1144     1
   1142   1147     1
   1142   1169     1
   1142   1165     1
   1142   1154     1
   1142   1155     1
   1143   1144     1
   1143   1147     1
   1143   1169     1
   1143   1165     1
   1143   1154     1
   1143   1155     1
   1144   1148     1
   1144   1149     1
   1144   1163     1
   1144   1164     1
   1145   1147     1
   1145   1169     1
   1145   1162     1
   1145   1157     1
   1145   1158     1
   1146   1147     1
   1146   1169     1
   1146   1162     1
   1146   1157     1
   1146   1158     1
   1147   1160     1
   1147   1161     1
   1148   1169     1
   1148   1159     1
   1148   1151     1
   1148   1152     1
   1149   1169     1
   1149   1159     1
   1149   1151     1
   1149   1152     1
   1150   1169     1
   1151   1168     1
   1151   1160     1
   1151   1161     1
   1152   1168     1
   1152   1160     1
   1152   1161     1
   1153   1169     1
   1154   2398     1
   1154   1166     1
   1154   1167     1
   1155   2398     1
   1155   1166     1
   1155   1167     1
   1156   1169     1
   1157   2368     1
   1157   1163     1
   1157   1164     1
   1158   2368     1
   1158   1163     1
   1158   1164     1
   1162   2360     1
   1162   2361     1
   1163   2359     1
   1164   2359     1
   1165   2390     1
   1165   2391     1
   1166   2389     1
   1167   2389     1
   1170   1184     1
   1170   1185     1
   1170   1187     1
   1170   1188     1
   1170   1181     1
   1170   1182     1
   1171   1175     1
   1171   1176     1
   1171   1178     1
   1171   1179     1
   1171   1196     1
   1171   1197     1
   1172   1174     1
   1172   1177     1
   1172   1199     1
   1172   1195     1
   1172   1184     1
   1172   1185     1
   1173   1174     1
   1173   1177     1
   1173   1199     1
   1173   1195     1
   1173   1184     1
   1173   1185     1
   1174   1178     1
   1174   1179     1
   1174   1193     1
   1174   1194     1
   1175   1177     1
   1175   1199     1
   1175   1192     1
   1175   1187     1
   1175   1188     1
   1176   1177     1
   1176   1199     1
   1176   1192     1
   1176   1187     1
   1176   1188     1
   1177   1190     1
   1177   1191     1
   1178   1199     1
   1178   1189     1
   1178   1181     1
   1178   1182     1
   1179   1199     1
   1179   1189     1
   1179   1181     1
   1179   1182     1
   1180   1199     1
   1181   1198     1
   1181   1190     1
   1181   1191     1
   1182   1198     1
   1182   1190     1
   1182   1191     1
   1183   1199     1
   1184   2458     1
   1184   1196     1
   1184   1197     1
   1185   2458     1
   1185   1196     1
   1185   1197     1
   1186   1199     1
   1187   2428     1
   1187   1193     1
   1187   1194     1
   1188   2428     1
   1188   1193     1
   1188   1194     1
   1192   2420     1
   1192   2421     1
   1193   2419     1
   1194   2419     1
   1195   2450     1
   1195   2451     1
   1196   2449     1
   1197   2449     1
   1200   1214     1
   1200   1215     1
   1200   1217     1
   1200   1218     1
   1200   1211     1
   1200   1212     1
   1201   1205     1
   1201   1206     1
   1201   1208     1
   1201   1209     1
   1201   1226     1
   1201   1227     1
   1202   1204     1
   1202   1207     1
   1202   1229     1
   1202   1225     1
   1202   1214     1
   1202   1215     1
   1203   1204     1
   1203   1207     1
   1203   1229     1
   1203   1225     1
   1203   1214     1
   1203   1215     1
   1204   1208     1
   1204   1209     1
   1204   1223     1
   1204   1224     1
   1205   1207     1
   1205   1229     1
   1205   1222     1
   1205   1217     1
   1205   1218     1
   1206   1207     1
   1206   1229     1
   1206   1222     1
   1206   1217     1
   1206   1218     1
   1207   1220     1
   1207   1221     1
   1208   1229     1
   1208   1219     1
   1208   1211     1
   1208   1212     1
   1209   1229     1
   1209   1219     1
   1209   1211     1
   1209   1212     1
   1210   1229     1
   1211   1228     1
   1211   1220     1
   1211   1221     1
   1212   1228     1
   1212   1220     1
   1212   1221     1
   1213   1229     1
   1214   2518     1
   1214   1226     1
   1214   1227     1
   1215   2518     1
   1215   1226     1
   1215   1227     1
   1216   1229     1
   1217   2488     1
   1217   1223     1
   1217   1224     1
   1218   2488     1
   1218   1223     1
   1218   1224     1
   1222   2480     1
   1222   2481     1
   1223   2479     1
   1224   2479     1
   1225   2510     1
   1225   2511     1
   1226   2509     1
   1227   2509     1
   1230   1244     1
   1230   1245     1
   1230   1247     1
   1230   1248     1
   1230   1241     1
   1230   1242     1
   1231   1235     1
   1231   1236     1
   1231   1238     1
   1231   1239     1
   1231   1256     1
   1231   1257     1
   1232   1234     1
   1232   1237     1
   1232   1259     1
   1232   1255     1
   1232   1244     1
   1232   1245     1
   1233   1234     1
   1233   1237     1
   1233   1259     1
   1233   1255     1
   1233   1244     1
   1233   1245     1
   1234   1238     1
   1234   1239     1
   1234   1253     1
   1234   1254     1
   1235   1237     1
   1235   1259     1
   1235   1252     1
   1235   1247     1
   1235   1248     1
   1236   1237     1
   1236   1259     1
   1236   1252     1
   1236   1247     1
   1236   1248     1
   1237   1250     1
   1237   1251     1
   1238   1259     1
   1238   1249     1
   1238   1241     1
   1238   1242     1
   1239   1259     1
   1239   1249     1
   1239   1241     1
   1239   1242     1
   1240   1259     1
   1241   1258     1
   1241   1250     1
   1241   1251     1
   1242   1258     1
   1242   1250     1
   1242   1251     1
   1243   1259     1
   1244   2578     1
   1244   1256     1
   1244   1257     1
   1245   2578     1
   1245   1256     1
   1245   1257     1
   1246   1259     1
   1247   2548     1
   1247   1253     1
   1247   1254     1
   1248   2548     1
   1248   1253     1
   1248   1254     1
   1252   2540     1
   1252   2541     1
   1253   2539     1
   1254   2539     1
   1255   2570     1
   1255   2571     1
   1256   2569     1
   1257   2569     1
   1260   1274     1
   1260   1275     1
   1260   1277     1
   1260   1278     1
   1260   1271     1
   1260   1272     1
   1261   1265     1
   1261   1266     1
   1261   1268     1
   1261   1269     1
   1261   1286     1
   1261   1287     1
   1262   1264     1
   1262   1267     1
   1262   1289     1
   1262   1285     1
   1262   1274     1
   1262   1275     1
   1263   1264     1
   1263   1267     1
   1263   1289     1
   1263   1285     1
   1263   1274     1
   1263   1275     1
   1264   1268     1
   1264   1269     1
   1264   1283     1
   1264   1284     1
   1265   1267     1
   1265   1289     1
   1265   1282     1
   1265   1277     1
   1265   1278     1
   1266   1267     1
   1266   1289     1
   1266   1282     1
   1266   1277     1
   1266   1278     1
   1267   1280     1
   1267   1281     1
   1268   1289     1
   1268   1279     1
   1268   1271     1
   1268   1272     1
   1269   1289     1
   1269   1279     1
   1269   1271     1
   1269   1272     1
   1270   1289     1
   1271   1288     1
   1271   1280     1
   1271   1281     1
   1272   1288     1
   1272   1280     1
   1272   1281     1
   1273   1289     1
   1274   2638     1
   1274   1286     1
   1274   1287     1
   1275   2638     1
   1275   1286     1
   1275   1287     1
   1276   1289     1
   1277   2608     1
   1277   1283     1
   1277   1284     1
   1278   2608     1
   1278   1283     1
   1278   1284     1
   1282   2600     1
   1282   2601     1
   1283   2599     1
   1284   2599     1
   1285   2630     1
   1285   2631     1
   1286   2629     1
   1287   2629     1
   1290   1304     1
   1290   1305     1
   1290   1307     1
   1290   1308     1
   1290   1301     1
   1290   1302     1
   1291   1295     1
   1291   1296     1
   1291   1298     1
   1291   1299     1
   1291   1316     1
   1291   1317     1
   1292   1294     1
   1292   1297     1
   1292   1319     1
   1292   1315     1
   1292   1304     1
   1292   1305     1
   1293   1294     1
   1293   1297     1
   1293   1319     1
   1293   1315     1
   1293   1304     1
   1293   1305     1
   1294   1298     1
   1294   1299     1
   1294   1313     1
   1294   1314     1
   1295   1297     1
   1295   1319     1
   1295   1312     1
   1295   1307     1
   1295   1308     1
   1296   1297     1
   1296   1319     1
   1296   1312     1
   1296   1307     1
   1296   1308     1
   1297   1310     1
   1297   1311     1
   1298   1319     1
   1298   1309     1
   1298   1301     1
   1298   1302     1
   1299   1319     1
   1299   1309     1
   1299   1301     1
   1299   1302     1
   1300   1319     1
   1301   1318     1
   1301   1310     1
   1301   1311     1
   1302   1318     1
   1302   1310     1
   1302   1311     1
   1303   1319     1
   1304   2698     1
   1304   1316     1
   1304   1317     1
   1305   2698     1
   1305   1316     1
   1305   1317     1
   1306   1319     1
   1307   2668     1
   1307   1313     1
   1307   1314     1
   1308   2668     1
   1308   1313     1
   1308   1314     1
   1312   2660     1
   1312   2661     1
   1313   2659     1
   1314   2659     1
   1315   2690     1
   1315   2691     1
   1316   2689     1
   1317   2689     1
   1320   1334     1
   1320   1335     1
   1320   1337     1
   1320   1338     1
   1320   1331     1
   1320   1332     1
   1321   1325     1
   1321   1326     1
   1321   1328     1
   1321   1329     1
   1321   1346     1
   1321   1347     1
   1322   1324     1
   1322   1327     1
   1322   1349     1
   1322   1345     1
   1322   1334     1
   1322   1335     1
   1323   1324     1
   1323   1327     1
   1323   1349     1
   1323   1345     1
   1323   1334     1
   1323   1335     1
   1324   1328     1
   1324   1329     1
   1324   1343     1
   1324   1344     1
   1325   1327     1
   1325   1349     1
   1325   1342     1
   1325   1337     1
   1325   1338     1
   1326   1327     1
   1326   1349     1
   1326   1342     1
   1326   1337     1
   1326   1338     1
   1327   1340     1
   1327   1341     1
   1328   1349     1
   1328   1339     1
   1328   1331     1
   1328   1332     1
   1329   1349     1
   1329   1339     1
   1329   1331     1
   1329   1332     1
   1330   1349     1
   1331   1348     1
   1331   1340     1
   1331   1341     1
   1332   1348     1
   1332   1340     1
   1332   1341     1
   1333   1349     1
   1334   2758     1
   1334   1346     1
   1334   1347     1
   1335   2758     1
   1335   1346     1
   1335   1347     1
   1336   1349     1
   1337   2728     1
   1337   1343     1
   1337   1344     1
   1338   2728     1
   1338   1343     1
   1338   1344     1
   1342   2720     1
   1342   2721     1
   1343   2719     1
   1344   2719     1
   1345   2750     1
   1345   2751     1
   1346   2749     1
   1347   2749     1
   1350   1364     1
   1350   1365     1
   1350   1367     1
   1350   1368     1
   1350   1361     1
   1350   1362     1
   1351   1355     1
   1351   1356     1
   1351   1358     1
   1351   1359     1
   1351   1376     1
   1351   1377     1
   1352   1354     1
   1352   1357     1
   1352   1379     1
   1352   1375     1
   1352   1364     1
   1352   1365     1
   1353   1354     1
   1353   1357     1
   1353   1379     1
   1353   1375     1
   1353   1364     1
   1353   1365     1
   1354   1358     1
   1354   1359     1
   1354   1373     1
   1354   1374     1
   1355   1357     1
   1355   1379     1
   1355   1372     1
   1355   1367     1
   1355   1368     1
   1356   1357     1
   1356   1379     1
   1356   1372     1
   1356   1367     1
   1356   1368     1
   1357   1370     1
   1357   1371     1
   1358   1379     1
   1358   1369     1
   1358   1361     1
   1358   1362     1
   1359   1379     1
   1359   1369     1
   1359   1361     1
   1359   1362     1
   1360   1379     1
   1361   1378     1
   1361   1370     1
   1361   1371     1
   1362   1378     1
   1362   1370     1
   1362   1371     1
   1363   1379     1
   1364   2818     1
   1364   1376     1
   1364   1377     1
   1365   2818     1
   1365   1376     1
   1365   1377     1
   1366   1379     1
   1367   2788     1
   1367   1373     1
   1367   1374     1
   1368   2788     1
   1368   1373     1
   1368   1374     1
   1372   2780     1
   1372   2781     1
   1373   2779     1
   1374   2779     1
   1375   2810     1
   1375   2811     1
   1376   2809     1
   1377   2809     1
   1380   1394     1
   1380   1395     1
   1380   1397     1
   1380   1398     1
   1380   1391     1
   1380   1392     1
   1381   1385     1
   1381   1386     1
   1381   1388     1
   1381   1389     1
   1381   1406     1
   1381   1407     1
   1382   1384     1
   1382   1387     1
   1382   1409     1
   1382   1405     1
   1382   1394     1
   1382   1395     1
   1383   1384     1
   1383   1387     1
   1383   1409     1
   1383   1405     1
   1383   1394     1
   1383   1395     1
   1384   1388     1
   1384   1389     1
   1384   1403     1
   1384   1404     1
   1385   1387     1
   1385   1409     1
   1385   1402     1
   1385   1397     1
   1385   1398     1
   1386   1387     1
   1386   1409     1
   1386   1402     1
   1386   1397     1
   1386   1398     1
   1387   1400     1
   1387   1401     1
   1388   1409     1
   1388   1399     1
   1388   1391     1
   1388   1392     1
   1389   1409     1
   1389   1399     1
   1389   1391     1
   1389   1392     1
   1390   1409     1
   1391   1408     1
   1391   1400     1
   1391   1401     1
   1392   1408     1
   1392   1400     1
   1392   1401     1
   1393   1409     1
   1394   2878     1
   1394   1406     1
   1394   1407     1
   1395   2878     1
   1395   1406     1
   1395   1407     1
   1396   1409     1
   1397   2848     1
   1397   1403     1
   1397   1404     1
   1398   2848     1
   1398   1403     1
   1398   1404     1
   1402   2840     1
   1402   2841     1
   1403   2839     1
   1404   2839     1
   1405   2870     1
   1405   2871     1
   1406   2869     1
   1407   2869     1
   1410   1424     1
   1410   1425     1
   1410   1427     1
   1410   1428     1
   1410   1421     1
   1410   1422     1
   1411   1415     1
   1411   1416     1
   1411   1418     1
   1411   1419     1
   1411   1436     1
   1411   1437     1
   1412   1414     1
   1412   1417     1
   1412   1439     1
   1412   1435     1
   1412   1424     1
   1412   1425     1
   1413   1414     1
   1413   1417     1
   1413   1439     1
   1413   1435     1
   1413   1424     1
   1413   1425     1
   1414   1418     1
   1414   1419     1
   1414   1433     1
   1414   1434     1
   1415   1417     1
   1415   1439     1
   1415   1432     1
   1415   1427     1
   1415   1428     1
   1416   1417     1
   1416   1439     1
   1416   1432     1
   1416   1427     1
   1416   1428     1
   1417   1430     1
   1417   1431     1
   1418   1439     1
   1418   1429     1
   1418   1421     1
   1418   1422     1
   1419   1439     1
   1419   1429     1
   1419   1421     1
   1419   1422     1
   1420   1439     1
   1421   1438     1
   1421   1430     1
   1421   1431     1
   1422   1438     1
   1422   1430     1
   1422   1431     1
   1423   1439     1
   1424   2938     1
   1424   1436     1
   1424   1437     1
   1425   2938     1
   1425   1436     1
   1425   1437     1
   1426   1439     1
   1427   2908     1
   1427   1433     1
   1427   1434     1
   1428   2908     1
   1428   1433     1
   1428   1434     1
   1432   2900     1
   1432   2901     1
   1433   2899     1
   1434   2899     1
   1435   2930     1
   1435   2931     1
   1436   2929     1
   1437   2929     1
   1440   1454     1
   1440   1455     1
   1440   1457     1
   1440   1458     1
   1440   1451     1
   1440   1452     1
   1441   1445     1
   1441   1446     1
   1441   1448     1
   1441   1449     1
   1441   1466     1
   1441   1467     1
   1442   1444     1
   1442   1447     1
   1442   1469     1
   1442   1465     1
   1442   1454     1
   1442   1455     1
   1443   1444     1
   1443   1447     1
   1443   1469     1
   1443   1465     1
   1443   1454     1
   1443   1455     1
   1444   1448     1
   1444   1449     1
   1444   1463     1
   1444   1464     1
   1445   1447     1
   1445   1469     1
   1445   1462     1
   1445   1457     1
   1445   1458     1
   1446   1447     1
   1446   1469     1
   1446   1462     1
   1446   1457     1
   1446   1458     1
   1447   1460     1
   1447   1461     1
   1448   1469     1
   1448   1459     1
   1448   1451     1
   1448   1452     1
   1449   1469     1
   1449   1459     1
   1449   1451     1
   1449   1452     1
   1450   1469     1
   1451   1468     1
   1451   1460     1
   1451   1461     1
   1452   1468     1
   1452   1460     1
   1452   1461     1
   1453   1469     1
   1454   2998     1
   1454   1466     1
   1454   1467     1
   1455   2998     1
   1455   1466     1
   1455   1467     1
   1456   1469     1
   1457   2968     1
   1457   1463     1
   1457   1464     1
   1458   2968     1
   1458   1463     1
   1458   1464     1
   1462   2960     1
   1462   2961     1
   1463   2959     1
   1464   2959     1
   1465   2990     1
   1465   2991     1
   1466   2989     1
   1467   2989     1
   1470   1484     1
   1470   1485     1
   1470   1487     1
   1470   1488     1
   1470   1481     1
   1470   1482     1
   1471   1475     1
   1471   1476     1
   1471   1478     1
   1471   1479     1
   1471   1496     1
   1471   1497     1
   1472   1474     1
   1472   1477     1
   1472   1499     1
   1472   1495     1
   1472   1484     1
   1472   1485     1
   1473   1474     1
   1473   1477     1
   1473   1499     1
   1473   1495     1
   1473   1484     1
   1473   1485     1
   1474   1478     1
   1474   1479     1
   1474   1493     1
   1474   1494     1
   1475   1477     1
   1475   1499     1
   1475   1492     1
   1475   1487     1
   1475   1488     1
   1476   1477     1
   1476   1499     1
   1476   1492     1
   1476   1487     1
   1476   1488     1
   1477   1490     1
   1477   1491     1
   1478   1499     1
   1478   1489     1
   1478   1481     1
   1478   1482     1
   1479   1499     1
   1479   1489     1
   1479   1481     1
   1479   1482     1
   1480   1499     1
   1481   1498     1
   1481   1490     1
   1481   1491     1
   1482   1498     1
   1482   1490     1
   1482   1491     1
   1483   1499     1
   1484   3058     1
   1484   1496     1
   1484   1497     1
   1485   3058     1
   1485   1496     1
   1485   1497     1
   1486   1499     1
   1487   3028     1
   1487   1493     1
   1487   1494     1
   1488   3028     1
   1488   1493     1
   1488   1494     1
   1492   3020     1
   1492   3021     1
   1493   3019     1
   1494   3019     1
   1495   3050     1
   1495   3051     1
   1496   3049     1
   1497   3049     1
   1500   1514     1
   1500   1515     1
   1500   1517     1
   1500   1518     1
   1500   1511     1
   1500   1512     1
   1501   1505     1
   1501   1506     1
   1501   1508     1
   1501   1509     1
   1501   1526     1
   1501   1527     1
   1502   1504     1
   1502   1507     1
   1502   1529     1
   1502   1525     1
   1502   1514     1
   1502   1515     1
   1503   1504     1
   1503   1507     1
   1503   1529     1
   1503   1525     1
   1503   1514     1
   1503   1515     1
   1504   1508     1
   1504   1509     1
   1504   1523     1
   1504   1524     1
   1505   1507     1
   1505   1529     1
   1505   1522     1
   1505   1517     1
   1505   1518     1
   1506   1507     1
   1506   1529     1
   1506   1522     1
   1506   1517     1
   1506   1518     1
   1507   1520     1
   1507   1521     1
   1508   1529     1
   1508   1519     1
   1508   1511     1
   1508   1512     1
   1509   1529     1
   1509   1519     1
   1509   1511     1
   1509   1512     1
   1510   1529     1
   1511   1528     1
   1511   1520     1
   1511   1521     1
   1512   1528     1
   1512   1520     1
   1512   1521     1
   1513   1529     1
   1514   3118     1
   1514   1526     1
   1514   1527     1
   1515   3118     1
   1515   1526     1
   1515   1527     1
   1516   1529     1
   1517   3088     1
   1517   1523     1
   1517   1524     1
   1518   3088     1
   1518   1523     1
   1518   1524     1
   1522   3080     1
   1522   3081     1
   1523   3079     1
   1524   3079     1
   1525   3110     1
   1525   3111     1
   1526   3109     1
   1527   3109     1
   1530   1544     1
   1530   1545     1
   1530   1547     1
   1530   1548     1
   1530   1541     1
   1530   1542     1
   1531   1535     1
   1531   1536     1
   1531   1538     1
   1531   1539     1
   1531   1556     1
   1531   1557     1
   1532   1534     1
   1532   1537     1
   1532   1559     1
   1532   1555     1
   1532   1544     1
   1532   1545     1
   1533   1534     1
   1533   1537     1
   1533   1559     1
   1533   1555     1
   1533   1544     1
   1533   1545     1
   1534   1538     1
   1534   1539     1
   1534   1553     1
   1534   1554     1
   1535   1537     1
   1535   1559     1
   1535   1552     1
   1535   1547     1
   1535   1548     1
   1536   1537     1
   1536   1559     1
   1536   1552     1
   1536   1547     1
   1536   1548     1
   1537   1550     1
   1537   1551     1
   1538   1559     1
   1538   1549     1
   1538   1541     1
   1538   1542     1
   1539   1559     1
   1539   1549     1
   1539   1541     1
   1539   1542     1
   1540   1559     1
   1541   1558     1
   1541   1550     1
   1541   1551     1
   1542   1558     1
   1542   1550     1
   1542   1551     1
   1543   1559     1
   1544   3178     1
   1544   1556     1
   1544   1557     1
   1545   3178     1
   1545   1556     1
   1545   1557     1
   1546   1559     1
   1547   3148     1
   1547   1553     1
   1547   1554     1
   1548   3148     1
   1548   1553     1
   1548   1554     1
   1552   3140     1
   1552   3141     1
   1553   3139     1
   1554   3139     1
   1555   3170     1
   1555   3171     1
   1556   3169     1
   1557   3169     1
   1560   1574     1
   1560   1575     1
   1560   1577     1
   1560   1578     1
   1560   1571     1
   1560   1572     1
   1561   1565     1
   1561   1566     1
   1561   1568     1
   1561   1569     1
   1561   1586     1
   1561   1587     1
   1562   1564     1
   1562   1567     1
   1562   1589     1
   1562   1585     1
   1562   1574     1
   1562   1575     1
   1563   1564     1
   1563   1567     1
   1563   1589     1
   1563   1585     1
   1563   1574     1
   1563   1575     1
   1564   1568     1
   1564   1569     1
   1564   1583     1
   1564   1584     1
   1565   1567     1
   1565   1589     1
   1565   1582     1
   1565   1577     1
   1565   1578     1
   1566   1567     1
   1566   1589     1
   1566   1582     1
   1566   1577     1
   1566   1578     1
   1567   1580     1
   1567   1581     1
   1568   1589     1
   1568   1579     1
   1568   1571     1
   1568   1572     1
   1569   1589     1
   1569   1579     1
   1569   1571     1
   1569   1572     1
   1570   1589     1
   1571   1588     1
   1571   1580     1
   1571   1581     1
   1572   1588     1
   1572   1580     1
   1572   1581     1
   1573   1589     1
   1574   3238     1
   1574   1586     1
   1574   1587     1
   1575   3238     1
   1575   1586     1
   1575   1587     1
   1576   1589     1
   1577   3208     1
   1577   1583     1
   1577   1584     1
   1578   3208     1
   1578   1583     1
   1578   1584     1
   1582   3200     1
   1582   3201     1
   1583   3199     1
   1584   3199     1
   1585   3230     1
   1585   3231     1
   1586   3229     1
   1587   3229     1
   1590   1604     1
   1590   1605     1
   1590   1607     1
   1590   1608     1
   1590   1601     1
   1590   1602     1
   1591   1595     1
   1591   1596     1
   1591   1598     1
   1591   1599     1
   1591   1616     1
   1591   1617     1
   1592   1594     1
   1592   1597     1
   1592   1619     1
   1592   1615     1
   1592   1604     1
   1592   1605     1
   1593   1594     1
   1593   1597     1
   1593   1619     1
   1593   1615     1
   1593   1604     1
   1593   1605     1
   1594   1598     1
   1594   1599     1
   1594   1613     1
   1594   1614     1
   1595   1597     1
   1595   1619     1
   1595   1612     1
   1595   1607     1
   1595   1608     1
   1596   1597     1
   1596   1619     1
   1596   1612     1
   1596   1607     1
   1596   1608     1
   1597   1610     1
   1597   1611     1
   1598   1619     1
   1598   1609     1
   1598   1601     1
   1598   1602     1
   1599   1619     1
   1599   1609     1
   1599   1601     1
   1599   1602     1
   1600   1619     1
   1601   1618     1
   1601   1610     1
   1601   1611     1
   1602   1618     1
   1602   1610     1
   1602   1611     1
   1603   1619     1
   1604   3298     1
   1604   1616     1
   1604   1617     1
   1605   3298     1
   1605   1616     1
   1605   1617     1
   1606   1619     1
   1607   3268     1
   1607   1613     1
   1607   1614     1
   1608   3268     1
   1608   1613     1
   1608   1614     1
   1612   3260     1
   1612   3261     1
   1613   3259     1
   1614   3259     1
   1615   3290     1
   1615   3291     1
   1616   3289     1
   1617   3289     1
   1620   1634     1
   1620   1635     1
   1620   1637     1
   1620   1638     1
   1620   1631     1
   1620   1632     1
   1621   1625     1
   1621   1626     1
   1621   1628     1
   1621   1629     1
   1621   1646     1
   1621   1647     1
   1622   1624     1
   1622   1627     1
   1622   1649     1
   1622   1645     1
   1622   1634     1
   1622   1635     1
   1623   1624     1
   1623   1627     1
   1623   1649     1
   1623   1645     1
   1623   1634     1
   1623   1635     1
   1624   1628     1
   1624   1629     1
   1624   1643     1
   1624   1644     1
   1625   1627     1
   1625   1649     1
   1625   1642     1
   1625   1637     1
   1625   1638     1
   1626   1627     1
   1626   1649     1
   1626   1642     1
   1626   1637     1
   1626   1638     1
   1627   1640     1
   1627   1641     1
   1628   1649     1
   1628   1639     1
   1628   1631     1
   1628   1632     1
   1629   1649     1
   1629   1639     1
   1629   1631     1
   1629   1632     1
   1630   1649     1
   1631   1648     1
   1631   1640     1
   1631   1641     1
   1632   1648     1
   1632   1640     1
   1632   1641     1
   1633   1649     1
   1634   3358     1
   1634   1646     1
   1634   1647     1
   1635   3358     1
   1635   1646     1
   1635   1647     1
   1636   1649     1
   1637   3328     1
   1637   1643     1
   1637   1644     1
   1638   3328     1
   1638   1643     1
   1638   1644     1
   1642   3320     1
   1642   3321     1
   1643   3319     1
   1644   3319     1
   1645   3350     1
   1645   3351     1
   1646   3349     1
   1647   3349     1
   1650   1664     1
   1650   1665     1
   1650   1667     1
   1650   1668     1
   1650   1661     1
   1650   1662     1
   1651   1655     1
   1651   1656     1
   1651   1658     1
   1651   1659     1
   1651   1676     1
   1651   1677     1
   1652   1654     1
   1652   1657     1
   1652   1679     1
   1652   1675     1
   1652   1664     1
   1652   1665     1
   1653   1654     1
   1653   1657     1
   1653   1679     1
   1653   1675     1
   1653   1664     1
   1653   1665     1
   1654   1658     1
   1654   1659     1
   1654   1673     1
   1654   1674     1
   1655   1657     1
   1655   1679     1
   1655   1672     1
   1655   1667     1
   1655   1668     1
   1656   1657     1
   1656   1679     1
   1656   1672     1
   1656   1667     1
   1656   1668     1
   1657   1670     1
   1657   1671     1
   1658   1679     1
   1658   1669     1
   1658   1661     1
   1658   1662     1
   1659   1679     1
   1659   1669     1
   1659   1661     1
   1659   1662     1
   1660   1679     1
   1661   1678     1
   1661   1670     1
   1661   1671     1
   1662   1678     1
   1662   1670     1
   1662   1671     1
   1663   1679     1
   1664   3418     1
   1664   1676     1
   1664   1677     1
   1665   3418     1
   1665   1676     1
   1665   1677     1
   1666   1679     1
   1667   3388     1
   1667   1673     1
   1667   1674     1
   1668   3388     1
   1668   1673     1
   1668   1674     1
   1672   3380     1
   1672   3381     1
   1673   3379     1
   1674   3379     1
   1675   3410     1
   1675   3411     1
   1676   3409     1
   1677   3409     1
   1680   1694     1
   1680   1695     1
   1680   1697     1
   1680   1698     1
   1680   1691     1
   1680   1692     1
   1681   1685     1
   1681   1686     1
   1681   1688     1
   1681   1689     1
   1681   1706     1
   1681   1707     1
   1682   1684     1
   1682   1687     1
   1682   1709     1
   1682   1705     1
   1682   1694     1
   1682   1695     1
   1683   1684     1
   1683   1687     1
   1683   1709     1
   1683   1705     1
   1683   1694     1
   1683   1695     1
   1684   1688     1
   1684   1689     1
   1684   1703     1
   1684   1704     1
   1685   1687     1
   1685   1709     1
   1685   1702     1
   1685   1697     1
   1685   1698     1
   1686   1687     1
   1686   1709     1
   1686   1702     1
   1686   1697     1
   1686   1698     1
   1687   1700     1
   1687   1701     1
   1688   1709     1
   1688   1699     1
   1688   1691     1
   1688   1692     1
   1689   1709     1
   1689   1699     1
   1689   1691     1
   1689   1692     1
   1690   1709     1
   1691   1708     1
   1691   1700     1
   1691   1701     1
   1692   1708     1
   1692   1700     1
   1692   1701     1
   1693   1709     1
   1694   3478     1
   1694   1706     1
   1694   1707     1
   1695   3478     1
   1695   1706     1
   1695   1707     1
   1696   1709     1
   1697   3448     1
   1697   1703     1
   1697   1704     1
   1698   3448     1
   1698   1703     1
   1698   1704     1
   1702   3440     1
   1702   3441     1
   1703   3439     1
   1704   3439     1
   1705   3470     1
   1705   3471     1
   1706   3469     1
   1707   3469     1
   1710   1724     1
   1710   1725     1
   1710   1727     1
   1710   1728     1
   1710   1721     1
   1710   1722     1
   1711   1715     1
   1711   1716     1
   1711   1718     1
   1711   1719     1
   1711   1736     1
   1711   1737     1
   1712   1714     1
   1712   1717     1
   1712   1739     1
   1712   1735     1
   1712   1724     1
   1712   1725     1
   1713   1714     1
   1713   1717     1
   1713   1739     1
   1713   1735     1
   1713   1724     1
   1713   1725     1
   1714   1718     1
   1714   1719     1
   1714   1733     1
   1714   1734     1
   1715   1717     1
   1715   1739     1
   1715   1732     1
   1715   1727     1
   1715   1728     1
   1716   1717     1
   1716   1739     1
   1716   1732     1
   1716   1727     1
   1716   1728     1
   1717   1730     1
   1717   1731     1
   1718   1739     1
   1718   1729     1
   1718   1721     1
   1718   1722     1
   1719   1739     1
   1719   1729     1
   1719   1721     1
   1719   1722     1
   1720   1739     1
   1721   1738     1
   1721   1730     1
   1721   1731     1
   1722   1738     1
   1722   1730     1
   1722   1731     1
   1723   1739     1
   1724   3538     1
   1724   1736     1
   1724   1737     1
   1725   3538     1
   1725   1736     1
   1725   1737     1
   1726   1739     1
   1727   3508     1
   1727   1733     1
   1727   1734     1
   1728   3508     1
   1728   1733     1
   1728   1734     1
   1732   3500     1
   1732   3501     1
   1733   3499     1
   1734   3499     1
   1735   3530     1
   1735   3531     1
   1736   3529     1
   1737   3529     1
   1740   1754     1
   1740   1755     1
   1740   1757     1
   1740   1758     1
   1740   1751     1
   1740   1752     1
   1741   1745     1
   1741   1746     1
   1741   1748     1
   1741   1749     1
   1741   1766     1
   1741   1767     1
   1742   1744     1
   1742   1747     1
   1742   1769     1
   1742   1765     1
   1742   1754     1
   1742   1755     1
   1743   1744     1
   1743   1747     1
   1743   1769     1
   1743   1765     1
   1743   1754     1
   1743   1755     1
   1744   1748     1
   1744   1749     1
   1744   1763     1
   1744   1764     1
   1745   1747     1
   1745   1769     1
   1745   1762     1
   1745   1757     1
   1745   1758     1
   1746   1747     1
   1746   1769     1
   1746   1762     1
   1746   1757     1
   1746   1758     1
   1747   1760     1
   1747   1761     1
   1748   1769     1
   1748   1759     1
   1748   1751     1
   1748   1752     1
   1749   1769     1
   1749   1759     1
   1749   1751     1
   1749   1752     1
   1750   1769     1
   1751   1768     1
   1751   1760     1
   1751   1761     1
   1752   1768     1
   1752   1760     1
   1752   1761     1
   1753   1769     1
   1754   3598     1
   1754   1766     1
   1754   1767     1
   1755   3598     1
   1755   1766     1
   1755   1767     1
   1756   1769     1
   1757   3568     1
   1757   1763     1
   1757   1764     1
   1758   3568     1
   1758   1763     1
   1758   1764     1
   1762   3560     1
   1762   3561     1
   1763   3559     1
   1764   3559     1
   1765   3590     1
   1765   3591     1
   1766   3589     1
   1767   3589     1
   1770   1784     1
   1770   1785     1
   1770   1787     1
   1770   1788     1
   1770   1781     1
   1770   1782     1
   1771   1775     1
   1771   1776     1
   1771   1778     1
   1771   1779     1
   1771   1796     1
   1771   1797     1
   1772   1774     1
   1772   1777     1
   1772   1799     1
   1772   1795     1
   1772   1784     1
   1772   1785     1
   1773   1774     1
   1773   1777     1
   1773   1799     1
   1773   1795     1
   1773   1784     1
   1773   1785     1
   1774   1778     1
   1774   1779     1
   1774   1793     1
   1774   1794     1
   1775   1777     1
   1775   1799     1
   1775   1792     1
   1775   1787     1
   1775   1788     1
   1776   1777     1
   1776   1799     1
   1776   1792     1
   1776   1787     1
   1776   1788     1
   1777   1790     1
   1777   1791     1
   1778   1799     1
   1778   1789     1
   1778   1781     1
   1778   1782     1
   1779   1799     1
   1779   1789     1
   1779   1781     1
   1779   1782     1
   1780   1799     1
   1781   1798     1
   1781   1790     1
   1781   1791     1
   1782   1798     1
   1782   1790     1
   1782   1791     1
   1783   1799     1
   1784   3658     1
   1784   1796     1
   1784   1797     1
   1785   3658     1
   1785   1796     1
   1785   1797     1
   1786   1799     1
   1787   3628     1
   1787   1793     1
   1787   1794     1
   1788   3628     1
   1788   1793     1
   1788   1794     1
   1792   3620     1
   1792   3621     1
   1793   3619     1
   1794   3619     1
   1795   3650     1
   1795   3651     1
   1796   3649     1
   1797   3649     1
   1800   1814     1
   1800   1815     1
   1800   1817     1
   1800   1818     1
   1800   1811     1
   1800   1812     1
   1801   1805     1
   1801   1806     1
   1801   1808     1
   1801   1809     1
   1801   1826     1
   1801   1827     1
   1802   1804     1
   1802   1807     1
   1802   1829     1
   1802   1825     1
   1802   1814     1
   1802   1815     1
   1803   1804     1
   1803   1807     1
   1803   1829     1
   1803   1825     1
   1803   1814     1
   1803   1815     1
   1804   1808     1
   1804   1809     1
   1804   1823     1
   1804   1824     1
   1805   1807     1
   1805   1829     1
   1805   1822     1
   1805   1817     1
   1805   1818     1
   1806   1807     1
   1806   1829     1
   1806   1822     1
   1806   1817     1
   1806   1818     1
   1807   1820     1
   1807   1821     1
   1808   1829     1
   1808   1819     1
   1808   1811     1
   1808   1812     1
   1809   1829     1
   1809   1819     1
   1809   1811     1
   1809   1812     1
   1810   1829     1
   1811   1828     1
   1811   1820     1
   1811   1821     1
   1812   1828     1
   1812   1820     1
   1812   1821     1
   1813   1829     1
   1814   3718     1
   1814   1826     1
   1814   1827     1
   1815   3718     1
   1815   1826     1
   1815   1827     1
   1816   1829     1
   1817   3688     1
   1817   1823     1
   1817   1824     1
   1818   3688     1
   1818   1823     1
   1818   1824     1
   1822   3680     1
   1822   3681     1
   1823   3679     1
   1824   3679     1
   1825   3710     1
   1825   3711     1
   1826   3709     1
   1827   3709     1
   1830   1844     1
   1830   1845     1
   1830   1847     1
   1830   1848     1
   1830   1841     1
   1830   1842     1
   1831   1835     1
   1831   1836     1
   1831   1838     1
   1831   1839     1
   1831   1856     1
   1831   1857     1
   1832   1834     1
   1832   1837     1
   1832   1859     1
   1832   1855     1
   1832   1844     1
   1832   1845     1
   1833   1834     1
   1833   1837     1
   1833   1859     1
   1833   1855     1
   1833   1844     1
   1833   1845     1
   1834   1838     1
   1834   1839     1
   1834   1853     1
   1834   1854     1
   1835   1837     1
   1835   1859     1
   1835   1852     1
   1835   1847     1
   1835   1848     1
   1836   1837     1
   1836   1859     1
   1836   1852     1
   1836   1847     1
   1836   1848     1
   1837   1850     1
   1837   1851     1
   1838   1859     1
   1838   1849     1
   1838   1841     1
   1838   1842     1
   1839   1859     1
   1839   1849     1
   1839   1841     1
   1839   1842     1
   1840   1859     1
   1841   1858     1
   1841   1850     1
   1841   1851     1
   1842   1858     1
   1842   1850     1
   1842   1851     1
   1843   1859     1
   1844   3778     1
   1844   1856     1
   1844   1857     1
   1845   3778     1
   1845   1856     1
   1845   1857     1
   1846   1859     1
   1847   3748     1
   1847   1853     1
   1847   1854     1
   1848   3748     1
   1848   1853     1
   1848   1854     1
   1852   3740     1
   1852   3741     1
   1853   3739     1
   1854   3739     1
   1855   3770     1
   1855   3771     1
   1856   3769     1
   1857   3769     1
   1860   1874     1
   1860   1875     1
   1860   1877     1
   1860   1878     1
   1860   1871     1
   1860   1872     1
   1861   1865     1
   1861   1866     1
   1861   1868     1
   1861   1869     1
   1861   1886     1
   1861   1887     1
   1862   1864     1
   1862   1867     1
   1862   1889     1
   1862   1885     1
   1862   1874     1
   1862   1875     1
   1863   1864     1
   1863   1867     1
   1863   1889     1
   1863   1885     1
   1863   1874     1
   1863   1875     1
   1864   1868     1
   1864   1869     1
   1864   1883     1
   1864   1884     1
   1865   1867     1
   1865   1889     1
   1865   1882     1
   1865   1877     1
   1865   1878     1
   1866   1867     1
   1866   1889     1
   1866   1882     1
   1866   1877     1
   1866   1878     1
   1867   1880     1
   1867   1881     1
   1868   1889     1
   1868   1879     1
   1868   1871     1
   1868   1872     1
   1869   1889     1
   1869   1879     1
   1869   1871     1
   1869   1872     1
   1870   1889     1
   1871   1888     1
   1871   1880     1
   1871   1881     1
   1872   1888     1
   1872   1880     1
   1872   1881     1
   1873   1889     1
   1874   3838     1
   1874   1886     1
   1874   1887     1
   1875   3838     1
   1875   1886     1
   1875   1887     1
   1876   1889     1
   1877   3808     1
   1877   1883     1
   1877   1884     1
   1878   3808     1
   1878   1883     1
   1878   1884     1
   1882   3800     1
   1882   3801     1
   1883   3799     1
   1884   3799     1
   1885   3830     1
   1885   3831     1
   1886   3829     1
   1887   3829     1
   1890   1904     1
   1890   1905     1
   1890   1907     1
   1890   1908     1
   1890   1901     1
   1890   1902     1
   1891   1895     1
   1891   1896     1
   1891   1898     1
   1891   1899     1
   1891   1916     1
   1891   1917     1
   1892   1894     1
   1892   1897     1
   1892   1919     1
   1892   1915     1
   1892   1904     1
   1892   1905     1
   1893   1894     1
   1893   1897     1
   1893   1919     1
   1893   1915     1
   1893   1904     1
   1893   1905     1
   1894   1898     1
   1894   1899     1
   1894   1913     1
   1894   1914     1
   1895   1897     1
   1895   1919     1
   1895   1912     1
   1895   1907     1
   1895   1908     1
   1896   1897     1
   1896   1919     1
   1896   1912     1
   1896   1907     1
   1896   1908     1
   1897   1910     1
   1897   1911     1
   1898   1919     1
   1898   1909     1
   1898   1901     1
   1898   1902     1
   1899   1919     1
   1899   1909     1
   1899   1901     1
   1899   1902     1
   1900   1919     1
   1901   1918     1
   1901   1910     1
   1901   1911     1
   1902   1918     1
   1902   1910     1
   1902   1911     1
   1903   1919     1
   1904   3898     1
   1904   1916     1
   1904   1917     1
   1905   3898     1
   1905   1916     1
   1905   1917     1
   1906   1919     1
   1907   3868     1
   1907   1913     1
   1907   1914     1
   1908   3868     1
   1908   1913     1
   1908   1914     1
   1912   3860     1
   1912   3861     1
   1913   3859     1
   1914   3859     1
   1915   3890     1
   1915   3891     1
   1916   3889     1
   1917   3889     1
   1920   1934     1
   1920   1935     1
   1920   1937     1
   1920   1938     1
   1920   1931     1
   1920   1932     1
   1921   1925     1
   1921   1926     1
   1921   1928     1
   1921   1929     1
   1921   1946     1
   1921   1947     1
   1922   1924     1
   1922   1927     1
   1922   1949     1
   1922   1945     1
   1922   1934     1
   1922   1935     1
   1923   1924     1
   1923   1927     1
   1923   1949     1
   1923   1945     1
   1923   1934     1
   1923   1935     1
   1924   1928     1
   1924   1929     1
   1924   1943     1
   1924   1944     1
   1925   1927     1
   1925   1949     1
   1925   1942     1
   1925   1937     1
   1925   1938     1
   1926   1927     1
   1926   1949     1
   1926   1942     1
   1926   1937     1
   1926   1938     1
   1927   1940     1
   1927   1941     1
   1928   1949     1
   1928   1939     1
   1928   1931     1
   1928   1932     1
   1929   1949     1
   1929   1939     1
   1929   1931     1
   1929   1932     1
   1930   1949     1
   1931   1948     1
   1931   1940     1
   1931   1941     1
   1932   1948     1
   1932   1940     1
   1932   1941     1
   1933   1949     1
   1934   3958     1
   1934   1946     1
   1934   1947     1
   1935   3958     1
   1935   1946     1
   1935   1947     1
   1936   1949     1
   1937   3928     1
   1937   1943     1
   1937   1944     1
   1938   3928     1
   1938   1943     1
   1938   1944     1
   1942   3920     1
   1942   3921     1
   1943   3919     1
   1944   3919     1
   1945   3950     1
   1945   3951     1
   1946   3949     1
   1947   3949     1
   1950   1964     1
   1950   1965     1
   1950   1967     1
   1950   1968     1
   1950   1961     1
   1950   1962     1
   1951   1955     1
   1951   1956     1
   1951   1958     1
   1951   1959     1
   1951   1976     1
   1951   1977     1
   1952   1954     1
   1952   1957     1
   1952   1979     1
   1952   1975     1
   1952   1964     1
   1952   1965     1
   1953   1954     1
   1953   1957     1
   1953   1979     1
   1953   1975     1
   1953   1964     1
   1953   1965     1
   1954   1958     1
   1954   1959     1
   1954   1973     1
   1954   1974     1
   1955   1957     1
   1955   1979     1
   1955   1972     1
   1955   1967     1
   1955   1968     1
   1956   1957     1
   1956   1979     1
   1956   1972     1
   1956   1967     1
   1956   1968     1
   1957   1970     1
   1957   1971     1
   1958   1979     1
   1958   1969     1
   1958   1961     1
   1958   1962     1
   1959   1979     1
   1959   1969     1
   1959   1961     1
   1959   1962     1
   1960   1979     1
   1961   1978     1
   1961   1970     1
   1961   1971     1
   1962   1978     1
   1962   1970     1
   1962   1971     1
   1963   1979     1
   1964   4018     1
   1964   1976     1
   1964   1977     1
   1965   4018     1
   1965   1976     1
   1965   1977     1
   1966   1979     1
   1967   3988     1
   1967   1973     1
   1967   1974     1
   1968   3988     1
   1968   1973     1
   1968   1974     1
   1972   3980     1
   1972   3981     1
   1973   3979     1
   1974   3979     1
   1975   4010     1
   1975   4011     1
   1976   4009     1
   1977   4009     1
   1980   1994     1
   1980   1995     1
   1980   1997     1
   1980   1998     1
   1980   1991     1
   1980   1992     1
   1981   1985     1
   1981   1986     1
   1981   1988     1
   1981   1989     1
   1981   2006     1
   1981   2007     1
   1982   1984     1
   1982   1987     1
   1982   2009     1
   1982   2005     1
   1982   1994     1
   1982   1995     1
   1983   1984     1
   1983   1987     1
   1983   2009     1
   1983   2005     1
   1983   1994     1
   1983   1995     1
   1984   1988     1
   1984   1989     1
   1984   2003     1
   1984   2004     1
   1985   1987     1
   1985   2009     1
   1985   2002     1
   1985   1997     1
   1985   1998     1
   1986   1987     1
   1986   2009     1
   1986   2002     1
   1986   1997     1
   1986   1998     1
   1987   2000     1
   1987   2001     1
   1988   2009     1
   1988   1999     1
   1988   1991     1
   1988   1992     1
   1989   2009     1
   1989   1999     1
   1989   1991     1
   1989   1992     1
   1990   2009     1
   1991   2008     1
   1991   2000     1
   1991   2001     1
   1992   2008     1
   1992   2000     1
   1992   2001     1
   1993   2009     1
   1994   4078     1
   1994   2006     1
   1994   2007     1
   1995   4078     1
   1995   2006     1
   1995   2007     1
   1996   2009     1
   1997   4048     1
   1997   2003     1
   1997   2004     1
   1998   4048     1
   1998   2003     1
   1998   2004     1
   2002   4040     1
   2002   4041     1
   2003   4039     1
   2004   4039     1
   2005   4070     1
   2005   4071     1
   2006   4069     1
   2007   4069     1
   2010   2024     1
   2010   2025     1
   2010   2027     1
   2010   2028     1
   2010   2021     1
   2010   2022     1
   2011   2015     1
   2011   2016     1
   2011   2018     1
   2011   2019     1
   2011   2036     1
   2011   2037     1
   2012   2014     1
   2012   2017     1
   2012   2039     1
   2012   2035     1
   2012   2024     1
   2012   2025     1
   2013   2014     1
   2013   2017     1
   2013   2039     1
   2013   2035     1
   2013   2024     1
   2013   2025     1
   2014   2018     1
   2014   2019     1
   2014   2033     1
   2014   2034     1
   2015   2017     1
   2015   2039     1
   2015   2032     1
   2015   2027     1
   2015   2028     1
   2016   2017     1
   2016   2039     1
   2016   2032     1
   2016   2027     1
   2016   2028     1
   2017   2030     1
   2017   2031     1
   2018   2039     1
   2018   2029     1
   2018   2021     1
   2018   2022     1
   2019   2039     1
   2019   2029     1
   2019   2021     1
   2019   2022     1
   2020   2039     1
   2021   2038     1
   2021   2030     1
   2021   2031     1
   2022   2038     1
   2022   2030     1
   2022   2031     1
   2023   2039     1
   2024   4138     1
   2024   2036     1
   2024   2037     1
   2025   4138     1
   2025   2036     1
   2025   2037     1
   2026   2039     1
   2027   4108     1
   2027   2033     1
   2027   2034     1
   2028   4108     1
   2028   2033     1
   2028   2034     1
   2032   4100     1
   2032   4101     1
   2033   4099     1
   2034   4099     1
   2035   4130     1
   2035   4131     1
   2036   4129     1
   2037   4129     1
   2040   2054     1
   2040   2055     1
   2040   2057     1
   2040   2058     1
   2040   2051     1
   2040   2052     1
   2041   2045     1
   2041   2046     1
   2041   2048     1
   2041   2049     1
   2041   2066     1
   2041   2067     1
   2042   2044     1
   2042   2047     1
   2042   2069     1
   2042   2065     1
   2042   2054     1
   2042   2055     1
   2043   2044     1
   2043   2047     1
   2043   2069     1
   2043   2065     1
   2043   2054     1
   2043   2055     1
   2044   2048     1
   2044   2049     1
   2044   2063     1
   2044   2064     1
   2045   2047     1
   2045   2069     1
   2045   2062     1
   2045   2057     1
   2045   2058     1
   2046   2047     1
   2046   2069     1
   2046   2062     1
   2046   2057     1
   2046   2058     1
   2047   2060     1
   2047   2061     1
   2048   2069     1
   2048   2059     1
   2048   2051     1
   2048   2052     1
   2049   2069     1
   2049   2059     1
   2049   2051     1
   2049   2052     1
   2050   2069     1
   2051   2068     1
   2051   2060     1
   2051   2061     1
   2052   2068     1
   2052   2060     1
   2052   2061     1
   2053   2069     1
   2054   4198     1
   2054   2066     1
   2054   2067     1
   2055   4198     1
   2055   2066     1
   2055   2067     1
   2056   2069     1
   2057   4168     1
   2057   2063     1
   2057   2064     1
   2058   4168     1
   2058   2063     1
   2058   2064     1
   2062   4160     1
   2062   4161     1
   2063   4159     1
   2064   4159     1
   2065   4190     1
   2065   4191     1
   2066   4189     1
   2067   4189     1
   2070   2084     1
   2070   2085     1
   2070   2087     1
   2070   2088     1
   2070   2081     1
   2070   2082     1
   2071   2075     1
   2071   2076     1
   2071   2078     1
   2071   2079     1
   2071   2096     1
   2071   2097     1
   2072   2074     1
   2072   2077     1
   2072   2099     1
   2072   2095     1
   2072   2084     1
   2072   2085     1
   2073   2074     1
   2073   2077     1
   2073   2099     1
   2073   2095     1
   2073   2084     1
   2073   2085     1
   2074   2078     1
   2074   2079     1
   2074   2093     1
   2074   2094     1
   2075   2077     1
   2075   2099     1
   2075   2092     1
   2075   2087     1
   2075   2088     1
   2076   2077     1
   2076   2099     1
   2076   2092     1
   2076   2087     1
   2076   2088     1
   2077   2090     1
   2077   2091     1
   2078   2099     1
   2078   2089     1
   2078   2081     1
   2078   2082     1
   2079   2099     1
   2079   2089     1
   2079   2081     1
   2079   2082     1
   2080   2099     1
   2081   2098     1
   2081   2090     1
   2081   2091     1
   2082   2098     1
   2082   2090     1
   2082   2091     1
   2083   2099     1
   2084   4258     1
   2084   2096     1
   2084   2097     1
   2085   4258     1
   2085   2096     1
   2085   2097     1
   2086   2099     1
   2087   4228     1
   2087   2093     1
   2087   2094     1
   2088   4228     1
   2088   2093     1
   2088   2094     1
   2092   4220     1
   2092   4221     1
   2093   4219     1
   2094   4219     1
   2095   4250     1
   2095   4251     1
   2096   4249     1
   2097   4249     1
   2100   2114     1
   2100   2115     1
   2100   2117     1
   2100   2118     1
   2100   2111     1
   2100   2112     1
   2101   2105     1
   2101   2106     1
   2101   2108     1
   2101   2109     1
   2101   2126     1
   2101   2127     1
   2102   2104     1
   2102   2107     1
   2102   2129     1
   2102   2125     1
   2102   2114     1
   2102   2115     1
   2103   2104     1
   2103   2107     1
   2103   2129     1
   2103   2125     1
   2103   2114     1
   2103   2115     1
   2104   2108     1
   2104   2109     1
   2104   2123     1
   2104   2124     1
   2105   2107     1
   2105   2129     1
   2105   2122     1
   2105   2117     1
   2105   2118     1
   2106   2107     1
   2106   2129     1
   2106   2122     1
   2106   2117     1
   2106   2118     1
   2107   2120     1
   2107   2121     1
   2108   2129     1
   2108   2119     1
   2108   2111     1
   2108   2112     1
   2109   2129     1
   2109   2119     1
   2109   2111     1
   2109   2112     1
   2110   2129     1
   2111   2128     1
   2111   2120     1
   2111   2121     1
   2112   2128     1
   2112   2120     1
   2112   2121     1
   2113   2129     1
   2114   4318     1
   2114   2126     1
   2114   2127     1
   2115   4318     1
   2115   2126     1
   2115   2127     1
   2116   2129     1
   2117   4288     1
   2117   2123     1
   2117   2124     1
   2118   4288     1
   2118   2123     1
   2118   2124     1
   2122   4280     1
   2122   4281     1
   2123   4279     1
   2124   4279     1
   2125   4310     1
   2125   4311     1
   2126   4309     1
   2127   4309     1
   2130   2144     1
   2130   2145     1
   2130   2147     1
   2130   2148     1
   2130   2141     1
   2130   2142     1
   2131   2135     1
   2131   2136     1
   2131   2138     1
   2131   2139     1
   2131   2156     1
   2131   2157     1
   2132   2134     1
   2132   2137     1
   2132   2159     1
   2132   2155     1
   2132   2144     1
   2132   2145     1
   2133   2134     1
   2133   2137     1
   2133   2159     1
   2133   2155     1
   2133   2144     1
   2133   2145     1
   2134   2138     1
   2134   2139     1
   2134   2153     1
   2134   2154     1
   2135   2137     1
   2135   2159     1
   2135   2152     1
   2135   2147     1
   2135   2148     1
   2136   2137     1
   2136   2159     1
   2136   2152     1
   2136   2147     1
   2136   2148     1
   2137   2150     1
   2137   2151     1
   2138   2159     1
   2138   2149     1
   2138   2141     1
   2138   2142     1
   2139   2159     1
   2139   2149     1
   2139   2141     1
   2139   2142     1
   2140   2159     1
   2141   2158     1
   2141   2150     1
   2141   2151     1
   2142   2158     1
   2142   2150     1
   2142   2151     1
   2143   2159     1
   2144   4378     1
   2144   2156     1
   2144   2157     1
   2145   4378     1
   2145   2156     1
   2145   2157     1
   2146   2159     1
   2147   4348     1
   2147   2153     1
   2147   2154     1
   2148   4348     1
   2148   2153     1
   2148   2154     1
   2152   4340     1
   2152   4341     1
   2153   4339     1
   2154   4339     1
   2155   4370     1
   2155   4371     1
   2156   4369     1
   2157   4369     1
   2160   2174     1
   2160   2175     1
   2160   2177     1
   2160   2178     1
   2160   2171     1
   2160   2172     1
   2161   2165     1
   2161   2166     1
   2161   2168     1
   2161   2169     1
   2161   2186     1
   2161   2187     1
   2162   2164     1
   2162   2167     1
   2162   2189     1
   2162   2185     1
   2162   2174     1
   2162   2175     1
   2163   2164     1
   2163   2167     1
   2163   2189     1
   2163   2185     1
   2163   2174     1
   2163   2175     1
   2164   2168     1
   2164   2169     1
   2164   2183     1
   2164   2184     1
   2165   2167     1
   2165   2189     1
   2165   2182     1
   2165   2177     1
   2165   2178     1
   2166   2167     1
   2166   2189     1
   2166   2182     1
   2166   2177     1
   2166   2178     1
   2167   2180     1
   2167   2181     1
   2168   2189     1
   2168   2179     1
   2168   2171     1
   2168   2172     1
   2169   2189     1
   2169   2179     1
   2169   2171     1
   2169   2172     1
   2170   2189     1
   2171   2188     1
   2171   2180     1
   2171   2181     1
   2172   2188     1
   2172   2180     1
   2172   2181     1
   2173   2189     1
   2174   4438     1
   2174   2186     1
   2174   2187     1
   2175   4438     1
   2175   2186     1
   2175   2187     1
   2176   2189     1
   2177   4408     1
   2177   2183     1
   2177   2184     1
   2178   4408     1
   2178   2183     1
   2178   2184     1
   2182   4400     1
   2182   4401     1
   2183   4399     1
   2184   4399     1
   2185   4430     1
   2185   4431     1
   2186   4429     1
   2187   4429     1
   2190   2204     1
   2190   2205     1
   2190   2207     1
   2190   2208     1
   2190   2201     1
   2190   2202     1
   2191   2195     1
   2191   2196     1
   2191   2198     1
   2191   2199     1
   2191   2216     1
   2191   2217     1
   2192   2194     1
   2192   2197     1
   2192   2219     1
   2192   2215     1
   2192   2204     1
   2192   2205     1
   2193   2194     1
   2193   2197     1
   2193   2219     1
   2193   2215     1
   2193   2204     1
   2193   2205     1
   2194   2198     1
   2194   2199     1
   2194   2213     1
   2194   2214     1
   2195   2197     1
   2195   2219     1
   2195   2212     1
   2195   2207     1
   2195   2208     1
   2196   2197     1
   2196   2219     1
   2196   2212     1
   2196   2207     1
   2196   2208     1
   2197   2210     1
   2197   2211     1
   2198   2219     1
   2198   2209     1
   2198   2201     1
   2198   2202     1
   2199   2219     1
   2199   2209     1
   2199   2201     1
   2199   2202     1
   2200   2219     1
   2201   2218     1
   2201   2210     1
   2201   2211     1
   2202   2218     1
   2202   2210     1
   2202   2211     1
   2203   2219     1
   2204   4498     1
   2204   2216     1
   2204   2217     1
   2205   4498     1
   2205   2216     1
   2205   2217     1
   2206   2219     1
   2207   4468     1
   2207   2213     1
   2207   2214     1
   2208   4468     1
   2208   2213     1
   2208   2214     1
   2212   4460     1
   2212   4461     1
   2213   4459     1
   2214   4459     1
   2215   4490     1
   2215   4491     1
   2216   4489     1
   2217   4489     1
   2220   2234     1
   2220   2235     1
   2220   2237     1
   2220   2238     1
   2220   2231     1
   2220   2232     1
   2221   2225     1
   2221   2226     1
   2221   2228     1
   2221   2229     1
   2221   2246     1
   2221   2247     1
   2222   2224     1
   2222   2227     1
   2222   2249     1
   2222   2245     1
   2222   2234     1
   2222   2235     1
   2223   2224     1
   2223   2227     1
   2223   2249     1
   2223   2245     1
   2223   2234     1
   2223   2235     1
   2224   2228     1
   2224   2229     1
   2224   2243     1
   2224   2244     1
   2225   2227     1
   2225   2249     1
   2225   2242     1
   2225   2237     1
   2225   2238     1
   2226   2227     1
   2226   2249     1
   2226   2242     1
   2226   2237     1
   2226   2238     1
   2227   2240     1
   2227   2241     1
   2228   2249     1
   2228   2239     1
   2228   2231     1
   2228   2232     1
   2229   2249     1
   2229   2239     1
   2229   2231     1
   2229   2232     1
   2230   2249     1
   2231   2248     1
   2231   2240     1
   2231   2241     1
   2232   2248     1
   2232   2240     1
   2232   2241     1
   2233   2249     1
   2234   4558     1
   2234   2246     1
   2234   2247     1
   2235   4558     1
   2235   2246     1
   2235   2247     1
   2236   2249     1
   2237   4528     1
   2237   2243     1
   2237   2244     1
   2238   4528     1
   2238   2243     1
   2238   2244     1
   2242   4520     1
   2242   4521     1
   2243   4519     1
   2244   4519     1
   2245   4550     1
   2245   4551     1
   2246   4549     1
   2247   4549     1
   2250   2264     1
   2250   2265     1
   2250   2267     1
   2250   2268     1
   2250   2261     1
   2250   2262     1
   2251   2255     1
   2251   2256     1
   2251   2258     1
   2251   2259     1
   2251   2276     1
   2251   2277     1
   2252   2254     1
   2252   2257     1
   2252   2279     1
   2252   2275     1
   2252   2264     1
   2252   2265     1
   2253   2254     1
   2253   2257     1
   2253   2279     1
   2253   2275     1
   2253   2264     1
   2253   2265     1
   2254   2258     1
   2254   2259     1
   2254   2273     1
   2254   2274     1
   2255   2257     1
   2255   2279     1
   2255   2272     1
   2255   2267     1
   2255   2268     1
   2256   2257     1
   2256   2279     1
   2256   2272     1
   2256   2267     1
   2256   2268     1
   2257   2270     1
   2257   2271     1
   2258   2279     1
   2258   2269     1
   2258   2261     1
   2258   2262     1
   2259   2279     1
   2259   2269     1
   2259   2261     1
   2259   2262     1
   2260   2279     1
   2261   2278     1
   2261   2270     1
   2261   2271     1
   2262   2278     1
   2262   2270     1
   2262   2271     1
   2263   2279     1
   2264   4618     1
   2264   2276     1
   2264   2277     1
   2265   4618     1
   2265   2276     1
   2265   2277     1
   2266   2279     1
   2267   4588     1
   2267   2273     1
   2267   2274     1
   2268   4588     1
   2268   2273     1
   2268   2274     1
   2272   4580     1
   2272   4581     1
   2273   4579     1
   2274   4579     1
   2275   4610     1
   2275   4611     1
   2276   4609     1
   2277   4609     1
   2280   2294     1
   2280   2295     1
   2280   2297     1
   2280   2298     1
   2280   2291     1
   2280   2292     1
   2281   2285     1
   2281   2286     1
   2281   2288     1
   2281   2289     1
   2281   2306     1
   2281   2307     1
   2282   2284     1
   2282   2287     1
   2282   2309     1
   2282   2305     1
   2282   2294     1
   2282   2295     1
   2283   2284     1
   2283   2287     1
   2283   2309     1
   2283   2305     1
   2283   2294     1
   2283   2295     1
   2284   2288     1
   2284   2289     1
   2284   2303     1
   2284   2304     1
   2285   2287     1
   2285   2309     1
   2285   2302     1
   2285   2297     1
   2285   2298     1
   2286   2287     1
   2286   2309     1
   2286   2302     1
   2286   2297     1
   2286   2298     1
   2287   2300     1
   2287   2301     1
   2288   2309     1
   2288   2299     1
   2288   2291     1
   2288   2292     1
   2289   2309     1
   2289   2299     1
   2289   2291     1
   2289   2292     1
   2290   2309     1
   2291   2308     1
   2291   2300     1
   2291   2301     1
   2292   2308     1
   2292   2300     1
   2292   2301     1
   2293   2309     1
   2294   4678     1
   2294   2306     1
   2294   2307     1
   2295   4678     1
   2295   2306     1
   2295   2307     1
   2296   2309     1
   2297   4648     1
   2297   2303     1
   2297   2304     1
   2298   4648     1
   2298   2303     1
   2298   2304     1
   2302   4640     1
   2302   4641     1
   2303   4639     1
   2304   4639     1
   2305   4670     1
   2305   4671     1
   2306   4669     1
   2307   4669     1
   2310   2324     1
   2310   2325     1
   2310   2327     1
   2310   2328     1
   2310   2321     1
   2310   2322     1
   2311   2315     1
   2311   2316     1
   2311   2318     1
   2311   2319     1
   2311   2336     1
   2311   2337     1
   2312   2314     1
   2312   2317     1
   2312   2339     1
   2312   2335     1
   2312   2324     1
   2312   2325     1
   2313   2314     1
   2313   2317     1
   2313   2339     1
   2313   2335     1
   2313   2324     1
   2313   2325     1
   2314   2318     1
   2314   2319     1
   2314   2333     1
   2314   2334     1
   2315   2317     1
   2315   2339     1
   2315   2332     1
   2315   2327     1
   2315   2328     1
   2316   2317     1
   2316   2339     1
   2316   2332     1
   2316   2327     1
   2316   2328     1
   2317   2330     1
   2317   2331     1
   2318   2339     1
   2318   2329     1
   2318   2321     1
   2318   2322     1
   2319   2339     1
   2319   2329     1
   2319   2321     1
   2319   2322     1
   2320   2339     1
   2321   2338     1
   2321   2330     1
   2321   2331     1
   2322   2338     1
   2322   2330     1
   2322   2331     1
   2323   2339     1
   2324   4738     1
   2324   2336     1
   2324   2337     1
   2325   4738     1
   2325   2336     1
   2325   2337     1
   2326   2339     1
   2327   4708     1
   2327   2333     1
   2327   2334     1
   2328   4708     1
   2328   2333     1
   2328   2334     1
   2332   4700     1
   2332   4701     1
   2333   4699     1
   2334   4699     1
   2335   4730     1
   2335   4731     1
   2336   4729     1
   2337   4729     1
   2340   2354     1
   2340   2355     1
   2340   2357     1
   2340   2358     1
   2340   2351     1
   2340   2352     1
   2341   2345     1
   2341   2346     1
   2341   2348     1
   2341   2349     1
   2341   2366     1
   2341   2367     1
   2342   2344     1
   2342   2347     1
   2342   2369     1
   2342   2365     1
   2342   2354     1
   2342   2355     1
   2343   2344     1
   2343   2347     1
   2343   2369     1
   2343   2365     1
   2343   2354     1
   2343   2355     1
   2344   2348     1
   2344   2349     1
   2344   2363     1
   2344   2364     1
   2345   2347     1
   2345   2369     1
   2345   2362     1
   2345   2357     1
   2345   2358     1
   2346   2347     1
   2346   2369     1
   2346   2362     1
   2346   2357     1
   2346   2358     1
   2347   2360     1
   2347   2361     1
   2348   2369     1
   2348   2359     1
   2348   2351     1
   2348   2352     1
   2349   2369     1
   2349   2359     1
   2349   2351     1
   2349   2352     1
   2350   2369     1
   2351   2368     1
   2351   2360     1
   2351   2361     1
   2352   2368     1
   2352   2360     1
   2352   2361     1
   2353   2369     1
   2354   4798     1
   2354   2366     1
   2354   2367     1
   2355   4798     1
   2355   2366     1
   2355   2367     1
   2356   2369     1
   2357   4768     1
   2357   2363     1
   2357   2364     1
   2358   4768     1
   2358   2363     1
   2358   2364     1
   2362   4760     1
   2362   4761     1
   2363   4759     1
   2364   4759     1
   2365   4790     1
   2365   4791     1
   2366   4789     1
   2367   4789     1
   2370   2384     1
   2370   2385     1
   2370   2387     1
   2370   2388     1
   2370   2381     1
   2370   2382     1
   2371   2375     1
   2371   2376     1
   2371   2378     1
   2371   2379     1
   2371   2396     1
   2371   2397     1
   2372   2374     1
   2372   2377     1
   2372   2399     1
   2372   2395     1
   2372   2384     1
   2372   2385     1
   2373   2374     1
   2373   2377     1
   2373   2399     1
   2373   2395     1
   2373   2384     1
   2373   2385     1
   2374   2378     1
   2374   2379     1
   2374   2393     1
   2374   2394     1
   2375   2377     1
   2375   2399     1
   2375   2392     1
   2375   2387     1
   2375   2388     1
   2376   2377     1
   2376   2399     1
   2376   2392     1
   2376   2387     1
   2376   2388     1
   2377   2390     1
   2377   2391     1
   2378   2399     1
   2378   2389     1
   2378   2381     1
   2378   2382     1
   2379   2399     1
   2379   2389     1
   2379   2381     1
   2379   2382     1
   2380   2399     1
   2381   2398     1
   2381   2390     1
   2381   2391     1
   2382   2398     1
   2382   2390     1
   2382   2391     1
   2383   2399     1
   2384   4858     1
   2384   2396     1
   2384   2397     1
   2385   4858     1
   2385   2396     1
   2385   2397     1
   2386   2399     1
   2387   4828     1
   2387   2393     1
   2387   2394     1
   2388   4828     1
   2388   2393     1
   2388   2394     1
   2392   4820     1
   2392   4821     1
   2393   4819     1
   2394   4819     1
   2395   4850     1
   2395   4851     1
   2396   4849     1
   2397   4849     1
   2400   2414     1
   2400   2415     1
   2400   2417     1
   2400   2418     1
   2400   2411     1
   2400   2412     1
   2401   2405     1
   2401   2406     1
   2401   2408     1
   2401   2409     1
   2401   2426     1
   2401   2427     1
   2402   2404     1
   2402   2407     1
   2402   2429     1
   2402   2425     1
   2402   2414     1
   2402   2415     1
   2403   2404     1
   2403   2407     1
   2403   2429     1
   2403   2425     1
   2403   2414     1
   2403   2415     1
   2404   2408     1
   2404   2409     1
   2404   2423     1
   2404   2424     1
   2405   2407     1
   2405   2429     1
   2405   2422     1
   2405   2417     1
   2405   2418     1
   2406   2407     1
   2406   2429     1
   2406   2422     1
   2406   2417     1
   2406   2418     1
   2407   2420     1
   2407   2421     1
   2408   2429     1
   2408   2419     1
   2408   2411     1
   2408   2412     1
   2409   2429     1
   2409   2419     1
   2409   2411     1
   2409   2412     1
   2410   2429     1
   2411   2428     1
   2411   2420     1
   2411   2421     1
   2412   2428     1
   2412   2420     1
   2412   2421     1
   2413   2429     1
   2414   4918     1
   2414   2426     1
   2414   2427     1
   2415   4918     1
   2415   2426     1
   2415   2427     1
   2416   2429     1
   2417   4888     1
   2417   2423     1
   2417   2424     1
   2418   4888     1
   2418   2423     1
   2418   2424     1
   2422   4880     1
   2422   4881     1
   2423   4879     1
   2424   4879     1
   2425   4910     1
   2425   4911     1
   2426   4909     1
   2427   4909     1
   2430   2444     1
   2430   2445     1
   2430   2447     1
   2430   2448     1
   2430   2441     1
   2430   2442     1
   2431   2435     1
   2431   2436     1
   2431   2438     1
   2431   2439     1
   2431   2456     1
   2431   2457     1
   2432   2434     1
   2432   2437     1
   2432   2459     1
   2432   2455     1
   2432   2444     1
   2432   2445     1
   2433   2434     1
   2433   2437     1
   2433   2459     1
   2433   2455     1
   2433   2444     1
   2433   2445     1
   2434   2438     1
   2434   2439     1
   2434   2453     1
   2434   2454     1
   2435   2437     1
   2435   2459     1
   2435   2452     1
   2435   2447     1
   2435   2448     1
   2436   2437     1
   2436   2459     1
   2436   2452     1
   2436   2447     1
   2436   2448     1
   2437   2450     1
   2437   2451     1
   2438   2459     1
   2438   2449     1
   2438   2441     1
   2438   2442     1
   2439   2459     1
   2439   2449     1
   2439   2441     1
   2439   2442     1
   2440   2459     1
   2441   2458     1
   2441   2450     1
   2441   2451     1
   2442   2458     1
   2442   2450     1
   2442   2451     1
   2443   2459     1
   2444   4978     1
   2444   2456     1
   2444   2457     1
   2445   4978     1
   2445   2456     1
   2445   2457     1
   2446   2459     1
   2447   4948     1
   2447   2453     1
   2447   2454     1
   2448   4948     1
   2448   2453     1
   2448   2454     1
   2452   4940     1
   2452   4941     1
   2453   4939     1
   2454   4939     1
   2455   4970     1
   2455   4971     1
   2456   4969     1
   2457   4969     1
   2460   2474     1
   2460   2475     1
   2460   2477     1
   2460   2478     1
   2460   2471     1
   2460   2472     1
   2461   2465     1
   2461   2466     1
   2461   2468     1
   2461   2469     1
   2461   2486     1
   2461   2487     1
   2462   2464     1
   2462   2467     1
   2462   2489     1
   2462   2485     1
   2462   2474     1
   2462   2475     1
   2463   2464     1
   2463   2467     1
   2463   2489     1
   2463   2485     1
   2463   2474     1
   2463   2475     1
   2464   2468     1
   2464   2469     1
   2464   2483     1
   2464   2484     1
   2465   2467     1
   2465   2489     1
   2465   2482     1
   2465   2477     1
   2465   2478     1
   2466   2467     1
   2466   2489     1
   2466   2482     1
   2466   2477     1
   2466   2478     1
   2467   2480     1
   2467   2481     1
   2468   2489     1
   2468   2479     1
   2468   2471     1
   2468   2472     1
   2469   2489     1
   2469   2479     1
   2469   2471     1
   2469   2472     1
   2470   2489     1
   2471   2488     1
   2471   2480     1
   2471   2481     1
   2472   2488     1
   2472   2480     1
   2472   2481     1
   2473   2489     1
   2474   5038     1
   2474   2486     1
   2474   2487     1
   2475   5038     1
   2475   2486     1
   2475   2487     1
   2476   2489     1
   2477   5008     1
   2477   2483     1
   2477   2484     1
   2478   5008     1
   2478   2483     1
   2478   2484     1
   2482   5000     1
   2482   5001     1
   2483   4999     1
   2484   4999     1
   2485   5030     1
   2485   5031     1
   2486   5029     1
   2487   5029     1
   2490   2504     1
   2490   2505     1
   2490   2507     1
   2490   2508     1
   2490   2501     1
   2490   2502     1
   2491   2495     1
   2491   2496     1
   2491   2498     1
   2491   2499     1
   2491   2516     1
   2491   2517     1
   2492   2494     1
   2492   2497     1
   2492   2519     1
   2492   2515     1
   2492   2504     1
   2492   2505     1
   2493   2494     1
   2493   2497     1
   2493   2519     1
   2493   2515     1
   2493   2504     1
   2493   2505     1
   2494   2498     1
   2494   2499     1
   2494   2513     1
   2494   2514     1
   2495   2497     1
   2495   2519     1
   2495   2512     1
   2495   2507     1
   2495   2508     1
   2496   2497     1
   2496   2519     1
   2496   2512     1
   2496   2507     1
   2496   2508     1
   2497   2510     1
   2497   2511     1
   2498   2519     1
   2498   2509     1
   2498   2501     1
   2498   2502     1
   2499   2519     1
   2499   2509     1
   2499   2501     1
   2499   2502     1
   2500   2519     1
   2501   2518     1
   2501   2510     1
   2501   2511     1
   2502   2518     1
   2502   2510     1
   2502   2511     1
   2503   2519     1
   2504   5098     1
   2504   2516     1
   2504   2517     1
   2505   5098     1
   2505   2516     1
   2505   2517     1
   2506   2519     1
   2507   5068     1
   2507   2513     1
   2507   2514     1
   2508   5068     1
   2508   2513     1
   2508   2514     1
   2512   5060     1
   2512   5061     1
   2513   5059     1
   2514   5059     1
   2515   5090     1
   2515   5091     1
   2516   5089     1
   2517   5089     1
   2520   2534     1
   2520   2535     1
   2520   2537     1
   2520   2538     1
   2520   2531     1
   2520   2532     1
   2521   2525     1
   2521   2526     1
   2521   2528     1
   2521   2529     1
   2521   2546     1
   2521   2547     1
   2522   2524     1
   2522   2527     1
   2522   2549     1
   2522   2545     1
   2522   2534     1
   2522   2535     1
   2523   2524     1
   2523   2527     1
   2523   2549     1
   2523   2545     1
   2523   2534     1
   2523   2535     1
   2524   2528     1
   2524   2529     1
   2524   2543     1
   2524   2544     1
   2525   2527     1
   2525   2549     1
   2525   2542     1
   2525   2537     1
   2525   2538     1
   2526   2527     1
   2526   2549     1
   2526   2542     1
   2526   2537     1
   2526   2538     1
   2527   2540     1
   2527   2541     1
   2528   2549     1
   2528   2539     1
   2528   2531     1
   2528   2532     1
   2529   2549     1
   2529   2539     1
   2529   2531     1
   2529   2532     1
   2530   2549     1
   2531   2548     1
   2531   2540     1
   2531   2541     1
   2532   2548     1
   2532   2540     1
   2532   2541     1
   2533   2549     1
   2534   5158     1
   2534   2546     1
   2534   2547     1
   2535   5158     1
   2535   2546     1
   2535   2547     1
   2536   2549     1
   2537   5128     1
   2537   2543     1
   2537   2544     1
   2538   5128     1
   2538   2543     1
   2538   2544     1
   2542   5120     1
   2542   5121     1
   2543   5119     1
   2544   5119     1
   2545   5150     1
   2545   5151     1
   2546   5149     1
   2547   5149     1
   2550   2564     1
   2550   2565     1
   2550   2567     1
   2550   2568     1
   2550   2561     1
   2550   2562     1
   2551   2555     1
   2551   2556     1
   2551   2558     1
   2551   2559     1
   2551   2576     1
   2551   2577     1
   2552   2554     1
   2552   2557     1
   2552   2579     1
   2552   2575     1
   2552   2564     1
   2552   2565     1
   2553   2554     1
   2553   2557     1
   2553   2579     1
   2553   2575     1
   2553   2564     1
   2553   2565     1
   2554   2558     1
   2554   2559     1
   2554   2573     1
   2554   2574     1
   2555   2557     1
   2555   2579     1
   2555   2572     1
   2555   2567     1
   2555   2568     1
   2556   2557     1
   2556   2579     1
   2556   2572     1
   2556   2567     1
   2556   2568     1
   2557   2570     1
   2557   2571     1
   2558   2579     1
   2558   2569     1
   2558   2561     1
   2558   2562     1
   2559   2579     1
   2559   2569     1
   2559   2561     1
   2559   2562     1
   2560   2579     1
   2561   2578     1
   2561   2570     1
   2561   2571     1
   2562   2578     1
   2562   2570     1
   2562   2571     1
   2563   2579     1
   2564   5218     1
   2564   2576     1
   2564   2577     1
   2565   5218     1
   2565   2576     1
   2565   2577     1
   2566   2579     1
   2567   5188     1
   2567   2573     1
   2567   2574     1
   2568   5188     1
   2568   2573     1
   2568   2574     1
   2572   5180     1
   2572   5181     1
   2573   5179     1
   2574   5179     1
   2575   5210     1
   2575   5211     1
   2576   5209     1
   2577   5209     1
   2580   2594     1
   2580   2595     1
   2580   2597     1
   2580   2598     1
   2580   2591     1
   2580   2592     1
   2581   2585     1
   2581   2586     1
   2581   2588     1
   2581   2589     1
   2581   2606     1
   2581   2607     1
   2582   2584     1
   2582   2587     1
   2582   2609     1
   2582   2605     1
   2582   2594     1
   2582   2595     1
   2583   2584     1
   2583   2587     1
   2583   2609     1
   2583   2605     1
   2583   2594     1
   2583   2595     1
   2584   2588     1
   2584   2589     1
   2584   2603     1
   2584   2604     1
   2585   2587     1
   2585   2609     1
   2585   2602     1
   2585   2597     1
   2585   2598     1
   2586   2587     1
   2586   2609     1
   2586   2602     1
   2586   2597     1
   2586   2598     1
   2587   2600     1
   2587   2601     1
   2588   2609     1
   2588   2599     1
   2588   2591     1
   2588   2592     1
   2589   2609     1
   2589   2599     1
   2589   2591     1
   2589   2592     1
   2590   2609     1
   2591   2608     1
   2591   2600     1
   2591   2601     1
   2592   2608     1
   2592   2600     1
   2592   2601     1
   2593   2609     1
   2594   5278     1
   2594   2606     1
   2594   2607     1
   2595   5278     1
   2595   2606     1
   2595   2607     1
   2596   2609     1
   2597   5248     1
   2597   2603     1
   2597   2604     1
   2598   5248     1
   2598   2603     1
   2598   2604     1
   2602   5240     1
   2602   5241     1
   2603   5239     1
   2604   5239     1
   2605   5270     1
   2605   5271     1
   2606   5269     1
   2607   5269     1
   2610   2624     1
   2610   2625     1
   2610   2627     1
   2610   2628     1
   2610   2621     1
   2610   2622     1
   2611   2615     1
   2611   2616     1
   2611   2618     1
   2611   2619     1
   2611   2636     1
   2611   2637     1
   2612   2614     1
   2612   2617     1
   2612   2639     1
   2612   2635     1
   2612   2624     1
   2612   2625     1
   2613   2614     1
   2613   2617     1
   2613   2639     1
   2613   2635     1
   2613   2624     1
   2613   2625     1
   2614   2618     1
   2614   2619     1
   2614   2633     1
   2614   2634     1
   2615   2617     1
   2615   2639     1
   2615   2632     1
   2615   2627     1
   2615   2628     1
   2616   2617     1
   2616   2639     1
   2616   2632     1
   2616   2627     1
   2616   2628     1
   2617   2630     1
   2617   2631     1
   2618   2639     1
   2618   2629     1
   2618   2621     1
   2618   2622     1
   2619   2639     1
   2619   2629     1
   2619   2621     1
   2619   2622     1
   2620   2639     1
   2621   2638     1
   2621   2630     1
   2621   2631     1
   2622   2638     1
   2622   2630     1
   2622   2631     1
   2623   2639     1
   2624   5338     1
   2624   2636     1
   2624   2637     1
   2625   5338     1
   2625   2636     1
   2625   2637     1
   2626   2639     1
   2627   5308     1
   2627   2633     1
   2627   2634     1
   2628   5308     1
   2628   2633     1
   2628   2634     1
   2632   5300     1
   2632   5301     1
   2633   5299     1
   2634   5299     1
   2635   5330     1
   2635   5331     1
   2636   5329     1
   2637   5329     1
   2640   2654     1
   2640   2655     1
   2640   2657     1
   2640   2658     1
   2640   2651     1
   2640   2652     1
   2641   2645     1
   2641   2646     1
   2641   2648     1
   2641   2649     1
   2641   2666     1
   2641   2667     1
   2642   2644     1
   2642   2647     1
   2642   2669     1
   2642   2665     1
   2642   2654     1
   2642   2655     1
   2643   2644     1
   2643   2647     1
   2643   2669     1
   2643   2665     1
   2643   2654     1
   2643   2655     1
   2644   2648     1
   2644   2649     1
   2644   2663     1
   2644   2664     1
   2645   2647     1
   2645   2669     1
   2645   2662     1
   2645   2657     1
   2645   2658     1
   2646   2647     1
   2646   2669     1
   2646   2662     1
   2646   2657     1
   2646   2658     1
   2647   2660     1
   2647   2661     1
   2648   2669     1
   2648   2659     1
   2648   2651     1
   2648   2652     1
   2649   2669     1
   2649   2659     1
   2649   2651     1
   2649   2652     1
   2650   2669     1
   2651   2668     1
   2651   2660     1
   2651   2661     1
   2652   2668     1
   2652   2660     1
   2652   2661     1
   2653   2669     1
   2654   5398     1
   2654   2666     1
   2654   2667     1
   2655   5398     1
   2655   2666     1
   2655   2667     1
   2656   2669     1
   2657   5368     1
   2657   2663     1
   2657   2664     1
   2658   5368     1
   2658   2663     1
   2658   2664     1
   2662   5360     1
   2662   5361     1
   2663   5359     1
   2664   5359     1
   2665   5390     1
   2665   5391     1
   2666   5389     1
   2667   5389     1
   2670   2684     1
   2670   2685     1
   2670   2687     1
   2670   2688     1
   2670   2681     1
   2670   2682     1
   2671   2675     1
   2671   2676     1
   2671   2678     1
   2671   2679     1
   2671   2696     1
   2671   2697     1
   2672   2674     1
   2672   2677     1
   2672   2699     1
   2672   2695     1
   2672   2684     1
   2672   2685     1
   2673   2674     1
   2673   2677     1
   2673   2699     1
   2673   2695     1
   2673   2684     1
   2673   2685     1
   2674   2678     1
   2674   2679     1
   2674   2693     1
   2674   2694     1
   2675   2677     1
   2675   2699     1
   2675   2692     1
   2675   2687     1
   2675   2688     1
   2676   2677     1
   2676   2699     1
   2676   2692     1
   2676   2687     1
   2676   2688     1
   2677   2690     1
   2677   2691     1
   2678   2699     1
   2678   2689     1
   2678   2681     1
   2678   2682     1
   2679   2699     1
   2679   2689     1
   2679   2681     1
   2679   2682     1
   2680   2699     1
   2681   2698     1
   2681   2690     1
   2681   2691     1
   2682   2698     1
   2682   2690     1
   2682   2691     1
   2683   2699     1
   2684   5458     1
   2684   2696     1
   2684   2697     1
   2685   5458     1
   2685   2696     1
   2685   2697     1
   2686   2699     1
   2687   5428     1
   2687   2693     1
   2687   2694     1
   2688   5428     1
   2688   2693     1
   2688   2694     1
   2692   5420     1
   2692   5421     1
   2693   5419     1
   2694   5419     1
   2695   5450     1
   2695   5451     1
   2696   5449     1
   2697   5449     1
   2700   2714     1
   2700   2715     1
   2700   2717     1
   2700   2718     1
   2700   2711     1
   2700   2712     1
   2701   2705     1
   2701   2706     1
   2701   2708     1
   2701   2709     1
   2701   2726     1
   2701   2727     1
   2702   2704     1
   2702   2707     1
   2702   2729     1
   2702   2725     1
   2702   2714     1
   2702   2715     1
   2703   2704     1
   2703   2707     1
   2703   2729     1
   2703   2725     1
   2703   2714     1
   2703   2715     1
   2704   2708     1
   2704   2709     1
   2704   2723     1
   2704   2724     1
   2705   2707     1
   2705   2729     1
   2705   2722     1
   2705   2717     1
   2705   2718     1
   2706   2707     1
   2706   2729     1
   2706   2722     1
   2706   2717     1
   2706   2718     1
   2707   2720     1
   2707   2721     1
   2708   2729     1
   2708   2719     1
   2708   2711     1
   2708   2712     1
   2709   2729     1
   2709   2719     1
   2709   2711     1
   2709   2712     1
   2710   2729     1
   2711   2728     1
   2711   2720     1
   2711   2721     1
   2712   2728     1
   2712   2720     1
   2712   2721     1
   2713   2729     1
   2714   5518     1
   2714   2726     1
   2714   2727     1
   2715   5518     1
   2715   2726     1
   2715   2727     1
   2716   2729     1
   2717   5488     1
   2717   2723     1
   2717   2724     1
   2718   5488     1
   2718   2723     1
   2718   2724     1
   2722   5480     1
   2722   5481     1
   2723   5479     1
   2724   5479     1
   2725   5510     1
   2725   5511     1
   2726   5509     1
   2727   5509     1
   2730   2744     1
   2730   2745     1
   2730   2747     1
   2730   2748     1
   2730   2741     1
   2730   2742     1
   2731   2735     1
   2731   2736     1
   2731   2738     1
   2731   2739     1
   2731   2756     1
   2731   2757     1
   2732   2734     1
   2732   2737     1
   2732   2759     1
   2732   2755     1
   2732   2744     1
   2732   2745     1
   2733   2734     1
   2733   2737     1
   2733   2759     1
   2733   2755     1
   2733   2744     1
   2733   2745     1
   2734   2738     1
   2734   2739     1
   2734   2753     1
   2734   2754     1
   2735   2737     1
   2735   2759     1
   2735   2752     1
   2735   2747     1
   2735   2748     1
   2736   2737     1
   2736   2759     1
   2736   2752     1
   2736   2747     1
   2736   2748     1
   2737   2750     1
   2737   2751     1
   2738   2759     1
   2738   2749     1
   2738   2741     1
   2738   2742     1
   2739   2759     1
   2739   2749     1
   2739   2741     1
   2739   2742     1
   2740   2759     1
   2741   2758     1
   2741   2750     1
   2741   2751     1
   2742   2758     1
   2742   2750     1
   2742   2751     1
   2743   2759     1
   2744   5578     1
   2744   2756     1
   2744   2757     1
   2745   5578     1
   2745   2756     1
   2745   2757     1
   2746   2759     1
   2747   5548     1
   2747   2753     1
   2747   2754     1
   2748   5548     1
   2748   2753     1
   2748   2754     1
   2752   5540     1
   2752   5541     1
   2753   5539     1
   2754   5539     1
   2755   5570     1
   2755   5571     1
   2756   5569     1
   2757   5569     1
   2760   2774     1
   2760   2775     1
   2760   2777     1
   2760   2778     1
   2760   2771     1
   2760   2772     1
   2761   2765     1
   2761   2766     1
   2761   2768     1
   2761   2769     1
   2761   2786     1
   2761   2787     1
   2762   2764     1
   2762   2767     1
   2762   2789     1
   2762   2785     1
   2762   2774     1
   2762   2775     1
   2763   2764     1
   2763   2767     1
   2763   2789     1
   2763   2785     1
   2763   2774     1
   2763   2775     1
   2764   2768     1
   2764   2769     1
   2764   2783     1
   2764   2784     1
   2765   2767     1
   2765   2789     1
   2765   2782     1
   2765   2777     1
   2765   2778     1
   2766   2767     1
   2766   2789     1
   2766   2782     1
   2766   2777     1
   2766   2778     1
   2767   2780     1
   2767   2781     1
   2768   2789     1
   2768   2779     1
   2768   2771     1
   2768   2772     1
   2769   2789     1
   2769   2779     1
   2769   2771     1
   2769   2772     1
   2770   2789     1
   2771   2788     1
   2771   2780     1
   2771   2781     1
   2772   2788     1
   2772   2780     1
   2772   2781     1
   2773   2789     1
   2774   5638     1
   2774   2786     1
   2774   2787     1
   2775   5638     1
   2775   2786     1
   2775   2787     1
   2776   2789     1
   2777   5608     1
   2777   2783     1
   2777   2784     1
   2778   5608     1
   2778   2783     1
   2778   2784     1
   2782   5600     1
   2782   5601     1
   2783   5599     1
   2784   5599     1
   2785   5630     1
   2785   5631     1
   2786   5629     1
   2787   5629     1
   2790   2804     1
   2790   2805     1
   2790   2807     1
   2790   2808     1
   2790   2801     1
   2790   2802     1
   2791   2795     1
   2791   2796     1
   2791   2798     1
   2791   2799     1
   2791   2816     1
   2791   2817     1
   2792   2794     1
   2792   2797     1
   2792   2819     1
   2792   2815     1
   2792   2804     1
   2792   2805     1
   2793   2794     1
   2793   2797     1
   2793   2819     1
   2793   2815     1
   2793   2804     1
   2793   2805     1
   2794   2798     1
   2794   2799     1
   2794   2813     1
   2794   2814     1
   2795   2797     1
   2795   2819     1
   2795   2812     1
   2795   2807     1
   2795   2808     1
   2796   2797     1
   2796   2819     1
   2796   2812     1
   2796   2807     1
   2796   2808     1
   2797   2810     1
   2797   2811     1
   2798   2819     1
   2798   2809     1
   2798   2801     1
   2798   2802     1
   2799   2819     1
   2799   2809     1
   2799   2801     1
   2799   2802     1
   2800   2819     1
   2801   2818     1
   2801   2810     1
   2801   2811     1
   2802   2818     1
   2802   2810     1
   2802   2811     1
   2803   2819     1
   2804   5698     1
   2804   2816     1
   2804   2817     1
   2805   5698     1
   2805   2816     1
   2805   2817     1
   2806   2819     1
   2807   5668     1
   2807   2813     1
   2807   2814     1
   2808   5668     1
   2808   2813     1
   2808   2814     1
   2812   5660     1
   2812   5661     1
   2813   5659     1
   2814   5659     1
   2815   5690     1
   2815   5691     1
   2816   5689     1
   2817   5689     1
   2820   2834     1
   2820   2835     1
   2820   2837     1
   2820   2838     1
   2820   2831     1
   2820   2832     1
   2821   2825     1
   2821   2826     1
   2821   2828     1
   2821   2829     1
   2821   2846     1
   2821   2847     1
   2822   2824     1
   2822   2827     1
   2822   2849     1
   2822   2845     1
   2822   2834     1
   2822   2835     1
   2823   2824     1
   2823   2827     1
   2823   2849     1
   2823   2845     1
   2823   2834     1
   2823   2835     1
   2824   2828     1
   2824   2829     1
   2824   2843     1
   2824   2844     1
   2825   2827     1
   2825   2849     1
   2825   2842     1
   2825   2837     1
   2825   2838     1
   2826   2827     1
   2826   2849     1
   2826   2842     1
   2826   2837     1
   2826   2838     1
   2827   2840     1
   2827   2841     1
   2828   2849     1
   2828   2839     1
   2828   2831     1
   2828   2832     1
   2829   2849     1
   2829   2839     1
   2829   2831     1
   2829   2832     1
   2830   2849     1
   2831   2848     1
   2831   2840     1
   2831   2841     1
   2832   2848     1
   2832   2840     1
   2832   2841     1
   2833   2849     1
   2834   5758     1
   2834   2846     1
   2834   2847     1
   2835   5758     1
   2835   2846     1
   2835   2847     1
   2836   2849     1
   2837   5728     1
   2837   2843     1
   2837   2844     1
   2838   5728     1
   2838   2843     1
   2838   2844     1
   2842   5720     1
   2842   5721     1
   2843   5719     1
   2844   5719     1
   2845   5750     1
   2845   5751     1
   2846   5749     1
   2847   5749     1
   2850   2864     1
   2850   2865     1
   2850   2867     1
   2850   2868     1
   2850   2861     1
   2850   2862     1
   2851   2855     1
   2851   2856     1
   2851   2858     1
   2851   2859     1
   2851   2876     1
   2851   2877     1
   2852   2854     1
   2852   2857     1
   2852   2879     1
   2852   2875     1
   2852   2864     1
   2852   2865     1
   2853   2854     1
   2853   2857     1
   2853   2879     1
   2853   2875     1
   2853   2864     1
   2853   2865     1
   2854   2858     1
   2854   2859     1
   2854   2873     1
   2854   2874     1
   2855   2857     1
   2855   2879     1
   2855   2872     1
   2855   2867     1
   2855   2868     1
   2856   2857     1
   2856   2879     1
   2856   2872     1
   2856   2867     1
   2856   2868     1
   2857   2870     1
   2857   2871     1
   2858   2879     1
   2858   2869     1
   2858   2861     1
   2858   2862     1
   2859   2879     1
   2859   2869     1
   2859   2861     1
   2859   2862     1
   2860   2879     1
   2861   2878     1
   2861   2870     1
   2861   2871     1
   2862   2878     1
   2862   2870     1
   2862   2871     1
   2863   2879     1
   2864   5818     1
   2864   2876     1
   2864   2877     1
   2865   5818     1
   2865   2876     1
   2865   2877     1
   2866   2879     1
   2867   5788     1
   2867   2873     1
   2867   2874     1
   2868   5788     1
   2868   2873     1
   2868   2874     1
   2872   5780     1
   2872   5781     1
   2873   5779     1
   2874   5779     1
   2875   5810     1
   2875   5811     1
   2876   5809     1
   2877   5809     1
   2880   2894     1
   2880   2895     1
   2880   2897     1
   2880   2898     1
   2880   2891     1
   2880   2892     1
   2881   2885     1
   2881   2886     1
   2881   2888     1
   2881   2889     1
   2881   2906     1
   2881   2907     1
   2882   2884     1
   2882   2887     1
   2882   2909     1
   2882   2905     1
   2882   2894     1
   2882   2895     1
   2883   2884     1
   2883   2887     1
   2883   2909     1
   2883   2905     1
   2883   2894     1
   2883   2895     1
   2884   2888     1
   2884   2889     1
   2884   2903     1
   2884   2904     1
   2885   2887     1
   2885   2909     1
   2885   2902     1
   2885   2897     1
   2885   2898     1
   2886   2887     1
   2886   2909     1
   2886   2902     1
   2886   2897     1
   2886   2898     1
   2887   2900     1
   2887   2901     1
   2888   2909     1
   2888   2899     1
   2888   2891     1
   2888   2892     1
   2889   2909     1
   2889   2899     1
   2889   2891     1
   2889   2892     1
   2890   2909     1
   2891   2908     1
   2891   2900     1
   2891   2901     1
   2892   2908     1
   2892   2900     1
   2892   2901     1
   2893   2909     1
   2894   5878     1
   2894   2906     1
   2894   2907     1
   2895   5878     1
   2895   2906     1
   2895   2907     1
   2896   2909     1
   2897   5848     1
   2897   2903     1
   2897   2904     1
   2898   5848     1
   2898   2903     1
   2898   2904     1
   2902   5840     1
   2902   5841     1
   2903   5839     1
   2904   5839     1
   2905   5870     1
   2905   5871     1
   2906   5869     1
   2907   5869     1
   2910   2924     1
   2910   2925     1
   2910   2927     1
   2910   2928     1
   2910   2921     1
   2910   2922     1
   2911   2915     1
   2911   2916     1
   2911   2918     1
   2911   2919     1
   2911   2936     1
   2911   2937     1
   2912   2914     1
   2912   2917     1
   2912   2939     1
   2912   2935     1
   2912   2924     1
   2912   2925     1
   2913   2914     1
   2913   2917     1
   2913   2939     1
   2913   2935     1
   2913   2924     1
   2913   2925     1
   2914   2918     1
   2914   2919     1
   2914   2933     1
   2914   2934     1
   2915   2917     1
   2915   2939     1
   2915   2932     1
   2915   2927     1
   2915   2928     1
   2916   2917     1
   2916   2939     1
   2916   2932     1
   2916   2927     1
   2916   2928     1
   2917   2930     1
   2917   2931     1
   2918   2939     1
   2918   2929     1
   2918   2921     1
   2918   2922     1
   2919   2939     1
   2919   2929     1
   2919   2921     1
   2919   2922     1
   2920   2939     1
   2921   2938     1
   2921   2930     1
   2921   2931     1
   2922   2938     1
   2922   2930     1
   2922   2931     1
   2923   2939     1
   2924   5938     1
   2924   2936     1
   2924   2937     1
   2925   5938     1
   2925   2936     1
   2925   2937     1
   2926   2939     1
   2927   5908     1
   2927   2933     1
   2927   2934     1
   2928   5908     1
   2928   2933     1
   2928   2934     1
   2932   5900     1
   2932   5901     1
   2933   5899     1
   2934   5899     1
   2935   5930     1
   2935   5931     1
   2936   5929     1
   2937   5929     1
   2940   2954     1
   2940   2955     1
   2940   2957     1
   2940   2958     1
   2940   2951     1
   2940   2952     1
   2941   2945     1
   2941   2946     1
   2941   2948     1
   2941   2949     1
   2941   2966     1
   2941   2967     1
   2942   2944     1
   2942   2947     1
   2942   2969     1
   2942   2965     1
   2942   2954     1
   2942   2955     1
   2943   2944     1
   2943   2947     1
   2943   2969     1
   2943   2965     1
   2943   2954     1
   2943   2955     1
   2944   2948     1
   2944   2949     1
   2944   2963     1
   2944   2964     1
   2945   2947     1
   2945   2969     1
   2945   2962     1
   2945   2957     1
   2945   2958     1
   2946   2947     1
   2946   2969     1
   2946   2962     1
   2946   2957     1
   2946   2958     1
   2947   2960     1
   2947   2961     1
   2948   2969     1
   2948   2959     1
   2948   2951     1
   2948   2952     1
   2949   2969     1
   2949   2959     1
   2949   2951     1
   2949   2952     1
   2950   2969     1
   2951   2968     1
   2951   2960     1
   2951   2961     1
   2952   2968     1
   2952   2960     1
   2952   2961     1
   2953   2969     1
   2954   5998     1
   2954   2966     1
   2954   2967     1
   2955   5998     1
   2955   2966     1
   2955   2967     1
   2956   2969     1
   2957   5968     1
   2957   2963     1
   2957   2964     1
   2958   5968     1
   2958   2963     1
   2958   2964     1
   2962   5960     1
   2962   5961     1
   2963   5959     1
   2964   5959     1
   2965   5990     1
   2965   5991     1
   2966   5989     1
   2967   5989     1
   2970   2984     1
   2970   2985     1
   2970   2987     1
   2970   2988     1
   2970   2981     1
   2970   2982     1
   2971   2975     1
   2971   2976     1
   2971   2978     1
   2971   2979     1
   2971   2996     1
   2971   2997     1
   2972   2974     1
   2972   2977     1
   2972   2999     1
   2972   2995     1
   2972   2984     1
   2972   2985     1
   2973   2974     1
   2973   2977     1
   2973   2999     1
   2973   2995     1
   2973   2984     1
   2973   2985     1
   2974   2978     1
   2974   2979     1
   2974   2993     1
   2974   2994     1
   2975   2977     1
   2975   2999     1
   2975   2992     1
   2975   2987     1
   2975   2988     1
   2976   2977     1
   2976   2999     1
   2976   2992     1
   2976   2987     1
   2976   2988     1
   2977   2990     1
   2977   2991     1
   2978   2999     1
   2978   2989     1
   2978   2981     1
   2978   2982     1
   2979   2999     1
   2979   2989     1
   2979   2981     1
   2979   2982     1
   2980   2999     1
   2981   2998     1
   2981   2990     1
   2981   2991     1
   2982   2998     1
   2982   2990     1
   2982   2991     1
   2983   2999     1
   2984   6058     1
   2984   2996     1
   2984   2997     1
   2985   6058     1
   2985   2996     1
   2985   2997     1
   2986   2999     1
   2987   6028     1
   2987   2993     1
   2987   2994     1
   2988   6028     1
   2988   2993     1
   2988   2994     1
   2992   6020     1
   2992   6021     1
   2993   6019     1
   2994   6019     1
   2995   6050     1
   2995   6051     1
   2996   6049     1
   2997   6049     1
   3000   3014     1
   3000   3015     1
   3000   3017     1
   3000   3018     1
   3000   3011     1
   3000   3012     1
   3001   3005     1
   3001   3006     1
   3001   3008     1
   3001   3009     1
   3001   3026     1
   3001   3027     1
   3002   3004     1
   3002   3007     1
   3002   3029     1
   3002   3025     1
   3002   3014     1
   3002   3015     1
   3003   3004     1
   3003   3007     1
   3003   3029     1
   3003   3025     1
   3003   3014     1
   3003   3015     1
   3004   3008     1
   3004   3009     1
   3004   3023     1
   3004   3024     1
   3005   3007     1
   3005   3029     1
   3005   3022     1
   3005   3017     1
   3005   3018     1
   3006   3007     1
   3006   3029     1
   3006   3022     1
   3006   3017     1
   3006   3018     1
   3007   3020     1
   3007   3021     1
   3008   3029     1
   3008   3019     1
   3008   3011     1
   3008   3012     1
   3009   3029     1
   3009   3019     1
   3009   3011     1
   3009   3012     1
   3010   3029     1
   3011   3028     1
   3011   3020     1
   3011   3021     1
   3012   3028     1
   3012   3020     1
   3012   3021     1
   3013   3029     1
   3014   6118     1
   3014   3026     1
   3014   3027     1
   3015   6118     1
   3015   3026     1
   3015   3027     1
   3016   3029     1
   3017   6088     1
   3017   3023     1
   3017   3024     1
   3018   6088     1
   3018   3023     1
   3018   3024     1
   3022   6080     1
   3022   6081     1
   3023   6079     1
   3024   6079     1
   3025   6110     1
   3025   6111     1
   3026   6109     1
   3027   6109     1
   3030   3044     1
   3030   3045     1
   3030   3047     1
   3030   3048     1
   3030   3041     1
   3030   3042     1
   3031   3035     1
   3031   3036     1
   3031   3038     1
   3031   3039     1
   3031   3056     1
   3031   3057     1
   3032   3034     1
   3032   3037     1
   3032   3059     1
   3032   3055     1
   3032   3044     1
   3032   3045     1
   3033   3034     1
   3033   3037     1
   3033   3059     1
   3033   3055     1
   3033   3044     1
   3033   3045     1
   3034   3038     1
   3034   3039     1
   3034   3053     1
   3034   3054     1
   3035   3037     1
   3035   3059     1
   3035   3052     1
   3035   3047     1
   3035   3048     1
   3036   3037     1
   3036   3059     1
   3036   3052     1
   3036   3047     1
   3036   3048     1
   3037   3050     1
   3037   3051     1
   3038   3059     1
   3038   3049     1
   3038   3041     1
   3038   3042     1
   3039   3059     1
   3039   3049     1
   3039   3041     1
   3039   3042     1
   3040   3059     1
   3041   3058     1
   3041   3050     1
   3041   3051     1
   3042   3058     1
   3042   3050     1
   3042   3051     1
   3043   3059     1
   3044   6178     1
   3044   3056     1
   3044   3057     1
   3045   6178     1
   3045   3056     1
   3045   3057     1
   3046   3059     1
   3047   6148     1
   3047   3053     1
   3047   3054     1
   3048   6148     1
   3048   3053     1
   3048   3054     1
   3052   6140     1
   3052   6141     1
   3053   6139     1
   3054   6139     1
   3055   6170     1
   3055   6171     1
   3056   6169     1
   3057   6169     1
   3060   3074     1
   3060   3075     1
   3060   3077     1
   3060   3078     1
   3060   3071     1
   3060   3072     1
   3061   3065     1
   3061   3066     1
   3061   3068     1
   3061   3069     1
   3061   3086     1
   3061   3087     1
   3062   3064     1
   3062   3067     1
   3062   3089     1
   3062   3085     1
   3062   3074     1
   3062   3075     1
   3063   3064     1
   3063   3067     1
   3063   3089     1
   3063   3085     1
   3063   3074     1
   3063   3075     1
   3064   3068     1
   3064   3069     1
   3064   3083     1
   3064   3084     1
   3065   3067     1
   3065   3089     1
   3065   3082     1
   3065   3077     1
   3065   3078     1
   3066   3067     1
   3066   3089     1
   3066   3082     1
   3066   3077     1
   3066   3078     1
   3067   3080     1
   3067   3081     1
   3068   3089     1
   3068   3079     1
   3068   3071     1
   3068   3072     1
   3069   3089     1
   3069   3079     1
   3069   3071     1
   3069   3072     1
   3070   3089     1
   3071   3088     1
   3071   3080     1
   3071   3081     1
   3072   3088     1
   3072   3080     1
   3072   3081     1
   3073   3089     1
   3074   6238     1
   3074   3086     1
   3074   3087     1
   3075   6238     1
   3075   3086     1
   3075   3087     1
   3076   3089     1
   3077   6208     1
   3077   3083     1
   3077   3084     1
   3078   6208     1
   3078   3083     1
   3078   3084     1
   3082   6200     1
   3082   6201     1
   3083   6199     1
   3084   6199     1
   3085   6230     1
   3085   6231     1
   3086   6229     1
   3087   6229     1
   3090   3104     1
   3090   3105     1
   3090   3107     1
   3090   3108     1
   3090   3101     1
   3090   3102     1
   3091   3095     1
   3091   3096     1
   3091   3098     1
   3091   3099     1
   3091   3116     1
   3091   3117     1
   3092   3094     1
   3092   3097     1
   3092   3119     1
   3092   3115     1
   3092   3104     1
   3092   3105     1
   3093   3094     1
   3093   3097     1
   3093   3119     1
   3093   3115     1
   3093   3104     1
   3093   3105     1
   3094   3098     1
   3094   3099     1
   3094   3113     1
   3094   3114     1
   3095   3097     1
   3095   3119     1
   3095   3112     1
   3095   3107     1
   3095   3108     1
   3096   3097     1
   3096   3119     1
   3096   3112     1
   3096   3107     1
   3096   3108     1
   3097   3110     1
   3097   3111     1
   3098   3119     1
   3098   3109     1
   3098   3101     1
   3098   3102     1
   3099   3119     1
   3099   3109     1
   3099   3101     1
   3099   3102     1
   3100   3119     1
   3101   3118     1
   3101   3110     1
   3101   3111     1
   3102   3118     1
   3102   3110     1
   3102   3111     1
   3103   3119     1
   3104   6298     1
   3104   3116     1
   3104   3117     1
   3105   6298     1
   3105   3116     1
   3105   3117     1
   3106   3119     1
   3107   6268     1
   3107   3113     1
   3107   3114     1
   3108   6268     1
   3108   3113     1
   3108   3114     1
   3112   6260     1
   3112   6261     1
   3113   6259     1
   3114   6259     1
   3115   6290     1
   3115   6291     1
   3116   6289     1
   3117   6289     1
   3120   3134     1
   3120   3135     1
   3120   3137     1
   3120   3138     1
   3120   3131     1
   3120   3132     1
   3121   3125     1
   3121   3126     1
   3121   3128     1
   3121   3129     1
   3121   3146     1
   3121   3147     1
   3122   3124     1
   3122   3127     1
   3122   3149     1
   3122   3145     1
   3122   3134     1
   3122   3135     1
   3123   3124     1
   3123   3127     1
   3123   3149     1
   3123   3145     1
   3123   3134     1
   3123   3135     1
   3124   3128     1
   3124   3129     1
   3124   3143     1
   3124   3144     1
   3125   3127     1
   3125   3149     1
   3125   3142     1
   3125   3137     1
   3125   3138     1
   3126   3127     1
   3126   3149     1
   3126   3142     1
   3126   3137     1
   3126   3138     1
   3127   3140     1
   3127   3141     1
   3128   3149     1
   3128   3139     1
   3128   3131     1
   3128   3132     1
   3129   3149     1
   3129   3139     1
   3129   3131     1
   3129   3132     1
   3130   3149     1
   3131   3148     1
   3131   3140     1
   3131   3141     1
   3132   3148     1
   3132   3140     1
   3132   3141     1
   3133   3149     1
   3134   6358     1
   3134   3146     1
   3134   3147     1
   3135   6358     1
   3135   3146     1
   3135   3147     1
   3136   3149     1
   3137   6328     1
   3137   3143     1
   3137   3144     1
   3138   6328     1
   3138   3143     1
   3138   3144     1
   3142   6320     1
   3142   6321     1
   3143   6319     1
   3144   6319     1
   3145   6350     1
   3145   6351     1
   3146   6349     1
   3147   6349     1
   3150   3164     1
   3150   3165     1
   3150   3167     1
   3150   3168     1
   3150   3161     1
   3150   3162     1
   3151   3155     1
   3151   3156     1
   3151   3158     1
   3151   3159     1
   3151   3176     1
   3151   3177     1
   3152   3154     1
   3152   3157     1
   3152   3179     1
   3152   3175     1
   3152   3164     1
   3152   3165     1
   3153   3154     1
   3153   3157     1
   3153   3179     1
   3153   3175     1
   3153   3164     1
   3153   3165     1
   3154   3158     1
   3154   3159     1
   3154   3173     1
   3154   3174     1
   3155   3157     1
   3155   3179     1
   3155   3172     1
   3155   3167     1
   3155   3168     1
   3156   3157     1
   3156   3179     1
   3156   3172     1
   3156   3167     1
   3156   3168     1
   3157   3170     1
   3157   3171     1
   3158   3179     1
   3158   3169     1
   3158   3161     1
   3158   3162     1
   3159   3179     1
   3159   3169     1
   3159   3161     1
   3159   3162     1
   3160   3179     1
   3161   3178     1
   3161   3170     1
   3161   3171     1
   3162   3178     1
   3162   3170     1
   3162   3171     1
   3163   3179     1
   3164   6418     1
   3164   3176     1
   3164   3177     1
   3165   6418     1
   3165   3176     1
   3165   3177     1
   3166   3179     1
   3167   6388     1
   3167   3173     1
   3167   3174     1
   3168   6388     1
   3168   3173     1
   3168   3174     1
   3172   6380     1
   3172   6381     1
   3173   6379     1
   3174   6379     1
   3175   6410     1
   3175   6411     1
   3176   6409     1
   3177   6409     1
   3180   3194     1
   3180   3195     1
   3180   3197     1
   3180   3198     1
   3180   3191     1
   3180   3192     1
   3181   3185     1
   3181   3186     1
   3181   3188     1
   3181   3189     1
   3181   3206     1
   3181   3207     1
   3182   3184     1
   3182   3187     1
   3182   3209     1
   3182   3205     1
   3182   3194     1
   3182   3195     1
   3183   3184     1
   3183   3187     1
   3183   3209     1
   3183   3205     1
   3183   3194     1
   3183   3195     1
   3184   3188     1
   3184   3189     1
   3184   3203     1
   3184   3204     1
   3185   3187     1
   3185   3209     1
   3185   3202     1
   3185   3197     1
   3185   3198     1
   3186   3187     1
   3186   3209     1
   3186   3202     1
   3186   3197     1
   3186   3198     1
   3187   3200     1
   3187   3201     1
   3188   3209     1
   3188   3199     1
   3188   3191     1
   3188   3192     1
   3189   3209     1
   3189   3199     1
   3189   3191     1
   3189   3192     1
   3190   3209     1
   3191   3208     1
   3191   3200     1
   3191   3201     1
   3192   3208     1
   3192   3200     1
   3192   3201     1
   3193   3209     1
   3194   6478     1
   3194   3206     1
   3194   3207     1
   3195   6478     1
   3195   3206     1
   3195   3207     1
   3196   3209     1
   3197   6448     1
   3197   3203     1
   3197   3204     1
   3198   6448     1
   3198   3203     1
   3198   3204     1
   3202   6440     1
   3202   6441     1
   3203   6439     1
   3204   6439     1
   3205   6470     1
   3205   6471     1
   3206   6469     1
   3207   6469     1
   3210   3224     1
   3210   3225     1
   3210   3227     1
   3210   3228     1
   3210   3221     1
   3210   3222     1
   3211   3215     1
   3211   3216     1
   3211   3218     1
   3211   3219     1
   3211   3236     1
   3211   3237     1
   3212   3214     1
   3212   3217     1
   3212   3239     1
   3212   3235     1
   3212   3224     1
   3212   3225     1
   3213   3214     1
   3213   3217     1
   3213   3239     1
   3213   3235     1
   3213   3224     1
   3213   3225     1
   3214   3218     1
   3214   3219     1
   3214   3233     1
   3214   3234     1
   3215   3217     1
   3215   3239     1
   3215   3232     1
   3215   3227     1
   3215   3228     1
   3216   3217     1
   3216   3239     1
   3216   3232     1
   3216   3227     1
   3216   3228     1
   3217   3230     1
   3217   3231     1
   3218   3239     1
   3218   3229     1
   3218   3221     1
   3218   3222     1
   3219   3239     1
   3219   3229     1
   3219   3221     1
   3219   3222     1
   3220   3239     1
   3221   3238     1
   3221   3230     1
   3221   3231     1
   3222   3238     1
   3222   3230     1
   3222   3231     1
   3223   3239     1
   3224   6538     1
   3224   3236     1
   3224   3237     1
   3225   6538     1
   3225   3236     1
   3225   3237     1
   3226   3239     1
   3227   6508     1
   3227   3233     1
   3227   3234     1
   3228   6508     1
   3228   3233     1
   3228   3234     1
   3232   6500     1
   3232   6501     1
   3233   6499     1
   3234   6499     1
   3235   6530     1
   3235   6531     1
   3236   6529     1
   3237   6529     1
   3240   3254     1
   3240   3255     1
   3240   3257     1
   3240   3258     1
   3240   3251     1
   3240   3252     1
   3241   3245     1
   3241   3246     1
   3241   3248     1
   3241   3249     1
   3241   3266     1
   3241   3267     1
   3242   3244     1
   3242   3247     1
   3242   3269     1
   3242   3265     1
   3242   3254     1
   3242   3255     1
   3243   3244     1
   3243   3247     1
   3243   3269     1
   3243   3265     1
   3243   3254     1
   3243   3255     1
   3244   3248     1
   3244   3249     1
   3244   3263     1
   3244   3264     1
   3245   3247     1
   3245   3269     1
   3245   3262     1
   3245   3257     1
   3245   3258     1
   3246   3247     1
   3246   3269     1
   3246   3262     1
   3246   3257     1
   3246   3258     1
   3247   3260     1
   3247   3261     1
   3248   3269     1
   3248   3259     1
   3248   3251     1
   3248   3252     1
   3249   3269     1
   3249   3259     1
   3249   3251     1
   3249   3252     1
   3250   3269     1
   3251   3268     1
   3251   3260     1
   3251   3261     1
   3252   3268     1
   3252   3260     1
   3252   3261     1
   3253   3269     1
   3254   6598     1
   3254   3266     1
   3254   3267     1
   3255   6598     1
   3255   3266     1
   3255   3267     1
   3256   3269     1
   3257   6568     1
   3257   3263     1
   3257   3264     1
   3258   6568     1
   3258   3263     1
   3258   3264     1
   3262   6560     1
   3262   6561     1
   3263   6559     1
   3264   6559     1
   3265   6590     1
   3265   6591     1
   3266   6589     1
   3267   6589     1
   3270   3284     1
   3270   3285     1
   3270   3287     1
   3270   3288     1
   3270   3281     1
   3270   3282     1
   3271   3275     1
   3271   3276     1
   3271   3278     1
   3271   3279     1
   3271   3296     1
   3271   3297     1
   3272   3274     1
   3272   3277     1
   3272   3299     1
   3272   3295     1
   3272   3284     1
   3272   3285     1
   3273   3274     1
   3273   3277     1
   3273   3299     1
   3273   3295     1
   3273   3284     1
   3273   3285     1
   3274   3278     1
   3274   3279     1
   3274   3293     1
   3274   3294     1
   3275   3277     1
   3275   3299     1
   3275   3292     1
   3275   3287     1
   3275   3288     1
   3276   3277     1
   3276   3299     1
   3276   3292     1
   3276   3287     1
   3276   3288     1
   3277   3290     1
   3277   3291     1
   3278   3299     1
   3278   3289     1
   3278   3281     1
   3278   3282     1
   3279   3299     1
   3279   3289     1
   3279   3281     1
   3279   3282     1
   3280   3299     1
   3281   3298     1
   3281   3290     1
   3281   3291     1
   3282   3298     1
   3282   3290     1
   3282   3291     1
   3283   3299     1
   3284   6658     1
   3284   3296     1
   3284   3297     1
   3285   6658     1
   3285   3296     1
   3285   3297     1
   3286   3299     1
   3287   6628     1
   3287   3293     1
   3287   3294     1
   3288   6628     1
   3288   3293     1
   3288   3294     1
   3292   6620     1
   3292   6621     1
   3293   6619     1
   3294   6619     1
   3295   6650     1
   3295   6651     1
   3296   6649     1
   3297   6649     1
   3300   3314     1
   3300   3315     1
   3300   3317     1
   3300   3318     1
   3300   3311     1
   3300   3312     1
   3301   3305     1
   3301   3306     1
   3301   3308     1
   3301   3309     1
   3301   3326     1
   3301   3327     1
   3302   3304     1
   3302   3307     1
   3302   3329     1
   3302   3325     1
   3302   3314     1
   3302   3315     1
   3303   3304     1
   3303   3307     1
   3303   3329     1
   3303   3325     1
   3303   3314     1
   3303   3315     1
   3304   3308     1
   3304   3309     1
   3304   3323     1
   3304   3324     1
   3305   3307     1
   3305   3329     1
   3305   3322     1
   3305   3317     1
   3305   3318     1
   3306   3307     1
   3306   3329     1
   3306   3322     1
   3306   3317     1
   3306   3318     1
   3307   3320     1
   3307   3321     1
   3308   3329     1
   3308   3319     1
   3308   3311     1
   3308   3312     1
   3309   3329     1
   3309   3319     1
   3309   3311     1
   3309   3312     1
   3310   3329     1
   3311   3328     1
   3311   3320     1
   3311   3321     1
   3312   3328     1
   3312   3320     1
   3312   3321     1
   3313   3329     1
   3314   6718     1
   3314   3326     1
   3314   3327     1
   3315   6718     1
   3315   3326     1
   3315   3327     1
   3316   3329     1
   3317   6688     1
   3317   3323     1
   3317   3324     1
   3318   6688     1
   3318   3323     1
   3318   3324     1
   3322   6680     1
   3322   6681     1
   3323   6679     1
   3324   6679     1
   3325   6710     1
   3325   6711     1
   3326   6709     1
   3327   6709     1
   3330   3344     1
   3330   3345     1
   3330   3347     1
   3330   3348     1
   3330   3341     1
   3330   3342     1
   3331   3335     1
   3331   3336     1
   3331   3338     1
   3331   3339     1
   3331   3356     1
   3331   3357     1
   3332   3334     1
   3332   3337     1
   3332   3359     1
   3332   3355     1
   3332   3344     1
   3332   3345     1
   3333   3334     1
   3333   3337     1
   3333   3359     1
   3333   3355     1
   3333   3344     1
   3333   3345     1
   3334   3338     1
   3334   3339     1
   3334   3353     1
   3334   3354     1
   3335   3337     1
   3335   3359     1
   3335   3352     1
   3335   3347     1
   3335   3348     1
   3336   3337     1
   3336   3359     1
   3336   3352     1
   3336   3347     1
   3336   3348     1
   3337   3350     1
   3337   3351     1
   3338   3359     1
   3338   3349     1
   3338   3341     1
   3338   3342     1
   3339   3359     1
   3339   3349     1
   3339   3341     1
   3339   3342     1
   3340   3359     1
   3341   3358     1
   3341   3350     1
   3341   3351     1
   3342   3358     1
   3342   3350     1
   3342   3351     1
   3343   3359     1
   3344   6778     1
   3344   3356     1
   3344   3357     1
   3345   6778     1
   3345   3356     1
   3345   3357     1
   3346   3359     1
   3347   6748     1
   3347   3353     1
   3347   3354     1
   3348   6748     1
   3348   3353     1
   3348   3354     1
   3352   6740     1
   3352   6741     1
   3353   6739     1
   3354   6739     1
   3355   6770     1
   3355   6771     1
   3356   6769     1
   3357   6769     1
   3360   3374     1
   3360   3375     1
   3360   3377     1
   3360   3378     1
   3360   3371     1
   3360   3372     1
   3361   3365     1
   3361   3366     1
   3361   3368     1
   3361   3369     1
   3361   3386     1
   3361   3387     1
   3362   3364     1
   3362   3367     1
   3362   3389     1
   3362   3385     1
   3362   3374     1
   3362   3375     1
   3363   3364     1
   3363   3367     1
   3363   3389     1
   3363   3385     1
   3363   3374     1
   3363   3375     1
   3364   3368     1
   3364   3369     1
   3364   3383     1
   3364   3384     1
   3365   3367     1
   3365   3389     1
   3365   3382     1
   3365   3377     1
   3365   3378     1
   3366   3367     1
   3366   3389     1
   3366   3382     1
   3366   3377     1
   3366   3378     1
   3367   3380     1
   3367   3381     1
   3368   3389     1
   3368   3379     1
   3368   3371     1
   3368   3372     1
   3369   3389     1
   3369   3379     1
   3369   3371     1
   3369   3372     1
   3370   3389     1
   3371   3388     1
   3371   3380     1
   3371   3381     1
   3372   3388     1
   3372   3380     1
   3372   3381     1
   3373   3389     1
   3374   6838     1
   3374   3386     1
   3374   3387     1
   3375   6838     1
   3375   3386     1
   3375   3387     1
   3376   3389     1
   3377   6808     1
   3377   3383     1
   3377   3384     1
   3378   6808     1
   3378   3383     1
   3378   3384     1
   3382   6800     1
   3382   6801     1
   3383   6799     1
   3384   6799     1
   3385   6830     1
   3385   6831     1
   3386   6829     1
   3387   6829     1
   3390   3404     1
   3390   3405     1
   3390   3407     1
   3390   3408     1
   3390   3401     1
   3390   3402     1
   3391   3395     1
   3391   3396     1
   3391   3398     1
   3391   3399     1
   3391   3416     1
   3391   3417     1
   3392   3394     1
   3392   3397     1
   3392   3419     1
   3392   3415     1
   3392   3404     1
   3392   3405     1
   3393   3394     1
   3393   3397     1
   3393   3419     1
   3393   3415     1
   3393   3404     1
   3393   3405     1
   3394   3398     1
   3394   3399     1
   3394   3413     1
   3394   3414     1
   3395   3397     1
   3395   3419     1
   3395   3412     1
   3395   3407     1
   3395   3408     1
   3396   3397     1
   3396   3419     1
   3396   3412     1
   3396   3407     1
   3396   3408     1
   3397   3410     1
   3397   3411     1
   3398   3419     1
   3398   3409     1
   3398   3401     1
   3398   3402     1
   3399   3419     1
   3399   3409     1
   3399   3401     1
   3399   3402     1
   3400   3419     1
   3401   3418     1
   3401   3410     1
   3401   3411     1
   3402   3418     1
   3402   3410     1
   3402   3411     1
   3403   3419     1
   3404   6898     1
   3404   3416     1
   3404   3417     1
   3405   6898     1
   3405   3416     1
   3405   3417     1
   3406   3419     1
   3407   6868     1
   3407   3413     1
   3407   3414     1
   3408   6868     1
   3408   3413     1
   3408   3414     1
   3412   6860     1
   3412   6861     1
   3413   6859     1
   3414   6859     1
   3415   6890     1
   3415   6891     1
   3416   6889     1
   3417   6889     1
   3420   3434     1
   3420   3435     1
   3420   3437     1
   3420   3438     1
   3420   3431     1
   3420   3432     1
   3421   3425     1
   3421   3426     1
   3421   3428     1
   3421   3429     1
   3421   3446     1
   3421   3447     1
   3422   3424     1
   3422   3427     1
   3422   3449     1
   3422   3445     1
   3422   3434     1
   3422   3435     1
   3423   3424     1
   3423   3427     1
   3423   3449     1
   3423   3445     1
   3423   3434     1
   3423   3435     1
   3424   3428     1
   3424   3429     1
   3424   3443     1
   3424   3444     1
   3425   3427     1
   3425   3449     1
   3425   3442     1
   3425   3437     1
   3425   3438     1
   3426   3427     1
   3426   3449     1
   3426   3442     1
   3426   3437     1
   3426   3438     1
   3427   3440     1
   3427   3441     1
   3428   3449     1
   3428   3439     1
   3428   3431     1
   3428   3432     1
   3429   3449     1
   3429   3439     1
   3429   3431     1
   3429   3432     1
   3430   3449     1
   3431   3448     1
   3431   3440     1
   3431   3441     1
   3432   3448     1
   3432   3440     1
   3432   3441     1
   3433   3449     1
   3434   6958     1
   3434   3446     1
   3434   3447     1
   3435   6958     1
   3435   3446     1
   3435   3447     1
   3436   3449     1
   3437   6928     1
   3437   3443     1
   3437   3444     1
   3438   6928     1
   3438   3443     1
   3438   3444     1
   3442   6920     1
   3442   6921     1
   3443   6919     1
   3444   6919     1
   3445   6950     1
   3445   6951     1
   3446   6949     1
   3447   6949     1
   3450   3464     1
   3450   3465     1
   3450   3467     1
   3450   3468     1
   3450   3461     1
   3450   3462     1
   3451   3455     1
   3451   3456     1
   3451   3458     1
   3451   3459     1
   3451   3476     1
   3451   3477     1
   3452   3454     1
   3452   3457     1
   3452   3479     1
   3452   3475     1
   3452   3464     1
   3452   3465     1
   3453   3454     1
   3453   3457     1
   3453   3479     1
   3453   3475     1
   3453   3464     1
   3453   3465     1
   3454   3458     1
   3454   3459     1
   3454   3473     1
   3454   3474     1
   3455   3457     1
   3455   3479     1
   3455   3472     1
   3455   3467     1
   3455   3468     1
   3456   3457     1
   3456   3479     1
   3456   3472     1
   3456   3467     1
   3456   3468     1
   3457   3470     1
   3457   3471     1
   3458   3479     1
   3458   3469     1
   3458   3461     1
   3458   3462     1
   3459   3479     1
   3459   3469     1
   3459   3461     1
   3459   3462     1
   3460   3479     1
   3461   3478     1
   3461   3470     1
   3461   3471     1
   3462   3478     1
   3462   3470     1
   3462   3471     1
   3463   3479     1
   3464   7018     1
   3464   3476     1
   3464   3477     1
   3465   7018     1
   3465   3476     1
   3465   3477     1
   3466   3479     1
   3467   6988     1
   3467   3473     1
   3467   3474     1
   3468   6988     1
   3468   3473     1
   3468   3474     1
   3472   6980     1
   3472   6981     1
   3473   6979     1
   3474   6979     1
   3475   7010     1
   3475   7011     1
   3476   7009     1
   3477   7009     1
   3480   3494     1
   3480   3495     1
   3480   3497     1
   3480   3498     1
   3480   3491     1
   3480   3492     1
   3481   3485     1
   3481   3486     1
   3481   3488     1
   3481   3489     1
   3481   3506     1
   3481   3507     1
   3482   3484     1
   3482   3487     1
   3482   3509     1
   3482   3505     1
   3482   3494     1
   3482   3495     1
   3483   3484     1
   3483   3487     1
   3483   3509     1
   3483   3505     1
   3483   3494     1
   3483   3495     1
   3484   3488     1
   3484   3489     1
   3484   3503     1
   3484   3504     1
   3485   3487     1
   3485   3509     1
   3485   3502     1
   3485   3497     1
   3485   3498     1
   3486   3487     1
   3486   3509     1
   3486   3502     1
   3486   3497     1
   3486   3498     1
   3487   3500     1
   3487   3501     1
   3488   3509     1
   3488   3499     1
   3488   3491     1
   3488   3492     1
   3489   3509     1
   3489   3499     1
   3489   3491     1
   3489   3492     1
   3490   3509     1
   3491   3508     1
   3491   3500     1
   3491   3501     1
   3492   3508     1
   3492   3500     1
   3492   3501     1
   3493   3509     1
   3494   7078     1
   3494   3506     1
   3494   3507     1
   3495   7078     1
   3495   3506     1
   3495   3507     1
   3496   3509     1
   3497   7048     1
   3497   3503     1
   3497   3504     1
   3498   7048     1
   3498   3503     1
   3498   3504     1
   3502   7040     1
   3502   7041     1
   3503   7039     1
   3504   7039     1
   3505   7070     1
   3505   7071     1
   3506   7069     1
   3507   7069     1
   3510   3524     1
   3510   3525     1
   3510   3527     1
   3510   3528     1
   3510   3521     1
   3510   3522     1
   3511   3515     1
   3511   3516     1
   3511   3518     1
   3511   3519     1
   3511   3536     1
   3511   3537     1
   3512   3514     1
   3512   3517     1
   3512   3539     1
   3512   3535     1
   3512   3524     1
   3512   3525     1
   3513   3514     1
   3513   3517     1
   3513   3539     1
   3513   3535     1
   3513   3524     1
   3513   3525     1
   3514   3518     1
   3514   3519     1
   3514   3533     1
   3514   3534     1
   3515   3517     1
   3515   3539     1
   3515   3532     1
   3515   3527     1
   3515   3528     1
   3516   3517     1
   3516   3539     1
   3516   3532     1
   3516   3527     1
   3516   3528     1
   3517   3530     1
   3517   3531     1
   3518   3539     1
   3518   3529     1
   3518   3521     1
   3518   3522     1
   3519   3539     1
   3519   3529     1
   3519   3521     1
   3519   3522     1
   3520   3539     1
   3521   3538     1
   3521   3530     1
   3521   3531     1
   3522   3538     1
   3522   3530     1
   3522   3531     1
   3523   3539     1
   3524   7138     1
   3524   3536     1
   3524   3537     1
   3525   7138     1
   3525   3536     1
   3525   3537     1
   3526   3539     1
   3527   7108     1
   3527   3533     1
   3527   3534     1
   3528   7108     1
   3528   3533     1
   3528   3534     1
   3532   7100     1
   3532   7101     1
   3533   7099     1
   3534   7099     1
   3535   7130     1
   3535   7131     1
   3536   7129     1
   3537   7129     1
   3540   3554     1
   3540   3555     1
   3540   3557     1
   3540   3558     1
   3540   3551     1
   3540   3552     1
   3541   3545     1
   3541   3546     1
   3541   3548     1
   3541   3549     1
   3541   3566     1
   3541   3567     1
   3542   3544     1
   3542   3547     1
   3542   3569     1
   3542   3565     1
   3542   3554     1
   3542   3555     1
   3543   3544     1
   3543   3547     1
   3543   3569     1
   3543   3565     1
   3543   3554     1
   3543   3555     1
   3544   3548     1
   3544   3549     1
   3544   3563     1
   3544   3564     1
   3545   3547     1
   3545   3569     1
   3545   3562     1
   3545   3557     1
   3545   3558     1
   3546   3547     1
   3546   3569     1
   3546   3562     1
   3546   3557     1
   3546   3558     1
   3547   3560     1
   3547   3561     1
   3548   3569     1
   3548   3559     1
   3548   3551     1
   3548   3552     1
   3549   3569     1
   3549   3559     1
   3549   3551     1
   3549   3552     1
   3550   3569     1
   3551   3568     1
   3551   3560     1
   3551   3561     1
   3552   3568     1
   3552   3560     1
   3552   3561     1
   3553   3569     1
   3554   7198     1
   3554   3566     1
   3554   3567     1
   3555   7198     1
   3555   3566     1
   3555   3567     1
   3556   3569     1
   3557   7168     1
   3557   3563     1
   3557   3564     1
   3558   7168     1
   3558   3563     1
   3558   3564     1
   3562   7160     1
   3562   7161     1
   3563   7159     1
   3564   7159     1
   3565   7190     1
   3565   7191     1
   3566   7189     1
   3567   7189     1
   3570   3584     1
   3570   3585     1
   3570   3587     1
   3570   3588     1
   3570   3581     1
   3570   3582     1
   3571   3575     1
   3571   3576     1
   3571   3578     1
   3571   3579     1
   3571   3596     1
   3571   3597     1
   3572   3574     1
   3572   3577     1
   3572   3599     1
   3572   3595     1
   3572   3584     1
   3572   3585     1
   3573   3574     1
   3573   3577     1
   3573   3599     1
   3573   3595     1
   3573   3584     1
   3573   3585     1
   3574   3578     1
   3574   3579     1
   3574   3593     1
   3574   3594     1
   3575   3577     1
   3575   3599     1
   3575   3592     1
   3575   3587     1
   3575   3588     1
   3576   3577     1
   3576   3599     1
   3576   3592     1
   3576   3587     1
   3576   3588     1
   3577   3590     1
   3577   3591     1
   3578   3599     1
   3578   3589     1
   3578   3581     1
   3578   3582     1
   3579   3599     1
   3579   3589     1
   3579   3581     1
   3579   3582     1
   3580   3599     1
   3581   3598     1
   3581   3590     1
   3581   3591     1
   3582   3598     1
   3582   3590     1
   3582   3591     1
   3583   3599     1
   3584   7258     1
   3584   3596     1
   3584   3597     1
   3585   7258     1
   3585   3596     1
   3585   3597     1
   3586   3599     1
   3587   7228     1
   3587   3593     1
   3587   3594     1
   3588   7228     1
   3588   3593     1
   3588   3594     1
   3592   7220     1
   3592   7221     1
   3593   7219     1
   3594   7219     1
   3595   7250     1
   3595   7251     1
   3596   7249     1
   3597   7249     1
   3600   3614     1
   3600   3615     1
   3600   3617     1
   3600   3618     1
   3600   3611     1
   3600   3612     1
   3601   3605     1
   3601   3606     1
   3601   3608     1
   3601   3609     1
   3601   3626     1
   3601   3627     1
   3602   3604     1
   3602   3607     1
   3602   3629     1
   3602   3625     1
   3602   3614     1
   3602   3615     1
   3603   3604     1
   3603   3607     1
   3603   3629     1
   3603   3625     1
   3603   3614     1
   3603   3615     1
   3604   3608     1
   3604   3609     1
   3604   3623     1
   3604   3624     1
   3605   3607     1
   3605   3629     1
   3605   3622     1
   3605   3617     1
   3605   3618     1
   3606   3607     1
   3606   3629     1
   3606   3622     1
   3606   3617     1
   3606   3618     1
   3607   3620     1
   3607   3621     1
   3608   3629     1
   3608   3619     1
   3608   3611     1
   3608   3612     1
   3609   3629     1
   3609   3619     1
   3609   3611     1
   3609   3612     1
   3610   3629     1
   3611   3628     1
   3611   3620     1
   3611   3621     1
   3612   3628     1
   3612   3620     1
   3612   3621     1
   3613   3629     1
   3614   7318     1
   3614   3626     1
   3614   3627     1
   3615   7318     1
   3615   3626     1
   3615   3627     1
   3616   3629     1
   3617   7288     1
   3617   3623     1
   3617   3624     1
   3618   7288     1
   3618   3623     1
   3618   3624     1
   3622   7280     1
   3622   7281     1
   3623   7279     1
   3624   7279     1
   3625   7310     1
   3625   7311     1
   3626   7309     1
   3627   7309     1
   3630   3644     1
   3630   3645     1
   3630   3647     1
   3630   3648     1
   3630   3641     1
   3630   3642     1
   3631   3635     1
   3631   3636     1
   3631   3638     1
   3631   3639     1
   3631   3656     1
   3631   3657     1
   3632   3634     1
   3632   3637     1
   3632   3659     1
   3632   3655     1
   3632   3644     1
   3632   3645     1
   3633   3634     1
   3633   3637     1
   3633   3659     1
   3633   3655     1
   3633   3644     1
   3633   3645     1
   3634   3638     1
   3634   3639     1
   3634   3653     1
   3634   3654     1
   3635   3637     1
   3635   3659     1
   3635   3652     1
   3635   3647     1
   3635   3648     1
   3636   3637     1
   3636   3659     1
   3636   3652     1
   3636   3647     1
   3636   3648     1
   3637   3650     1
   3637   3651     1
   3638   3659     1
   3638   3649     1
   3638   3641     1
   3638   3642     1
   3639   3659     1
   3639   3649     1
   3639   3641     1
   3639   3642     1
   3640   3659     1
   3641   3658     1
   3641   3650     1
   3641   3651     1
   3642   3658     1
   3642   3650     1
   3642   3651     1
   3643   3659     1
   3644   7378     1
   3644   3656     1
   3644   3657     1
   3645   7378     1
   3645   3656     1
   3645   3657     1
   3646   3659     1
   3647   7348     1
   3647   3653     1
   3647   3654     1
   3648   7348     1
   3648   3653     1
   3648   3654     1
   3652   7340     1
   3652   7341     1
   3653   7339     1
   3654   7339     1
   3655   7370     1
   3655   7371     1
   3656   7369     1
   3657   7369     1
   3660   3674     1
   3660   3675     1
   3660   3677     1
   3660   3678     1
   3660   3671     1
   3660   3672     1
   3661   3665     1
   3661   3666     1
   3661   3668     1
   3661   3669     1
   3661   3686     1
   3661   3687     1
   3662   3664     1
   3662   3667     1
   3662   3689     1
   3662   3685     1
   3662   3674     1
   3662   3675     1
   3663   3664     1
   3663   3667     1
   3663   3689     1
   3663   3685     1
   3663   3674     1
   3663   3675     1
   3664   3668     1
   3664   3669     1
   3664   3683     1
   3664   3684     1
   3665   3667     1
   3665   3689     1
   3665   3682     1
   3665   3677     1
   3665   3678     1
   3666   3667     1
   3666   3689     1
   3666   3682     1
   3666   3677     1
   3666   3678     1
   3667   3680     1
   3667   3681     1
   3668   3689     1
   3668   3679     1
   3668   3671     1
   3668   3672     1
   3669   3689     1
   3669   3679     1
   3669   3671     1
   3669   3672     1
   3670   3689     1
   3671   3688     1
   3671   3680     1
   3671   3681     1
   3672   3688     1
   3672   3680     1
   3672   3681     1
   3673   3689     1
   3674   7438     1
   3674   3686     1
   3674   3687     1
   3675   7438     1
   3675   3686     1
   3675   3687     1
   3676   3689     1
   3677   7408     1
   3677   3683     1
   3677   3684     1
   3678   7408     1
   3678   3683     1
   3678   3684     1
   3682   7400     1
   3682   7401     1
   3683   7399     1
   3684   7399     1
   3685   7430     1
   3685   7431     1
   3686   7429     1
   3687   7429     1
   3690   3704     1
   3690   3705     1
   3690   3707     1
   3690   3708     1
   3690   3701     1
   3690   3702     1
   3691   3695     1
   3691   3696     1
   3691   3698     1
   3691   3699     1
   3691   3716     1
   3691   3717     1
   3692   3694     1
   3692   3697     1
   3692   3719     1
   3692   3715     1
   3692   3704     1
   3692   3705     1
   3693   3694     1
   3693   3697     1
   3693   3719     1
   3693   3715     1
   3693   3704     1
   3693   3705     1
   3694   3698     1
   3694   3699     1
   3694   3713     1
   3694   3714     1
   3695   3697     1
   3695   3719     1
   3695   3712     1
   3695   3707     1
   3695   3708     1
   3696   3697     1
   3696   3719     1
   3696   3712     1
   3696   3707     1
   3696   3708     1
   3697   3710     1
   3697   3711     1
   3698   3719     1
   3698   3709     1
   3698   3701     1
   3698   3702     1
   3699   3719     1
   3699   3709     1
   3699   3701     1
   3699   3702     1
   3700   3719     1
   3701   3718     1
   3701   3710     1
   3701   3711     1
   3702   3718     1
   3702   3710     1
   3702   3711     1
   3703   3719     1
   3704   7498     1
   3704   3716     1
   3704   3717     1
   3705   7498     1
   3705   3716     1
   3705   3717     1
   3706   3719     1
   3707   7468     1
   3707   3713     1
   3707   3714     1
   3708   7468     1
   3708   3713     1
   3708   3714     1
   3712   7460     1
   3712   7461     1
   3713   7459     1
   3714   7459     1
   3715   7490     1
   3715   7491     1
   3716   7489     1
   3717   7489     1
   3720   3734     1
   3720   3735     1
   3720   3737     1
   3720   3738     1
   3720   3731     1
   3720   3732     1
   3721   3725     1
   3721   3726     1
   3721   3728     1
   3721   3729     1
   3721   3746     1
   3721   3747     1
   3722   3724     1
   3722   3727     1
   3722   3749     1
   3722   3745     1
   3722   3734     1
   3722   3735     1
   3723   3724     1
   3723   3727     1
   3723   3749     1
   3723   3745     1
   3723   3734     1
   3723   3735     1
   3724   3728     1
   3724   3729     1
   3724   3743     1
   3724   3744     1
   3725   3727     1
   3725   3749     1
   3725   3742     1
   3725   3737     1
   3725   3738     1
   3726   3727     1
   3726   3749     1
   3726   3742     1
   3726   3737     1
   3726   3738     1
   3727   3740     1
   3727   3741     1
   3728   3749     1
   3728   3739     1
   3728   3731     1
   3728   3732     1
   3729   3749     1
   3729   3739     1
   3729   3731     1
   3729   3732     1
   3730   3749     1
   3731   3748     1
   3731   3740     1
   3731   3741     1
   3732   3748     1
   3732   3740     1
   3732   3741     1
   3733   3749     1
   3734   7558     1
   3734   3746     1
   3734   3747     1
   3735   7558     1
   3735   3746     1
   3735   3747     1
   3736   3749     1
   3737   7528     1
   3737   3743     1
   3737   3744     1
   3738   7528     1
   3738   3743     1
   3738   3744     1
   3742   7520     1
   3742   7521     1
   3743   7519     1
   3744   7519     1
   3745   7550     1
   3745   7551     1
   3746   7549     1
   3747   7549     1
   3750   3764     1
   3750   3765     1
   3750   3767     1
   3750   3768     1
   3750   3761     1
   3750   3762     1
   3751   3755     1
   3751   3756     1
   3751   3758     1
   3751   3759     1
   3751   3776     1
   3751   3777     1
   3752   3754     1
   3752   3757     1
   3752   3779     1
   3752   3775     1
   3752   3764     1
   3752   3765     1
   3753   3754     1
   3753   3757     1
   3753   3779     1
   3753   3775     1
   3753   3764     1
   3753   3765     1
   3754   3758     1
   3754   3759     1
   3754   3773     1
   3754   3774     1
   3755   3757     1
   3755   3779     1
   3755   3772     1
   3755   3767     1
   3755   3768     1
   3756   3757     1
   3756   3779     1
   3756   3772     1
   3756   3767     1
   3756   3768     1
   3757   3770     1
   3757   3771     1
   3758   3779     1
   3758   3769     1
   3758   3761     1
   3758   3762     1
   3759   3779     1
   3759   3769     1
   3759   3761     1
   3759   3762     1
   3760   3779     1
   3761   3778     1
   3761   3770     1
   3761   3771     1
   3762   3778     1
   3762   3770     1
   3762   3771     1
   3763   3779     1
   3764   7618     1
   3764   3776     1
   3764   3777     1
   3765   7618     1
   3765   3776     1
   3765   3777     1
   3766   3779     1
   3767   7588     1
   3767   3773     1
   3767   3774     1
   3768   7588     1
   3768   3773     1
   3768   3774     1
   3772   7580     1
   3772   7581     1
   3773   7579     1
   3774   7579     1
   3775   7610     1
   3775   7611     1
   3776   7609     1
   3777   7609     1
   3780   3794     1
   3780   3795     1
   3780   3797     1
   3780   3798     1
   3780   3791     1
   3780   3792     1
   3781   3785     1
   3781   3786     1
   3781   3788     1
   3781   3789     1
   3781   3806     1
   3781   3807     1
   3782   3784     1
   3782   3787     1
   3782   3809     1
   3782   3805     1
   3782   3794     1
   3782   3795     1
   3783   3784     1
   3783   3787     1
   3783   3809     1
   3783   3805     1
   3783   3794     1
   3783   3795     1
   3784   3788     1
   3784   3789     1
   3784   3803     1
   3784   3804     1
   3785   3787     1
   3785   3809     1
   3785   3802     1
   3785   3797     1
   3785   3798     1
   3786   3787     1
   3786   3809     1
   3786   3802     1
   3786   3797     1
   3786   3798     1
   3787   3800     1
   3787   3801     1
   3788   3809     1
   3788   3799     1
   3788   3791     1
   3788   3792     1
   3789   3809     1
   3789   3799     1
   3789   3791     1
   3789   3792     1
   3790   3809     1
   3791   3808     1
   3791   3800     1
   3791   3801     1
   3792   3808     1
   3792   3800     1
   3792   3801     1
   3793   3809     1
   3794   7653     1
   3794   3806     1
   3794   3807     1
   3795   7653     1
   3795   3806     1
   3795   3807     1
   3796   3809     1
   3797   7630     1
   3797   3803     1
   3797   3804     1
   3798   7630     1
   3798   3803     1
   3798   3804     1
   3802   7629     1
   3803   7626     1
   3804   7626     1
   3805   7652     1
   3806   7649     1
   3807   7649     1
   3810   3824     1
   3810   3825     1
   3810   3827     1
   3810   3828     1
   3810   3821     1
   3810   3822     1
   3811   3815     1
   3811   3816     1
   3811   3818     1
   3811   3819     1
   3811   3836     1
   3811   3837     1
   3812   3814     1
   3812   3817     1
   3812   3839     1
   3812   3835     1
   3812   3824     1
   3812   3825     1
   3813   3814     1
   3813   3817     1
   3813   3839     1
   3813   3835     1
   3813   3824     1
   3813   3825     1
   3814   3818     1
   3814   3819     1
   3814   3833     1
   3814   3834     1
   3815   3817     1
   3815   3839     1
   3815   3832     1
   3815   3827     1
   3815   3828     1
   3816   3817     1
   3816   3839     1
   3816   3832     1
   3816   3827     1
   3816   3828     1
   3817   3830     1
   3817   3831     1
   3818   3839     1
   3818   3829     1
   3818   3821     1
   3818   3822     1
   3819   3839     1
   3819   3829     1
   3819   3821     1
   3819   3822     1
   3820   3839     1
   3821   3838     1
   3821   3830     1
   3821   3831     1
   3822   3838     1
   3822   3830     1
   3822   3831     1
   3823   3839     1
   3824   7699     1
   3824   3836     1
   3824   3837     1
   3825   7699     1
   3825   3836     1
   3825   3837     1
   3826   3839     1
   3827   7676     1
   3827   3833     1
   3827   3834     1
   3828   7676     1
   3828   3833     1
   3828   3834     1
   3832   7675     1
   3833   7672     1
   3834   7672     1
   3835   7698     1
   3836   7695     1
   3837   7695     1
   3840   3854     1
   3840   3855     1
   3840   3857     1
   3840   3858     1
   3840   3851     1
   3840   3852     1
   3841   3845     1
   3841   3846     1
   3841   3848     1
   3841   3849     1
   3841   3866     1
   3841   3867     1
   3842   3844     1
   3842   3847     1
   3842   3869     1
   3842   3865     1
   3842   3854     1
   3842   3855     1
   3843   3844     1
   3843   3847     1
   3843   3869     1
   3843   3865     1
   3843   3854     1
   3843   3855     1
   3844   3848     1
   3844   3849     1
   3844   3863     1
   3844   3864     1
   3845   3847     1
   3845   3869     1
   3845   3862     1
   3845   3857     1
   3845   3858     1
   3846   3847     1
   3846   3869     1
   3846   3862     1
   3846   3857     1
   3846   3858     1
   3847   3860     1
   3847   3861     1
   3848   3869     1
   3848   3859     1
   3848   3851     1
   3848   3852     1
   3849   3869     1
   3849   3859     1
   3849   3851     1
   3849   3852     1
   3850   3869     1
   3851   3868     1
   3851   3860     1
   3851   3861     1
   3852   3868     1
   3852   3860     1
   3852   3861     1
   3853   3869     1
   3854   7745     1
   3854   3866     1
   3854   3867     1
   3855   7745     1
   3855   3866     1
   3855   3867     1
   3856   3869     1
   3857   7722     1
   3857   3863     1
   3857   3864     1
   3858   7722     1
   3858   3863     1
   3858   3864     1
   3862   7721     1
   3863   7718     1
   3864   7718     1
   3865   7744     1
   3866   7741     1
   3867   7741     1
   3870   3884     1
   3870   3885     1
   3870   3887     1
   3870   3888     1
   3870   3881     1
   3870   3882     1
   3871   3875     1
   3871   3876     1
   3871   3878     1
   3871   3879     1
   3871   3896     1
   3871   3897     1
   3872   3874     1
   3872   3877     1
   3872   3899     1
   3872   3895     1
   3872   3884     1
   3872   3885     1
   3873   3874     1
   3873   3877     1
   3873   3899     1
   3873   3895     1
   3873   3884     1
   3873   3885     1
   3874   3878     1
   3874   3879     1
   3874   3893     1
   3874   3894     1
   3875   3877     1
   3875   3899     1
   3875   3892     1
   3875   3887     1
   3875   3888     1
   3876   3877     1
   3876   3899     1
   3876   3892     1
   3876   3887     1
   3876   3888     1
   3877   3890     1
   3877   3891     1
   3878   3899     1
   3878   3889     1
   3878   3881     1
   3878   3882     1
   3879   3899     1
   3879   3889     1
   3879   3881     1
   3879   3882     1
   3880   3899     1
   3881   3898     1
   3881   3890     1
   3881   3891     1
   3882   3898     1
   3882   3890     1
   3882   3891     1
   3883   3899     1
   3884   7791     1
   3884   3896     1
   3884   3897     1
   3885   7791     1
   3885   3896     1
   3885   3897     1
   3886   3899     1
   3887   7768     1
   3887   3893     1
   3887   3894     1
   3888   7768     1
   3888   3893     1
   3888   3894     1
   3892   7767     1
   3893   7764     1
   3894   7764     1
   3895   7790     1
   3896   7787     1
   3897   7787     1
   3900   3914     1
   3900   3915     1
   3900   3917     1
   3900   3918     1
   3900   3911     1
   3900   3912     1
   3901   3905     1
   3901   3906     1
   3901   3908     1
   3901   3909     1
   3901   3926     1
   3901   3927     1
   3902   3904     1
   3902   3907     1
   3902   3929     1
   3902   3925     1
   3902   3914     1
   3902   3915     1
   3903   3904     1
   3903   3907     1
   3903   3929     1
   3903   3925     1
   3903   3914     1
   3903   3915     1
   3904   3908     1
   3904   3909     1
   3904   3923     1
   3904   3924     1
   3905   3907     1
   3905   3929     1
   3905   3922     1
   3905   3917     1
   3905   3918     1
   3906   3907     1
   3906   3929     1
   3906   3922     1
   3906   3917     1
   3906   3918     1
   3907   3920     1
   3907   3921     1
   3908   3929     1
   3908   3919     1
   3908   3911     1
   3908   3912     1
   3909   3929     1
   3909   3919     1
   3909   3911     1
   3909   3912     1
   3910   3929     1
   3911   3928     1
   3911   3920     1
   3911   3921     1
   3912   3928     1
   3912   3920     1
   3912   3921     1
   3913   3929     1
   3914   7837     1
   3914   3926     1
   3914   3927     1
   3915   7837     1
   3915   3926     1
   3915   3927     1
   3916   3929     1
   3917   7814     1
   3917   3923     1
   3917   3924     1
   3918   7814     1
   3918   3923     1
   3918   3924     1
   3922   7813     1
   3923   7810     1
   3924   7810     1
   3925   7836     1
   3926   7833     1
   3927   7833     1
   3930   3944     1
   3930   3945     1
   3930   3947     1
   3930   3948     1
   3930   3941     1
   3930   3942     1
   3931   3935     1
   3931   3936     1
   3931   3938     1
   3931   3939     1
   3931   3956     1
   3931   3957     1
   3932   3934     1
   3932   3937     1
   3932   3959     1
   3932   3955     1
   3932   3944     1
   3932   3945     1
   3933   3934     1
   3933   3937     1
   3933   3959     1
   3933   3955     1
   3933   3944     1
   3933   3945     1
   3934   3938     1
   3934   3939     1
   3934   3953     1
   3934   3954     1
   3935   3937     1
   3935   3959     1
   3935   3952     1
   3935   3947     1
   3935   3948     1
   3936   3937     1
   3936   3959     1
   3936   3952     1
   3936   3947     1
   3936   3948     1
   3937   3950     1
   3937   3951     1
   3938   3959     1
   3938   3949     1
   3938   3941     1
   3938   3942     1
   3939   3959     1
   3939   3949     1
   3939   3941     1
   3939   3942     1
   3940   3959     1
   3941   3958     1
   3941   3950     1
   3941   3951     1
   3942   3958     1
   3942   3950     1
   3942   3951     1
   3943   3959     1
   3944   7883     1
   3944   3956     1
   3944   3957     1
   3945   7883     1
   3945   3956     1
   3945   3957     1
   3946   3959     1
   3947   7860     1
   3947   3953     1
   3947   3954     1
   3948   7860     1
   3948   3953     1
   3948   3954     1
   3952   7859     1
   3953   7856     1
   3954   7856     1
   3955   7882     1
   3956   7879     1
   3957   7879     1
   3960   3974     1
   3960   3975     1
   3960   3977     1
   3960   3978     1
   3960   3971     1
   3960   3972     1
   3961   3965     1
   3961   3966     1
   3961   3968     1
   3961   3969     1
   3961   3986     1
   3961   3987     1
   3962   3964     1
   3962   3967     1
   3962   3989     1
   3962   3985     1
   3962   3974     1
   3962   3975     1
   3963   3964     1
   3963   3967     1
   3963   3989     1
   3963   3985     1
   3963   3974     1
   3963   3975     1
   3964   3968     1
   3964   3969     1
   3964   3983     1
   3964   3984     1
   3965   3967     1
   3965   3989     1
   3965   3982     1
   3965   3977     1
   3965   3978     1
   3966   3967     1
   3966   3989     1
   3966   3982     1
   3966   3977     1
   3966   3978     1
   3967   3980     1
   3967   3981     1
   3968   3989     1
   3968   3979     1
   3968   3971     1
   3968   3972     1
   3969   3989     1
   3969   3979     1
   3969   3971     1
   3969   3972     1
   3970   3989     1
   3971   3988     1
   3971   3980     1
   3971   3981     1
   3972   3988     1
   3972   3980     1
   3972   3981     1
   3973   3989     1
   3974   7929     1
   3974   3986     1
   3974   3987     1
   3975   7929     1
   3975   3986     1
   3975   3987     1
   3976   3989     1
   3977   7906     1
   3977   3983     1
   3977   3984     1
   3978   7906     1
   3978   3983     1
   3978   3984     1
   3982   7905     1
   3983   7902     1
   3984   7902     1
   3985   7928     1
   3986   7925     1
   3987   7925     1
   3990   4004     1
   3990   4005     1
   3990   4007     1
   3990   4008     1
   3990   4001     1
   3990   4002     1
   3991   3995     1
   3991   3996     1
   3991   3998     1
   3991   3999     1
   3991   4016     1
   3991   4017     1
   3992   3994     1
   3992   3997     1
   3992   4019     1
   3992   4015     1
   3992   4004     1
   3992   4005     1
   3993   3994     1
   3993   3997     1
   3993   4019     1
   3993   4015     1
   3993   4004     1
   3993   4005     1
   3994   3998     1
   3994   3999     1
   3994   4013     1
   3994   4014     1
   3995   3997     1
   3995   4019     1
   3995   4012     1
   3995   4007     1
   3995   4008     1
   3996   3997     1
   3996   4019     1
   3996   4012     1
   3996   4007     1
   3996   4008     1
   3997   4010     1
   3997   4011     1
   3998   4019     1
   3998   4009     1
   3998   4001     1
   3998   4002     1
   3999   4019     1
   3999   4009     1
   3999   4001     1
   3999   4002     1
   4000   4019     1
   4001   4018     1
   4001   4010     1
   4001   4011     1
   4002   4018     1
   4002   4010     1
   4002   4011     1
   4003   4019     1
   4004   7975     1
   4004   4016     1
   4004   4017     1
   4005   7975     1
   4005   4016     1
   4005   4017     1
   4006   4019     1
   4007   7952     1
   4007   4013     1
   4007   4014     1
   4008   7952     1
   4008   4013     1
   4008   4014     1
   4012   7951     1
   4013   7948     1
   4014   7948     1
   4015   7974     1
   4016   7971     1
   4017   7971     1
   4020   4034     1
   4020   4035     1
   4020   4037     1
   4020   4038     1
   4020   4031     1
   4020   4032     1
   4021   4025     1
   4021   4026     1
   4021   4028     1
   4021   4029     1
   4021   4046     1
   4021   4047     1
   4022   4024     1
   4022   4027     1
   4022   4049     1
   4022   4045     1
   4022   4034     1
   4022   4035     1
   4023   4024     1
   4023   4027     1
   4023   4049     1
   4023   4045     1
   4023   4034     1
   4023   4035     1
   4024   4028     1
   4024   4029     1
   4024   4043     1
   4024   4044     1
   4025   4027     1
   4025   4049     1
   4025   4042     1
   4025   4037     1
   4025   4038     1
   4026   4027     1
   4026   4049     1
   4026   4042     1
   4026   4037     1
   4026   4038     1
   4027   4040     1
   4027   4041     1
   4028   4049     1
   4028   4039     1
   4028   4031     1
   4028   4032     1
   4029   4049     1
   4029   4039     1
   4029   4031     1
   4029   4032     1
   4030   4049     1
   4031   4048     1
   4031   4040     1
   4031   4041     1
   4032   4048     1
   4032   4040     1
   4032   4041     1
   4033   4049     1
   4034   8021     1
   4034   4046     1
   4034   4047     1
   4035   8021     1
   4035   4046     1
   4035   4047     1
   4036   4049     1
   4037   7998     1
   4037   4043     1
   4037   4044     1
   4038   7998     1
   4038   4043     1
   4038   4044     1
   4042   7997     1
   4043   7994     1
   4044   7994     1
   4045   8020     1
   4046   8017     1
   4047   8017     1
   4050   4064     1
   4050   4065     1
   4050   4067     1
   4050   4068     1
   4050   4061     1
   4050   4062     1
   4051   4055     1
   4051   4056     1
   4051   4058     1
   4051   4059     1
   4051   4076     1
   4051   4077     1
   4052   4054     1
   4052   4057     1
   4052   4079     1
   4052   4075     1
   4052   4064     1
   4052   4065     1
   4053   4054     1
   4053   4057     1
   4053   4079     1
   4053   4075     1
   4053   4064     1
   4053   4065     1
   4054   4058     1
   4054   4059     1
   4054   4073     1
   4054   4074     1
   4055   4057     1
   4055   4079     1
   4055   4072     1
   4055   4067     1
   4055   4068     1
   4056   4057     1
   4056   4079     1
   4056   4072     1
   4056   4067     1
   4056   4068     1
   4057   4070     1
   4057   4071     1
   4058   4079     1
   4058   4069     1
   4058   4061     1
   4058   4062     1
   4059   4079     1
   4059   4069     1
   4059   4061     1
   4059   4062     1
   4060   4079     1
   4061   4078     1
   4061   4070     1
   4061   4071     1
   4062   4078     1
   4062   4070     1
   4062   4071     1
   4063   4079     1
   4064   8067     1
   4064   4076     1
   4064   4077     1
   4065   8067     1
   4065   4076     1
   4065   4077     1
   4066   4079     1
   4067   8044     1
   4067   4073     1
   4067   4074     1
   4068   8044     1
   4068   4073     1
   4068   4074     1
   4072   8043     1
   4073   8040     1
   4074   8040     1
   4075   8066     1
   4076   8063     1
   4077   8063     1
   4080   4094     1
   4080   4095     1
   4080   4097     1
   4080   4098     1
   4080   4091     1
   4080   4092     1
   4081   4085     1
   4081   4086     1
   4081   4088     1
   4081   4089     1
   4081   4106     1
   4081   4107     1
   4082   4084     1
   4082   4087     1
   4082   4109     1
   4082   4105     1
   4082   4094     1
   4082   4095     1
   4083   4084     1
   4083   4087     1
   4083   4109     1
   4083   4105     1
   4083   4094     1
   4083   4095     1
   4084   4088     1
   4084   4089     1
   4084   4103     1
   4084   4104     1
   4085   4087     1
   4085   4109     1
   4085   4102     1
   4085   4097     1
   4085   4098     1
   4086   4087     1
   4086   4109     1
   4086   4102     1
   4086   4097     1
   4086   4098     1
   4087   4100     1
   4087   4101     1
   4088   4109     1
   4088   4099     1
   4088   4091     1
   4088   4092     1
   4089   4109     1
   4089   4099     1
   4089   4091     1
   4089   4092     1
   4090   4109     1
   4091   4108     1
   4091   4100     1
   4091   4101     1
   4092   4108     1
   4092   4100     1
   4092   4101     1
   4093   4109     1
   4094   8113     1
   4094   4106     1
   4094   4107     1
   4095   8113     1
   4095   4106     1
   4095   4107     1
   4096   4109     1
   4097   8090     1
   4097   4103     1
   4097   4104     1
   4098   8090     1
   4098   4103     1
   4098   4104     1
   4102   8089     1
   4103   8086     1
   4104   8086     1
   4105   8112     1
   4106   8109     1
   4107   8109     1
   4110   4124     1
   4110   4125     1
   4110   4127     1
   4110   4128     1
   4110   4121     1
   4110   4122     1
   4111   4115     1
   4111   4116     1
   4111   4118     1
   4111   4119     1
   4111   4136     1
   4111   4137     1
   4112   4114     1
   4112   4117     1
   4112   4139     1
   4112   4135     1
   4112   4124     1
   4112   4125     1
   4113   4114     1
   4113   4117     1
   4113   4139     1
   4113   4135     1
   4113   4124     1
   4113   4125     1
   4114   4118     1
   4114   4119     1
   4114   4133     1
   4114   4134     1
   4115   4117     1
   4115   4139     1
   4115   4132     1
   4115   4127     1
   4115   4128     1
   4116   4117     1
   4116   4139     1
   4116   4132     1
   4116   4127     1
   4116   4128     1
   4117   4130     1
   4117   4131     1
   4118   4139     1
   4118   4129     1
   4118   4121     1
   4118   4122     1
   4119   4139     1
   4119   4129     1
   4119   4121     1
   4119   4122     1
   4120   4139     1
   4121   4138     1
   4121   4130     1
   4121   4131     1
   4122   4138     1
   4122   4130     1
   4122   4131     1
   4123   4139     1
   4124   8159     1
   4124   4136     1
   4124   4137     1
   4125   8159     1
   4125   4136     1
   4125   4137     1
   4126   4139     1
   4127   8136     1
   4127   4133     1
   4127   4134     1
   4128   8136     1
   4128   4133     1
   4128   4134     1
   4132   8135     1
   4133   8132     1
   4134   8132     1
   4135   8158     1
   4136   8155     1
   4137   8155     1
   4140   4154     1
   4140   4155     1
   4140   4157     1
   4140   4158     1
   4140   4151     1
   4140   4152     1
   4141   4145     1
   4141   4146     1
   4141   4148     1
   4141   4149     1
   4141   4166     1
   4141   4167     1
   4142   4144     1
   4142   4147     1
   4142   4169     1
   4142   4165     1
   4142   4154     1
   4142   4155     1
   4143   4144     1
   4143   4147     1
   4143   4169     1
   4143   4165     1
   4143   4154     1
   4143   4155     1
   4144   4148     1
   4144   4149     1
   4144   4163     1
   4144   4164     1
   4145   4147     1
   4145   4169     1
   4145   4162     1
   4145   4157     1
   4145   4158     1
   4146   4147     1
   4146   4169     1
   4146   4162     1
   4146   4157     1
   4146   4158     1
   4147   4160     1
   4147   4161     1
   4148   4169     1
   4148   4159     1
   4148   4151     1
   4148   4152     1
   4149   4169     1
   4149   4159     1
   4149   4151     1
   4149   4152     1
   4150   4169     1
   4151   4168     1
   4151   4160     1
   4151   4161     1
   4152   4168     1
   4152   4160     1
   4152   4161     1
   4153   4169     1
   4154   8205     1
   4154   4166     1
   4154   4167     1
   4155   8205     1
   4155   4166     1
   4155   4167     1
   4156   4169     1
   4157   8182     1
   4157   4163     1
   4157   4164     1
   4158   8182     1
   4158   4163     1
   4158   4164     1
   4162   8181     1
   4163   8178     1
   4164   8178     1
   4165   8204     1
   4166   8201     1
   4167   8201     1
   4170   4184     1
   4170   4185     1
   4170   4187     1
   4170   4188     1
   4170   4181     1
   4170   4182     1
   4171   4175     1
   4171   4176     1
   4171   4178     1
   4171   4179     1
   4171   4196     1
   4171   4197     1
   4172   4174     1
   4172   4177     1
   4172   4199     1
   4172   4195     1
   4172   4184     1
   4172   4185     1
   4173   4174     1
   4173   4177     1
   4173   4199     1
   4173   4195     1
   4173   4184     1
   4173   4185     1
   4174   4178     1
   4174   4179     1
   4174   4193     1
   4174   4194     1
   4175   4177     1
   4175   4199     1
   4175   4192     1
   4175   4187     1
   4175   4188     1
   4176   4177     1
   4176   4199     1
   4176   4192     1
   4176   4187     1
   4176   4188     1
   4177   4190     1
   4177   4191     1
   4178   4199     1
   4178   4189     1
   4178   4181     1
   4178   4182     1
   4179   4199     1
   4179   4189     1
   4179   4181     1
   4179   4182     1
   4180   4199     1
   4181   4198     1
   4181   4190     1
   4181   4191     1
   4182   4198     1
   4182   4190     1
   4182   4191     1
   4183   4199     1
   4184   8251     1
   4184   4196     1
   4184   4197     1
   4185   8251     1
   4185   4196     1
   4185   4197     1
   4186   4199     1
   4187   8228     1
   4187   4193     1
   4187   4194     1
   4188   8228     1
   4188   4193     1
   4188   4194     1
   4192   8227     1
   4193   8224     1
   4194   8224     1
   4195   8250     1
   4196   8247     1
   4197   8247     1
   4200   4214     1
   4200   4215     1
   4200   4217     1
   4200   4218     1
   4200   4211     1
   4200   4212     1
   4201   4205     1
   4201   4206     1
   4201   4208     1
   4201   4209     1
   4201   4226     1
   4201   4227     1
   4202   4204     1
   4202   4207     1
   4202   4229     1
   4202   4225     1
   4202   4214     1
   4202   4215     1
   4203   4204     1
   4203   4207     1
   4203   4229     1
   4203   4225     1
   4203   4214     1
   4203   4215     1
   4204   4208     1
   4204   4209     1
   4204   4223     1
   4204   4224     1
   4205   4207     1
   4205   4229     1
   4205   4222     1
   4205   4217     1
   4205   4218     1
   4206   4207     1
   4206   4229     1
   4206   4222     1
   4206   4217     1
   4206   4218     1
   4207   4220     1
   4207   4221     1
   4208   4229     1
   4208   4219     1
   4208   4211     1
   4208   4212     1
   4209   4229     1
   4209   4219     1
   4209   4211     1
   4209   4212     1
   4210   4229     1
   4211   4228     1
   4211   4220     1
   4211   4221     1
   4212   4228     1
   4212   4220     1
   4212   4221     1
   4213   4229     1
   4214   8297     1
   4214   4226     1
   4214   4227     1
   4215   8297     1
   4215   4226     1
   4215   4227     1
   4216   4229     1
   4217   8274     1
   4217   4223     1
   4217   4224     1
   4218   8274     1
   4218   4223     1
   4218   4224     1
   4222   8273     1
   4223   8270     1
   4224   8270     1
   4225   8296     1
   4226   8293     1
   4227   8293     1
   4230   4244     1
   4230   4245     1
   4230   4247     1
   4230   4248     1
   4230   4241     1
   4230   4242     1
   4231   4235     1
   4231   4236     1
   4231   4238     1
   4231   4239     1
   4231   4256     1
   4231   4257     1
   4232   4234     1
   4232   4237     1
   4232   4259     1
   4232   4255     1
   4232   4244     1
   4232   4245     1
   4233   4234     1
   4233   4237     1
   4233   4259     1
   4233   4255     1
   4233   4244     1
   4233   4245     1
   4234   4238     1
   4234   4239     1
   4234   4253     1
   4234   4254     1
   4235   4237     1
   4235   4259     1
   4235   4252     1
   4235   4247     1
   4235   4248     1
   4236   4237     1
   4236   4259     1
   4236   4252     1
   4236   4247     1
   4236   4248     1
   4237   4250     1
   4237   4251     1
   4238   4259     1
   4238   4249     1
   4238   4241     1
   4238   4242     1
   4239   4259     1
   4239   4249     1
   4239   4241     1
   4239   4242     1
   4240   4259     1
   4241   4258     1
   4241   4250     1
   4241   4251     1
   4242   4258     1
   4242   4250     1
   4242   4251     1
   4243   4259     1
   4244   8343     1
   4244   4256     1
   4244   4257     1
   4245   8343     1
   4245   4256     1
   4245   4257     1
   4246   4259     1
   4247   8320     1
   4247   4253     1
   4247   4254     1
   4248   8320     1
   4248   4253     1
   4248   4254     1
   4252   8319     1
   4253   8316     1
   4254   8316     1
   4255   8342     1
   4256   8339     1
   4257   8339     1
   4260   4274     1
   4260   4275     1
   4260   4277     1
   4260   4278     1
   4260   4271     1
   4260   4272     1
   4261   4265     1
   4261   4266     1
   4261   4268     1
   4261   4269     1
   4261   4286     1
   4261   4287     1
   4262   4264     1
   4262   4267     1
   4262   4289     1
   4262   4285     1
   4262   4274     1
   4262   4275     1
   4263   4264     1
   4263   4267     1
   4263   4289     1
   4263   4285     1
   4263   4274     1
   4263   4275     1
   4264   4268     1
   4264   4269     1
   4264   4283     1
   4264   4284     1
   4265   4267     1
   4265   4289     1
   4265   4282     1
   4265   4277     1
   4265   4278     1
   4266   4267     1
   4266   4289     1
   4266   4282     1
   4266   4277     1
   4266   4278     1
   4267   4280     1
   4267   4281     1
   4268   4289     1
   4268   4279     1
   4268   4271     1
   4268   4272     1
   4269   4289     1
   4269   4279     1
   4269   4271     1
   4269   4272     1
   4270   4289     1
   4271   4288     1
   4271   4280     1
   4271   4281     1
   4272   4288     1
   4272   4280     1
   4272   4281     1
   4273   4289     1
   4274   8389     1
   4274   4286     1
   4274   4287     1
   4275   8389     1
   4275   4286     1
   4275   4287     1
   4276   4289     1
   4277   8366     1
   4277   4283     1
   4277   4284     1
   4278   8366     1
   4278   4283     1
   4278   4284     1
   4282   8365     1
   4283   8362     1
   4284   8362     1
   4285   8388     1
   4286   8385     1
   4287   8385     1
   4290   4304     1
   4290   4305     1
   4290   4307     1
   4290   4308     1
   4290   4301     1
   4290   4302     1
   4291   4295     1
   4291   4296     1
   4291   4298     1
   4291   4299     1
   4291   4316     1
   4291   4317     1
   4292   4294     1
   4292   4297     1
   4292   4319     1
   4292   4315     1
   4292   4304     1
   4292   4305     1
   4293   4294     1
   4293   4297     1
   4293   4319     1
   4293   4315     1
   4293   4304     1
   4293   4305     1
   4294   4298     1
   4294   4299     1
   4294   4313     1
   4294   4314     1
   4295   4297     1
   4295   4319     1
   4295   4312     1
   4295   4307     1
   4295   4308     1
   4296   4297     1
   4296   4319     1
   4296   4312     1
   4296   4307     1
   4296   4308     1
   4297   4310     1
   4297   4311     1
   4298   4319     1
   4298   4309     1
   4298   4301     1
   4298   4302     1
   4299   4319     1
   4299   4309     1
   4299   4301     1
   4299   4302     1
   4300   4319     1
   4301   4318     1
   4301   4310     1
   4301   4311     1
   4302   4318     1
   4302   4310     1
   4302   4311     1
   4303   4319     1
   4304   8435     1
   4304   4316     1
   4304   4317     1
   4305   8435     1
   4305   4316     1
   4305   4317     1
   4306   4319     1
   4307   8412     1
   4307   4313     1
   4307   4314     1
   4308   8412     1
   4308   4313     1
   4308   4314     1
   4312   8411     1
   4313   8408     1
   4314   8408     1
   4315   8434     1
   4316   8431     1
   4317   8431     1
   4320   4334     1
   4320   4335     1
   4320   4337     1
   4320   4338     1
   4320   4331     1
   4320   4332     1
   4321   4325     1
   4321   4326     1
   4321   4328     1
   4321   4329     1
   4321   4346     1
   4321   4347     1
   4322   4324     1
   4322   4327     1
   4322   4349     1
   4322   4345     1
   4322   4334     1
   4322   4335     1
   4323   4324     1
   4323   4327     1
   4323   4349     1
   4323   4345     1
   4323   4334     1
   4323   4335     1
   4324   4328     1
   4324   4329     1
   4324   4343     1
   4324   4344     1
   4325   4327     1
   4325   4349     1
   4325   4342     1
   4325   4337     1
   4325   4338     1
   4326   4327     1
   4326   4349     1
   4326   4342     1
   4326   4337     1
   4326   4338     1
   4327   4340     1
   4327   4341     1
   4328   4349     1
   4328   4339     1
   4328   4331     1
   4328   4332     1
   4329   4349     1
   4329   4339     1
   4329   4331     1
   4329   4332     1
   4330   4349     1
   4331   4348     1
   4331   4340     1
   4331   4341     1
   4332   4348     1
   4332   4340     1
   4332   4341     1
   4333   4349     1
   4334   8481     1
   4334   4346     1
   4334   4347     1
   4335   8481     1
   4335   4346     1
   4335   4347     1
   4336   4349     1
   4337   8458     1
   4337   4343     1
   4337   4344     1
   4338   8458     1
   4338   4343     1
   4338   4344     1
   4342   8457     1
   4343   8454     1
   4344   8454     1
   4345   8480     1
   4346   8477     1
   4347   8477     1
   4350   4364     1
   4350   4365     1
   4350   4367     1
   4350   4368     1
   4350   4361     1
   4350   4362     1
   4351   4355     1
   4351   4356     1
   4351   4358     1
   4351   4359     1
   4351   4376     1
   4351   4377     1
   4352   4354     1
   4352   4357     1
   4352   4379     1
   4352   4375     1
   4352   4364     1
   4352   4365     1
   4353   4354     1
   4353   4357     1
   4353   4379     1
   4353   4375     1
   4353   4364     1
   4353   4365     1
   4354   4358     1
   4354   4359     1
   4354   4373     1
   4354   4374     1
   4355   4357     1
   4355   4379     1
   4355   4372     1
   4355   4367     1
   4355   4368     1
   4356   4357     1
   4356   4379     1
   4356   4372     1
   4356   4367     1
   4356   4368     1
   4357   4370     1
   4357   4371     1
   4358   4379     1
   4358   4369     1
   4358   4361     1
   4358   4362     1
   4359   4379     1
   4359   4369     1
   4359   4361     1
   4359   4362     1
   4360   4379     1
   4361   4378     1
   4361   4370     1
   4361   4371     1
   4362   4378     1
   4362   4370     1
   4362   4371     1
   4363   4379     1
   4364   8527     1
   4364   4376     1
   4364   4377     1
   4365   8527     1
   4365   4376     1
   4365   4377     1
   4366   4379     1
   4367   8504     1
   4367   4373     1
   4367   4374     1
   4368   8504     1
   4368   4373     1
   4368   4374     1
   4372   8503     1
   4373   8500     1
   4374   8500     1
   4375   8526     1
   4376   8523     1
   4377   8523     1
   4380   4394     1
   4380   4395     1
   4380   4397     1
   4380   4398     1
   4380   4391     1
   4380   4392     1
   4381   4385     1
   4381   4386     1
   4381   4388     1
   4381   4389     1
   4381   4406     1
   4381   4407     1
   4382   4384     1
   4382   4387     1
   4382   4409     1
   4382   4405     1
   4382   4394     1
   4382   4395     1
   4383   4384     1
   4383   4387     1
   4383   4409     1
   4383   4405     1
   4383   4394     1
   4383   4395     1
   4384   4388     1
   4384   4389     1
   4384   4403     1
   4384   4404     1
   4385   4387     1
   4385   4409     1
   4385   4402     1
   4385   4397     1
   4385   4398     1
   4386   4387     1
   4386   4409     1
   4386   4402     1
   4386   4397     1
   4386   4398     1
   4387   4400     1
   4387   4401     1
   4388   4409     1
   4388   4399     1
   4388   4391     1
   4388   4392     1
   4389   4409     1
   4389   4399     1
   4389   4391     1
   4389   4392     1
   4390   4409     1
   4391   4408     1
   4391   4400     1
   4391   4401     1
   4392   4408     1
   4392   4400     1
   4392   4401     1
   4393   4409     1
   4394   8573     1
   4394   4406     1
   4394   4407     1
   4395   8573     1
   4395   4406     1
   4395   4407     1
   4396   4409     1
   4397   8550     1
   4397   4403     1
   4397   4404     1
   4398   8550     1
   4398   4403     1
   4398   4404     1
   4402   8549     1
   4403   8546     1
   4404   8546     1
   4405   8572     1
   4406   8569     1
   4407   8569     1
   4410   4424     1
   4410   4425     1
   4410   4427     1
   4410   4428     1
   4410   4421     1
   4410   4422     1
   4411   4415     1
   4411   4416     1
   4411   4418     1
   4411   4419     1
   4411   4436     1
   4411   4437     1
   4412   4414     1
   4412   4417     1
   4412   4439     1
   4412   4435     1
   4412   4424     1
   4412   4425     1
   4413   4414     1
   4413   4417     1
   4413   4439     1
   4413   4435     1
   4413   4424     1
   4413   4425     1
   4414   4418     1
   4414   4419     1
   4414   4433     1
   4414   4434     1
   4415   4417     1
   4415   4439     1
   4415   4432     1
   4415   4427     1
   4415   4428     1
   4416   4417     1
   4416   4439     1
   4416   4432     1
   4416   4427     1
   4416   4428     1
   4417   4430     1
   4417   4431     1
   4418   4439     1
   4418   4429     1
   4418   4421     1
   4418   4422     1
   4419   4439     1
   4419   4429     1
   4419   4421     1
   4419   4422     1
   4420   4439     1
   4421   4438     1
   4421   4430     1
   4421   4431     1
   4422   4438     1
   4422   4430     1
   4422   4431     1
   4423   4439     1
   4424   8619     1
   4424   4436     1
   4424   4437     1
   4425   8619     1
   4425   4436     1
   4425   4437     1
   4426   4439     1
   4427   8596     1
   4427   4433     1
   4427   4434     1
   4428   8596     1
   4428   4433     1
   4428   4434     1
   4432   8595     1
   4433   8592     1
   4434   8592     1
   4435   8618     1
   4436   8615     1
   4437   8615     1
   4440   4454     1
   4440   4455     1
   4440   4457     1
   4440   4458     1
   4440   4451     1
   4440   4452     1
   4441   4445     1
   4441   4446     1
   4441   4448     1
   4441   4449     1
   4441   4466     1
   4441   4467     1
   4442   4444     1
   4442   4447     1
   4442   4469     1
   4442   4465     1
   4442   4454     1
   4442   4455     1
   4443   4444     1
   4443   4447     1
   4443   4469     1
   4443   4465     1
   4443   4454     1
   4443   4455     1
   4444   4448     1
   4444   4449     1
   4444   4463     1
   4444   4464     1
   4445   4447     1
   4445   4469     1
   4445   4462     1
   4445   4457     1
   4445   4458     1
   4446   4447     1
   4446   4469     1
   4446   4462     1
   4446   4457     1
   4446   4458     1
   4447   4460     1
   4447   4461     1
   4448   4469     1
   4448   4459     1
   4448   4451     1
   4448   4452     1
   4449   4469     1
   4449   4459     1
   4449   4451     1
   4449   4452     1
   4450   4469     1
   4451   4468     1
   4451   4460     1
   4451   4461     1
   4452   4468     1
   4452   4460     1
   4452   4461     1
   4453   4469     1
   4454   8665     1
   4454   4466     1
   4454   4467     1
   4455   8665     1
   4455   4466     1
   4455   4467     1
   4456   4469     1
   4457   8642     1
   4457   4463     1
   4457   4464     1
   4458   8642     1
   4458   4463     1
   4458   4464     1
   4462   8641     1
   4463   8638     1
   4464   8638     1
   4465   8664     1
   4466   8661     1
   4467   8661     1
   4470   4484     1
   4470   4485     1
   4470   4487     1
   4470   4488     1
   4470   4481     1
   4470   4482     1
   4471   4475     1
   4471   4476     1
   4471   4478     1
   4471   4479     1
   4471   4496     1
   4471   4497     1
   4472   4474     1
   4472   4477     1
   4472   4499     1
   4472   4495     1
   4472   4484     1
   4472   4485     1
   4473   4474     1
   4473   4477     1
   4473   4499     1
   4473   4495     1
   4473   4484     1
   4473   4485     1
   4474   4478     1
   4474   4479     1
   4474   4493     1
   4474   4494     1
   4475   4477     1
   4475   4499     1
   4475   4492     1
   4475   4487     1
   4475   4488     1
   4476   4477     1
   4476   4499     1
   4476   4492     1
   4476   4487     1
   4476   4488     1
   4477   4490     1
   4477   4491     1
   4478   4499     1
   4478   4489     1
   4478   4481     1
   4478   4482     1
   4479   4499     1
   4479   4489     1
   4479   4481     1
   4479   4482     1
   4480   4499     1
   4481   4498     1
   4481   4490     1
   4481   4491     1
   4482   4498     1
   4482   4490     1
   4482   4491     1
   4483   4499     1
   4484   8711     1
   4484   4496     1
   4484   4497     1
   4485   8711     1
   4485   4496     1
   4485   4497     1
   4486   4499     1
   4487   8688     1
   4487   4493     1
   4487   4494     1
   4488   8688     1
   4488   4493     1
   4488   4494     1
   4492   8687     1
   4493   8684     1
   4494   8684     1
   4495   8710     1
   4496   8707     1
   4497   8707     1
   4500   4514     1
   4500   4515     1
   4500   4517     1
   4500   4518     1
   4500   4511     1
   4500   4512     1
   4501   4505     1
   4501   4506     1
   4501   4508     1
   4501   4509     1
   4501   4526     1
   4501   4527     1
   4502   4504     1
   4502   4507     1
   4502   4529     1
   4502   4525     1
   4502   4514     1
   4502   4515     1
   4503   4504     1
   4503   4507     1
   4503   4529     1
   4503   4525     1
   4503   4514     1
   4503   4515     1
   4504   4508     1
   4504   4509     1
   4504   4523     1
   4504   4524     1
   4505   4507     1
   4505   4529     1
   4505   4522     1
   4505   4517     1
   4505   4518     1
   4506   4507     1
   4506   4529     1
   4506   4522     1
   4506   4517     1
   4506   4518     1
   4507   4520     1
   4507   4521     1
   4508   4529     1
   4508   4519     1
   4508   4511     1
   4508   4512     1
   4509   4529     1
   4509   4519     1
   4509   4511     1
   4509   4512     1
   4510   4529     1
   4511   4528     1
   4511   4520     1
   4511   4521     1
   4512   4528     1
   4512   4520     1
   4512   4521     1
   4513   4529     1
   4514   8757     1
   4514   4526     1
   4514   4527     1
   4515   8757     1
   4515   4526     1
   4515   4527     1
   4516   4529     1
   4517   8734     1
   4517   4523     1
   4517   4524     1
   4518   8734     1
   4518   4523     1
   4518   4524     1
   4522   8733     1
   4523   8730     1
   4524   8730     1
   4525   8756     1
   4526   8753     1
   4527   8753     1
   4530   4544     1
   4530   4545     1
   4530   4547     1
   4530   4548     1
   4530   4541     1
   4530   4542     1
   4531   4535     1
   4531   4536     1
   4531   4538     1
   4531   4539     1
   4531   4556     1
   4531   4557     1
   4532   4534     1
   4532   4537     1
   4532   4559     1
   4532   4555     1
   4532   4544     1
   4532   4545     1
   4533   4534     1
   4533   4537     1
   4533   4559     1
   4533   4555     1
   4533   4544     1
   4533   4545     1
   4534   4538     1
   4534   4539     1
   4534   4553     1
   4534   4554     1
   4535   4537     1
   4535   4559     1
   4535   4552     1
   4535   4547     1
   4535   4548     1
   4536   4537     1
   4536   4559     1
   4536   4552     1
   4536   4547     1
   4536   4548     1
   4537   4550     1
   4537   4551     1
   4538   4559     1
   4538   4549     1
   4538   4541     1
   4538   4542     1
   4539   4559     1
   4539   4549     1
   4539   4541     1
   4539   4542     1
   4540   4559     1
   4541   4558     1
   4541   4550     1
   4541   4551     1
   4542   4558     1
   4542   4550     1
   4542   4551     1
   4543   4559     1
   4544   8803     1
   4544   4556     1
   4544   4557     1
   4545   8803     1
   4545   4556     1
   4545   4557     1
   4546   4559     1
   4547   8780     1
   4547   4553     1
   4547   4554     1
   4548   8780     1
   4548   4553     1
   4548   4554     1
   4552   8779     1
   4553   8776     1
   4554   8776     1
   4555   8802     1
   4556   8799     1
   4557   8799     1
   4560   4574     1
   4560   4575     1
   4560   4577     1
   4560   4578     1
   4560   4571     1
   4560   4572     1
   4561   4565     1
   4561   4566     1
   4561   4568     1
   4561   4569     1
   4561   4586     1
   4561   4587     1
   4562   4564     1
   4562   4567     1
   4562   4589     1
   4562   4585     1
   4562   4574     1
   4562   4575     1
   4563   4564     1
   4563   4567     1
   4563   4589     1
   4563   4585     1
   4563   4574     1
   4563   4575     1
   4564   4568     1
   4564   4569     1
   4564   4583     1
   4564   4584     1
   4565   4567     1
   4565   4589     1
   4565   4582     1
   4565   4577     1
   4565   4578     1
   4566   4567     1
   4566   4589     1
   4566   4582     1
   4566   4577     1
   4566   4578     1
   4567   4580     1
   4567   4581     1
   4568   4589     1
   4568   4579     1
   4568   4571     1
   4568   4572     1
   4569   4589     1
   4569   4579     1
   4569   4571     1
   4569   4572     1
   4570   4589     1
   4571   4588     1
   4571   4580     1
   4571   4581     1
   4572   4588     1
   4572   4580     1
   4572   4581     1
   4573   4589     1
   4574   8849     1
   4574   4586     1
   4574   4587     1
   4575   8849     1
   4575   4586     1
   4575   4587     1
   4576   4589     1
   4577   8826     1
   4577   4583     1
   4577   4584     1
   4578   8826     1
   4578   4583     1
   4578   4584     1
   4582   8825     1
   4583   8822     1
   4584   8822     1
   4585   8848     1
   4586   8845     1
   4587   8845     1
   4590   4604     1
   4590   4605     1
   4590   4607     1
   4590   4608     1
   4590   4601     1
   4590   4602     1
   4591   4595     1
   4591   4596     1
   4591   4598     1
   4591   4599     1
   4591   4616     1
   4591   4617     1
   4592   4594     1
   4592   4597     1
   4592   4619     1
   4592   4615     1
   4592   4604     1
   4592   4605     1
   4593   4594     1
   4593   4597     1
   4593   4619     1
   4593   4615     1
   4593   4604     1
   4593   4605     1
   4594   4598     1
   4594   4599     1
   4594   4613     1
   4594   4614     1
   4595   4597     1
   4595   4619     1
   4595   4612     1
   4595   4607     1
   4595   4608     1
   4596   4597     1
   4596   4619     1
   4596   4612     1
   4596   4607     1
   4596   4608     1
   4597   4610     1
   4597   4611     1
   4598   4619     1
   4598   4609     1
   4598   4601     1
   4598   4602     1
   4599   4619     1
   4599   4609     1
   4599   4601     1
   4599   4602     1
   4600   4619     1
   4601   4618     1
   4601   4610     1
   4601   4611     1
   4602   4618     1
   4602   4610     1
   4602   4611     1
   4603   4619     1
   4604   8895     1
   4604   4616     1
   4604   4617     1
   4605   8895     1
   4605   4616     1
   4605   4617     1
   4606   4619     1
   4607   8872     1
   4607   4613     1
   4607   4614     1
   4608   8872     1
   4608   4613     1
   4608   4614     1
   4612   8871     1
   4613   8868     1
   4614   8868     1
   4615   8894     1
   4616   8891     1
   4617   8891     1
   4620   4634     1
   4620   4635     1
   4620   4637     1
   4620   4638     1
   4620   4631     1
   4620   4632     1
   4621   4625     1
   4621   4626     1
   4621   4628     1
   4621   4629     1
   4621   4646     1
   4621   4647     1
   4622   4624     1
   4622   4627     1
   4622   4649     1
   4622   4645     1
   4622   4634     1
   4622   4635     1
   4623   4624     1
   4623   4627     1
   4623   4649     1
   4623   4645     1
   4623   4634     1
   4623   4635     1
   4624   4628     1
   4624   4629     1
   4624   4643     1
   4624   4644     1
   4625   4627     1
   4625   4649     1
   4625   4642     1
   4625   4637     1
   4625   4638     1
   4626   4627     1
   4626   4649     1
   4626   4642     1
   4626   4637     1
   4626   4638     1
   4627   4640     1
   4627   4641     1
   4628   4649     1
   4628   4639     1
   4628   4631     1
   4628   4632     1
   4629   4649     1
   4629   4639     1
   4629   4631     1
   4629   4632     1
   4630   4649     1
   4631   4648     1
   4631   4640     1
   4631   4641     1
   4632   4648     1
   4632   4640     1
   4632   4641     1
   4633   4649     1
   4634   8941     1
   4634   4646     1
   4634   4647     1
   4635   8941     1
   4635   4646     1
   4635   4647     1
   4636   4649     1
   4637   8918     1
   4637   4643     1
   4637   4644     1
   4638   8918     1
   4638   4643     1
   4638   4644     1
   4642   8917     1
   4643   8914     1
   4644   8914     1
   4645   8940     1
   4646   8937     1
   4647   8937     1
   4650   4664     1
   4650   4665     1
   4650   4667     1
   4650   4668     1
   4650   4661     1
   4650   4662     1
   4651   4655     1
   4651   4656     1
   4651   4658     1
   4651   4659     1
   4651   4676     1
   4651   4677     1
   4652   4654     1
   4652   4657     1
   4652   4679     1
   4652   4675     1
   4652   4664     1
   4652   4665     1
   4653   4654     1
   4653   4657     1
   4653   4679     1
   4653   4675     1
   4653   4664     1
   4653   4665     1
   4654   4658     1
   4654   4659     1
   4654   4673     1
   4654   4674     1
   4655   4657     1
   4655   4679     1
   4655   4672     1
   4655   4667     1
   4655   4668     1
   4656   4657     1
   4656   4679     1
   4656   4672     1
   4656   4667     1
   4656   4668     1
   4657   4670     1
   4657   4671     1
   4658   4679     1
   4658   4669     1
   4658   4661     1
   4658   4662     1
   4659   4679     1
   4659   4669     1
   4659   4661     1
   4659   4662     1
   4660   4679     1
   4661   4678     1
   4661   4670     1
   4661   4671     1
   4662   4678     1
   4662   4670     1
   4662   4671     1
   4663   4679     1
   4664   8987     1
   4664   4676     1
   4664   4677     1
   4665   8987     1
   4665   4676     1
   4665   4677     1
   4666   4679     1
   4667   8964     1
   4667   4673     1
   4667   4674     1
   4668   8964     1
   4668   4673     1
   4668   4674     1
   4672   8963     1
   4673   8960     1
   4674   8960     1
   4675   8986     1
   4676   8983     1
   4677   8983     1
   4680   4694     1
   4680   4695     1
   4680   4697     1
   4680   4698     1
   4680   4691     1
   4680   4692     1
   4681   4685     1
   4681   4686     1
   4681   4688     1
   4681   4689     1
   4681   4706     1
   4681   4707     1
   4682   4684     1
   4682   4687     1
   4682   4709     1
   4682   4705     1
   4682   4694     1
   4682   4695     1
   4683   4684     1
   4683   4687     1
   4683   4709     1
   4683   4705     1
   4683   4694     1
   4683   4695     1
   4684   4688     1
   4684   4689     1
   4684   4703     1
   4684   4704     1
   4685   4687     1
   4685   4709     1
   4685   4702     1
   4685   4697     1
   4685   4698     1
   4686   4687     1
   4686   4709     1
   4686   4702     1
   4686   4697     1
   4686   4698     1
   4687   4700     1
   4687   4701     1
   4688   4709     1
   4688   4699     1
   4688   4691     1
   4688   4692     1
   4689   4709     1
   4689   4699     1
   4689   4691     1
   4689   4692     1
   4690   4709     1
   4691   4708     1
   4691   4700     1
   4691   4701     1
   4692   4708     1
   4692   4700     1
   4692   4701     1
   4693   4709     1
   4694   9033     1
   4694   4706     1
   4694   4707     1
   4695   9033     1
   4695   4706     1
   4695   4707     1
   4696   4709     1
   4697   9010     1
   4697   4703     1
   4697   4704     1
   4698   9010     1
   4698   4703     1
   4698   4704     1
   4702   9009     1
   4703   9006     1
   4704   9006     1
   4705   9032     1
   4706   9029     1
   4707   9029     1
   4710   4724     1
   4710   4725     1
   4710   4727     1
   4710   4728     1
   4710   4721     1
   4710   4722     1
   4711   4715     1
   4711   4716     1
   4711   4718     1
   4711   4719     1
   4711   4736     1
   4711   4737     1
   4712   4714     1
   4712   4717     1
   4712   4739     1
   4712   4735     1
   4712   4724     1
   4712   4725     1
   4713   4714     1
   4713   4717     1
   4713   4739     1
   4713   4735     1
   4713   4724     1
   4713   4725     1
   4714   4718     1
   4714   4719     1
   4714   4733     1
   4714   4734     1
   4715   4717     1
   4715   4739     1
   4715   4732     1
   4715   4727     1
   4715   4728     1
   4716   4717     1
   4716   4739     1
   4716   4732     1
   4716   4727     1
   4716   4728     1
   4717   4730     1
   4717   4731     1
   4718   4739     1
   4718   4729     1
   4718   4721     1
   4718   4722     1
   4719   4739     1
   4719   4729     1
   4719   4721     1
   4719   4722     1
   4720   4739     1
   4721   4738     1
   4721   4730     1
   4721   4731     1
   4722   4738     1
   4722   4730     1
   4722   4731     1
   4723   4739     1
   4724   9079     1
   4724   4736     1
   4724   4737     1
   4725   9079     1
   4725   4736     1
   4725   4737     1
   4726   4739     1
   4727   9056     1
   4727   4733     1
   4727   4734     1
   4728   9056     1
   4728   4733     1
   4728   4734     1
   4732   9055     1
   4733   9052     1
   4734   9052     1
   4735   9078     1
   4736   9075     1
   4737   9075     1
   4740   4754     1
   4740   4755     1
   4740   4757     1
   4740   4758     1
   4740   4751     1
   4740   4752     1
   4741   4745     1
   4741   4746     1
   4741   4748     1
   4741   4749     1
   4741   4766     1
   4741   4767     1
   4742   4744     1
   4742   4747     1
   4742   4769     1
   4742   4765     1
   4742   4754     1
   4742   4755     1
   4743   4744     1
   4743   4747     1
   4743   4769     1
   4743   4765     1
   4743   4754     1
   4743   4755     1
   4744   4748     1
   4744   4749     1
   4744   4763     1
   4744   4764     1
   4745   4747     1
   4745   4769     1
   4745   4762     1
   4745   4757     1
   4745   4758     1
   4746   4747     1
   4746   4769     1
   4746   4762     1
   4746   4757     1
   4746   4758     1
   4747   4760     1
   4747   4761     1
   4748   4769     1
   4748   4759     1
   4748   4751     1
   4748   4752     1
   4749   4769     1
   4749   4759     1
   4749   4751     1
   4749   4752     1
   4750   4769     1
   4751   4768     1
   4751   4760     1
   4751   4761     1
   4752   4768     1
   4752   4760     1
   4752   4761     1
   4753   4769     1
   4754   9125     1
   4754   4766     1
   4754   4767     1
   4755   9125     1
   4755   4766     1
   4755   4767     1
   4756   4769     1
   4757   9102     1
   4757   4763     1
   4757   4764     1
   4758   9102     1
   4758   4763     1
   4758   4764     1
   4762   9101     1
   4763   9098     1
   4764   9098     1
   4765   9124     1
   4766   9121     1
   4767   9121     1
   4770   4784     1
   4770   4785     1
   4770   4787     1
   4770   4788     1
   4770   4781     1
   4770   4782     1
   4771   4775     1
   4771   4776     1
   4771   4778     1
   4771   4779     1
   4771   4796     1
   4771   4797     1
   4772   4774     1
   4772   4777     1
   4772   4799     1
   4772   4795     1
   4772   4784     1
   4772   4785     1
   4773   4774     1
   4773   4777     1
   4773   4799     1
   4773   4795     1
   4773   4784     1
   4773   4785     1
   4774   4778     1
   4774   4779     1
   4774   4793     1
   4774   4794     1
   4775   4777     1
   4775   4799     1
   4775   4792     1
   4775   4787     1
   4775   4788     1
   4776   4777     1
   4776   4799     1
   4776   4792     1
   4776   4787     1
   4776   4788     1
   4777   4790     1
   4777   4791     1
   4778   4799     1
   4778   4789     1
   4778   4781     1
   4778   4782     1
   4779   4799     1
   4779   4789     1
   4779   4781     1
   4779   4782     1
   4780   4799     1
   4781   4798     1
   4781   4790     1
   4781   4791     1
   4782   4798     1
   4782   4790     1
   4782   4791     1
   4783   4799     1
   4784   9171     1
   4784   4796     1
   4784   4797     1
   4785   9171     1
   4785   4796     1
   4785   4797     1
   4786   4799     1
   4787   9148     1
   4787   4793     1
   4787   4794     1
   4788   9148     1
   4788   4793     1
   4788   4794     1
   4792   9147     1
   4793   9144     1
   4794   9144     1
   4795   9170     1
   4796   9167     1
   4797   9167     1
   4800   4814     1
   4800   4815     1
   4800   4817     1
   4800   4818     1
   4800   4811     1
   4800   4812     1
   4801   4805     1
   4801   4806     1
   4801   4808     1
   4801   4809     1
   4801   4826     1
   4801   4827     1
   4802   4804     1
   4802   4807     1
   4802   4829     1
   4802   4825     1
   4802   4814     1
   4802   4815     1
   4803   4804     1
   4803   4807     1
   4803   4829     1
   4803   4825     1
   4803   4814     1
   4803   4815     1
   4804   4808     1
   4804   4809     1
   4804   4823     1
   4804   4824     1
   4805   4807     1
   4805   4829     1
   4805   4822     1
   4805   4817     1
   4805   4818     1
   4806   4807     1
   4806   4829     1
   4806   4822     1
   4806   4817     1
   4806   4818     1
   4807   4820     1
   4807   4821     1
   4808   4829     1
   4808   4819     1
   4808   4811     1
   4808   4812     1
   4809   4829     1
   4809   4819     1
   4809   4811     1
   4809   4812     1
   4810   4829     1
   4811   4828     1
   4811   4820     1
   4811   4821     1
   4812   4828     1
   4812   4820     1
   4812   4821     1
   4813   4829     1
   4814   9217     1
   4814   4826     1
   4814   4827     1
   4815   9217     1
   4815   4826     1
   4815   4827     1
   4816   4829     1
   4817   9194     1
   4817   4823     1
   4817   4824     1
   4818   9194     1
   4818   4823     1
   4818   4824     1
   4822   9193     1
   4823   9190     1
   4824   9190     1
   4825   9216     1
   4826   9213     1
   4827   9213     1
   4830   4844     1
   4830   4845     1
   4830   4847     1
   4830   4848     1
   4830   4841     1
   4830   4842     1
   4831   4835     1
   4831   4836     1
   4831   4838     1
   4831   4839     1
   4831   4856     1
   4831   4857     1
   4832   4834     1
   4832   4837     1
   4832   4859     1
   4832   4855     1
   4832   4844     1
   4832   4845     1
   4833   4834     1
   4833   4837     1
   4833   4859     1
   4833   4855     1
   4833   4844     1
   4833   4845     1
   4834   4838     1
   4834   4839     1
   4834   4853     1
   4834   4854     1
   4835   4837     1
   4835   4859     1
   4835   4852     1
   4835   4847     1
   4835   4848     1
   4836   4837     1
   4836   4859     1
   4836   4852     1
   4836   4847     1
   4836   4848     1
   4837   4850     1
   4837   4851     1
   4838   4859     1
   4838   4849     1
   4838   4841     1
   4838   4842     1
   4839   4859     1
   4839   4849     1
   4839   4841     1
   4839   4842     1
   4840   4859     1
   4841   4858     1
   4841   4850     1
   4841   4851     1
   4842   4858     1
   4842   4850     1
   4842   4851     1
   4843   4859     1
   4844   9263     1
   4844   4856     1
   4844   4857     1
   4845   9263     1
   4845   4856     1
   4845   4857     1
   4846   4859     1
   4847   9240     1
   4847   4853     1
   4847   4854     1
   4848   9240     1
   4848   4853     1
   4848   4854     1
   4852   9239     1
   4853   9236     1
   4854   9236     1
   4855   9262     1
   4856   9259     1
   4857   9259     1
   4860   4874     1
   4860   4875     1
   4860   4877     1
   4860   4878     1
   4860   4871     1
   4860   4872     1
   4861   4865     1
   4861   4866     1
   4861   4868     1
   4861   4869     1
   4861   4886     1
   4861   4887     1
   4862   4864     1
   4862   4867     1
   4862   4889     1
   4862   4885     1
   4862   4874     1
   4862   4875     1
   4863   4864     1
   4863   4867     1
   4863   4889     1
   4863   4885     1
   4863   4874     1
   4863   4875     1
   4864   4868     1
   4864   4869     1
   4864   4883     1
   4864   4884     1
   4865   4867     1
   4865   4889     1
   4865   4882     1
   4865   4877     1
   4865   4878     1
   4866   4867     1
   4866   4889     1
   4866   4882     1
   4866   4877     1
   4866   4878     1
   4867   4880     1
   4867   4881     1
   4868   4889     1
   4868   4879     1
   4868   4871     1
   4868   4872     1
   4869   4889     1
   4869   4879     1
   4869   4871     1
   4869   4872     1
   4870   4889     1
   4871   4888     1
   4871   4880     1
   4871   4881     1
   4872   4888     1
   4872   4880     1
   4872   4881     1
   4873   4889     1
   4874   9309     1
   4874   4886     1
   4874   4887     1
   4875   9309     1
   4875   4886     1
   4875   4887     1
   4876   4889     1
   4877   9286     1
   4877   4883     1
   4877   4884     1
   4878   9286     1
   4878   4883     1
   4878   4884     1
   4882   9285     1
   4883   9282     1
   4884   9282     1
   4885   9308     1
   4886   9305     1
   4887   9305     1
   4890   4904     1
   4890   4905     1
   4890   4907     1
   4890   4908     1
   4890   4901     1
   4890   4902     1
   4891   4895     1
   4891   4896     1
   4891   4898     1
   4891   4899     1
   4891   4916     1
   4891   4917     1
   4892   4894     1
   4892   4897     1
   4892   4919     1
   4892   4915     1
   4892   4904     1
   4892   4905     1
   4893   4894     1
   4893   4897     1
   4893   4919     1
   4893   4915     1
   4893   4904     1
   4893   4905     1
   4894   4898     1
   4894   4899     1
   4894   4913     1
   4894   4914     1
   4895   4897     1
   4895   4919     1
   4895   4912     1
   4895   4907     1
   4895   4908     1
   4896   4897     1
   4896   4919     1
   4896   4912     1
   4896   4907     1
   4896   4908     1
   4897   4910     1
   4897   4911     1
   4898   4919     1
   4898   4909     1
   4898   4901     1
   4898   4902     1
   4899   4919     1
   4899   4909     1
   4899   4901     1
   4899   4902     1
   4900   4919     1
   4901   4918     1
   4901   4910     1
   4901   4911     1
   4902   4918     1
   4902   4910     1
   4902   4911     1
   4903   4919     1
   4904   9355     1
   4904   4916     1
   4904   4917     1
   4905   9355     1
   4905   4916     1
   4905   4917     1
   4906   4919     1
   4907   9332     1
   4907   4913     1
   4907   4914     1
   4908   9332     1
   4908   4913     1
   4908   4914     1
   4912   9331     1
   4913   9328     1
   4914   9328     1
   4915   9354     1
   4916   9351     1
   4917   9351     1
   4920   4934     1
   4920   4935     1
   4920   4937     1
   4920   4938     1
   4920   4931     1
   4920   4932     1
   4921   4925     1
   4921   4926     1
   4921   4928     1
   4921   4929     1
   4921   4946     1
   4921   4947     1
   4922   4924     1
   4922   4927     1
   4922   4949     1
   4922   4945     1
   4922   4934     1
   4922   4935     1
   4923   4924     1
   4923   4927     1
   4923   4949     1
   4923   4945     1
   4923   4934     1
   4923   4935     1
   4924   4928     1
   4924   4929     1
   4924   4943     1
   4924   4944     1
   4925   4927     1
   4925   4949     1
   4925   4942     1
   4925   4937     1
   4925   4938     1
   4926   4927     1
   4926   4949     1
   4926   4942     1
   4926   4937     1
   4926   4938     1
   4927   4940     1
   4927   4941     1
   4928   4949     1
   4928   4939     1
   4928   4931     1
   4928   4932     1
   4929   4949     1
   4929   4939     1
   4929   4931     1
   4929   4932     1
   4930   4949     1
   4931   4948     1
   4931   4940     1
   4931   4941     1
   4932   4948     1
   4932   4940     1
   4932   4941     1
   4933   4949     1
   4934   9401     1
   4934   4946     1
   4934   4947     1
   4935   9401     1
   4935   4946     1
   4935   4947     1
   4936   4949     1
   4937   9378     1
   4937   4943     1
   4937   4944     1
   4938   9378     1
   4938   4943     1
   4938   4944     1
   4942   9377     1
   4943   9374     1
   4944   9374     1
   4945   9400     1
   4946   9397     1
   4947   9397     1
   4950   4964     1
   4950   4965     1
   4950   4967     1
   4950   4968     1
   4950   4961     1
   4950   4962     1
   4951   4955     1
   4951   4956     1
   4951   4958     1
   4951   4959     1
   4951   4976     1
   4951   4977     1
   4952   4954     1
   4952   4957     1
   4952   4979     1
   4952   4975     1
   4952   4964     1
   4952   4965     1
   4953   4954     1
   4953   4957     1
   4953   4979     1
   4953   4975     1
   4953   4964     1
   4953   4965     1
   4954   4958     1
   4954   4959     1
   4954   4973     1
   4954   4974     1
   4955   4957     1
   4955   4979     1
   4955   4972     1
   4955   4967     1
   4955   4968     1
   4956   4957     1
   4956   4979     1
   4956   4972     1
   4956   4967     1
   4956   4968     1
   4957   4970     1
   4957   4971     1
   4958   4979     1
   4958   4969     1
   4958   4961     1
   4958   4962     1
   4959   4979     1
   4959   4969     1
   4959   4961     1
   4959   4962     1
   4960   4979     1
   4961   4978     1
   4961   4970     1
   4961   4971     1
   4962   4978     1
   4962   4970     1
   4962   4971     1
   4963   4979     1
   4964   9447     1
   4964   4976     1
   4964   4977     1
   4965   9447     1
   4965   4976     1
   4965   4977     1
   4966   4979     1
   4967   9424     1
   4967   4973     1
   4967   4974     1
   4968   9424     1
   4968   4973     1
   4968   4974     1
   4972   9423     1
   4973   9420     1
   4974   9420     1
   4975   9446     1
   4976   9443     1
   4977   9443     1
   4980   4994     1
   4980   4995     1
   4980   4997     1
   4980   4998     1
   4980   4991     1
   4980   4992     1
   4981   4985     1
   4981   4986     1
   4981   4988     1
   4981   4989     1
   4981   5006     1
   4981   5007     1
   4982   4984     1
   4982   4987     1
   4982   5009     1
   4982   5005     1
   4982   4994     1
   4982   4995     1
   4983   4984     1
   4983   4987     1
   4983   5009     1
   4983   5005     1
   4983   4994     1
   4983   4995     1
   4984   4988     1
   4984   4989     1
   4984   5003     1
   4984   5004     1
   4985   4987     1
   4985   5009     1
   4985   5002     1
   4985   4997     1
   4985   4998     1
   4986   4987     1
   4986   5009     1
   4986   5002     1
   4986   4997     1
   4986   4998     1
   4987   5000     1
   4987   5001     1
   4988   5009     1
   4988   4999     1
   4988   4991     1
   4988   4992     1
   4989   5009     1
   4989   4999     1
   4989   4991     1
   4989   4992     1
   4990   5009     1
   4991   5008     1
   4991   5000     1
   4991   5001     1
   4992   5008     1
   4992   5000     1
   4992   5001     1
   4993   5009     1
   4994   9493     1
   4994   5006     1
   4994   5007     1
   4995   9493     1
   4995   5006     1
   4995   5007     1
   4996   5009     1
   4997   9470     1
   4997   5003     1
   4997   5004     1
   4998   9470     1
   4998   5003     1
   4998   5004     1
   5002   9469     1
   5003   9466     1
   5004   9466     1
   5005   9492     1
   5006   9489     1
   5007   9489     1
   5010   5024     1
   5010   5025     1
   5010   5027     1
   5010   5028     1
   5010   5021     1
   5010   5022     1
   5011   5015     1
   5011   5016     1
   5011   5018     1
   5011   5019     1
   5011   5036     1
   5011   5037     1
   5012   5014     1
   5012   5017     1
   5012   5039     1
   5012   5035     1
   5012   5024     1
   5012   5025     1
   5013   5014     1
   5013   5017     1
   5013   5039     1
   5013   5035     1
   5013   5024     1
   5013   5025     1
   5014   5018     1
   5014   5019     1
   5014   5033     1
   5014   5034     1
   5015   5017     1
   5015   5039     1
   5015   5032     1
   5015   5027     1
   5015   5028     1
   5016   5017     1
   5016   5039     1
   5016   5032     1
   5016   5027     1
   5016   5028     1
   5017   5030     1
   5017   5031     1
   5018   5039     1
   5018   5029     1
   5018   5021     1
   5018   5022     1
   5019   5039     1
   5019   5029     1
   5019   5021     1
   5019   5022     1
   5020   5039     1
   5021   5038     1
   5021   5030     1
   5021   5031     1
   5022   5038     1
   5022   5030     1
   5022   5031     1
   5023   5039     1
   5024   9539     1
   5024   5036     1
   5024   5037     1
   5025   9539     1
   5025   5036     1
   5025   5037     1
   5026   5039     1
   5027   9516     1
   5027   5033     1
   5027   5034     1
   5028   9516     1
   5028   5033     1
   5028   5034     1
   5032   9515     1
   5033   9512     1
   5034   9512     1
   5035   9538     1
   5036   9535     1
   5037   9535     1
   5040   5054     1
   5040   5055     1
   5040   5057     1
   5040   5058     1
   5040   5051     1
   5040   5052     1
   5041   5045     1
   5041   5046     1
   5041   5048     1
   5041   5049     1
   5041   5066     1
   5041   5067     1
   5042   5044     1
   5042   5047     1
   5042   5069     1
   5042   5065     1
   5042   5054     1
   5042   5055     1
   5043   5044     1
   5043   5047     1
   5043   5069     1
   5043   5065     1
   5043   5054     1
   5043   5055     1
   5044   5048     1
   5044   5049     1
   5044   5063     1
   5044   5064     1
   5045   5047     1
   5045   5069     1
   5045   5062     1
   5045   5057     1
   5045   5058     1
   5046   5047     1
   5046   5069     1
   5046   5062     1
   5046   5057     1
   5046   5058     1
   5047   5060     1
   5047   5061     1
   5048   5069     1
   5048   5059     1
   5048   5051     1
   5048   5052     1
   5049   5069     1
   5049   5059     1
   5049   5051     1
   5049   5052     1
   5050   5069     1
   5051   5068     1
   5051   5060     1
   5051   5061     1
   5052   5068     1
   5052   5060     1
   5052   5061     1
   5053   5069     1
   5054   9585     1
   5054   5066     1
   5054   5067     1
   5055   9585     1
   5055   5066     1
   5055   5067     1
   5056   5069     1
   5057   9562     1
   5057   5063     1
   5057   5064     1
   5058   9562     1
   5058   5063     1
   5058   5064     1
   5062   9561     1
   5063   9558     1
   5064   9558     1
   5065   9584     1
   5066   9581     1
   5067   9581     1
   5070   5084     1
   5070   5085     1
   5070   5087     1
   5070   5088     1
   5070   5081     1
   5070   5082     1
   5071   5075     1
   5071   5076     1
   5071   5078     1
   5071   5079     1
   5071   5096     1
   5071   5097     1
   5072   5074     1
   5072   5077     1
   5072   5099     1
   5072   5095     1
   5072   5084     1
   5072   5085     1
   5073   5074     1
   5073   5077     1
   5073   5099     1
   5073   5095     1
   5073   5084     1
   5073   5085     1
   5074   5078     1
   5074   5079     1
   5074   5093     1
   5074   5094     1
   5075   5077     1
   5075   5099     1
   5075   5092     1
   5075   5087     1
   5075   5088     1
   5076   5077     1
   5076   5099     1
   5076   5092     1
   5076   5087     1
   5076   5088     1
   5077   5090     1
   5077   5091     1
   5078   5099     1
   5078   5089     1
   5078   5081     1
   5078   5082     1
   5079   5099     1
   5079   5089     1
   5079   5081     1
   5079   5082     1
   5080   5099     1
   5081   5098     1
   5081   5090     1
   5081   5091     1
   5082   5098     1
   5082   5090     1
   5082   5091     1
   5083   5099     1
   5084   9631     1
   5084   5096     1
   5084   5097     1
   5085   9631     1
   5085   5096     1
   5085   5097     1
   5086   5099     1
   5087   9608     1
   5087   5093     1
   5087   5094     1
   5088   9608     1
   5088   5093     1
   5088   5094     1
   5092   9607     1
   5093   9604     1
   5094   9604     1
   5095   9630     1
   5096   9627     1
   5097   9627     1
   5100   5114     1
   5100   5115     1
   5100   5117     1
   5100   5118     1
   5100   5111     1
   5100   5112     1
   5101   5105     1
   5101   5106     1
   5101   5108     1
   5101   5109     1
   5101   5126     1
   5101   5127     1
   5102   5104     1
   5102   5107     1
   5102   5129     1
   5102   5125     1
   5102   5114     1
   5102   5115     1
   5103   5104     1
   5103   5107     1
   5103   5129     1
   5103   5125     1
   5103   5114     1
   5103   5115     1
   5104   5108     1
   5104   5109     1
   5104   5123     1
   5104   5124     1
   5105   5107     1
   5105   5129     1
   5105   5122     1
   5105   5117     1
   5105   5118     1
   5106   5107     1
   5106   5129     1
   5106   5122     1
   5106   5117     1
   5106   5118     1
   5107   5120     1
   5107   5121     1
   5108   5129     1
   5108   5119     1
   5108   5111     1
   5108   5112     1
   5109   5129     1
   5109   5119     1
   5109   5111     1
   5109   5112     1
   5110   5129     1
   5111   5128     1
   5111   5120     1
   5111   5121     1
   5112   5128     1
   5112   5120     1
   5112   5121     1
   5113   5129     1
   5114   9677     1
   5114   5126     1
   5114   5127     1
   5115   9677     1
   5115   5126     1
   5115   5127     1
   5116   5129     1
   5117   9654     1
   5117   5123     1
   5117   5124     1
   5118   9654     1
   5118   5123     1
   5118   5124     1
   5122   9653     1
   5123   9650     1
   5124   9650     1
   5125   9676     1
   5126   9673     1
   5127   9673     1
   5130   5144     1
   5130   5145     1
   5130   5147     1
   5130   5148     1
   5130   5141     1
   5130   5142     1
   5131   5135     1
   5131   5136     1
   5131   5138     1
   5131   5139     1
   5131   5156     1
   5131   5157     1
   5132   5134     1
   5132   5137     1
   5132   5159     1
   5132   5155     1
   5132   5144     1
   5132   5145     1
   5133   5134     1
   5133   5137     1
   5133   5159     1
   5133   5155     1
   5133   5144     1
   5133   5145     1
   5134   5138     1
   5134   5139     1
   5134   5153     1
   5134   5154     1
   5135   5137     1
   5135   5159     1
   5135   5152     1
   5135   5147     1
   5135   5148     1
   5136   5137     1
   5136   5159     1
   5136   5152     1
   5136   5147     1
   5136   5148     1
   5137   5150     1
   5137   5151     1
   5138   5159     1
   5138   5149     1
   5138   5141     1
   5138   5142     1
   5139   5159     1
   5139   5149     1
   5139   5141     1
   5139   5142     1
   5140   5159     1
   5141   5158     1
   5141   5150     1
   5141   5151     1
   5142   5158     1
   5142   5150     1
   5142   5151     1
   5143   5159     1
   5144   9723     1
   5144   5156     1
   5144   5157     1
   5145   9723     1
   5145   5156     1
   5145   5157     1
   5146   5159     1
   5147   9700     1
   5147   5153     1
   5147   5154     1
   5148   9700     1
   5148   5153     1
   5148   5154     1
   5152   9699     1
   5153   9696     1
   5154   9696     1
   5155   9722     1
   5156   9719     1
   5157   9719     1
   5160   5174     1
   5160   5175     1
   5160   5177     1
   5160   5178     1
   5160   5171     1
   5160   5172     1
   5161   5165     1
   5161   5166     1
   5161   5168     1
   5161   5169     1
   5161   5186     1
   5161   5187     1
   5162   5164     1
   5162   5167     1
   5162   5189     1
   5162   5185     1
   5162   5174     1
   5162   5175     1
   5163   5164     1
   5163   5167     1
   5163   5189     1
   5163   5185     1
   5163   5174     1
   5163   5175     1
   5164   5168     1
   5164   5169     1
   5164   5183     1
   5164   5184     1
   5165   5167     1
   5165   5189     1
   5165   5182     1
   5165   5177     1
   5165   5178     1
   5166   5167     1
   5166   5189     1
   5166   5182     1
   5166   5177     1
   5166   5178     1
   5167   5180     1
   5167   5181     1
   5168   5189     1
   5168   5179     1
   5168   5171     1
   5168   5172     1
   5169   5189     1
   5169   5179     1
   5169   5171     1
   5169   5172     1
   5170   5189     1
   5171   5188     1
   5171   5180     1
   5171   5181     1
   5172   5188     1
   5172   5180     1
   5172   5181     1
   5173   5189     1
   5174   9769     1
   5174   5186     1
   5174   5187     1
   5175   9769     1
   5175   5186     1
   5175   5187     1
   5176   5189     1
   5177   9746     1
   5177   5183     1
   5177   5184     1
   5178   9746     1
   5178   5183     1
   5178   5184     1
   5182   9745     1
   5183   9742     1
   5184   9742     1
   5185   9768     1
   5186   9765     1
   5187   9765     1
   5190   5204     1
   5190   5205     1
   5190   5207     1
   5190   5208     1
   5190   5201     1
   5190   5202     1
   5191   5195     1
   5191   5196     1
   5191   5198     1
   5191   5199     1
   5191   5216     1
   5191   5217     1
   5192   5194     1
   5192   5197     1
   5192   5219     1
   5192   5215     1
   5192   5204     1
   5192   5205     1
   5193   5194     1
   5193   5197     1
   5193   5219     1
   5193   5215     1
   5193   5204     1
   5193   5205     1
   5194   5198     1
   5194   5199     1
   5194   5213     1
   5194   5214     1
   5195   5197     1
   5195   5219     1
   5195   5212     1
   5195   5207     1
   5195   5208     1
   5196   5197     1
   5196   5219     1
   5196   5212     1
   5196   5207     1
   5196   5208     1
   5197   5210     1
   5197   5211     1
   5198   5219     1
   5198   5209     1
   5198   5201     1
   5198   5202     1
   5199   5219     1
   5199   5209     1
   5199   5201     1
   5199   5202     1
   5200   5219     1
   5201   5218     1
   5201   5210     1
   5201   5211     1
   5202   5218     1
   5202   5210     1
   5202   5211     1
   5203   5219     1
   5204   9815     1
   5204   5216     1
   5204   5217     1
   5205   9815     1
   5205   5216     1
   5205   5217     1
   5206   5219     1
   5207   9792     1
   5207   5213     1
   5207   5214     1
   5208   9792     1
   5208   5213     1
   5208   5214     1
   5212   9791     1
   5213   9788     1
   5214   9788     1
   5215   9814     1
   5216   9811     1
   5217   9811     1
   5220   5234     1
   5220   5235     1
   5220   5237     1
   5220   5238     1
   5220   5231     1
   5220   5232     1
   5221   5225     1
   5221   5226     1
   5221   5228     1
   5221   5229     1
   5221   5246     1
   5221   5247     1
   5222   5224     1
   5222   5227     1
   5222   5249     1
   5222   5245     1
   5222   5234     1
   5222   5235     1
   5223   5224     1
   5223   5227     1
   5223   5249     1
   5223   5245     1
   5223   5234     1
   5223   5235     1
   5224   5228     1
   5224   5229     1
   5224   5243     1
   5224   5244     1
   5225   5227     1
   5225   5249     1
   5225   5242     1
   5225   5237     1
   5225   5238     1
   5226   5227     1
   5226   5249     1
   5226   5242     1
   5226   5237     1
   5226   5238     1
   5227   5240     1
   5227   5241     1
   5228   5249     1
   5228   5239     1
   5228   5231     1
   5228   5232     1
   5229   5249     1
   5229   5239     1
   5229   5231     1
   5229   5232     1
   5230   5249     1
   5231   5248     1
   5231   5240     1
   5231   5241     1
   5232   5248     1
   5232   5240     1
   5232   5241     1
   5233   5249     1
   5234   9861     1
   5234   5246     1
   5234   5247     1
   5235   9861     1
   5235   5246     1
   5235   5247     1
   5236   5249     1
   5237   9838     1
   5237   5243     1
   5237   5244     1
   5238   9838     1
   5238   5243     1
   5238   5244     1
   5242   9837     1
   5243   9834     1
   5244   9834     1
   5245   9860     1
   5246   9857     1
   5247   9857     1
   5250   5264     1
   5250   5265     1
   5250   5267     1
   5250   5268     1
   5250   5261     1
   5250   5262     1
   5251   5255     1
   5251   5256     1
   5251   5258     1
   5251   5259     1
   5251   5276     1
   5251   5277     1
   5252   5254     1
   5252   5257     1
   5252   5279     1
   5252   5275     1
   5252   5264     1
   5252   5265     1
   5253   5254     1
   5253   5257     1
   5253   5279     1
   5253   5275     1
   5253   5264     1
   5253   5265     1
   5254   5258     1
   5254   5259     1
   5254   5273     1
   5254   5274     1
   5255   5257     1
   5255   5279     1
   5255   5272     1
   5255   5267     1
   5255   5268     1
   5256   5257     1
   5256   5279     1
   5256   5272     1
   5256   5267     1
   5256   5268     1
   5257   5270     1
   5257   5271     1
   5258   5279     1
   5258   5269     1
   5258   5261     1
   5258   5262     1
   5259   5279     1
   5259   5269     1
   5259   5261     1
   5259   5262     1
   5260   5279     1
   5261   5278     1
   5261   5270     1
   5261   5271     1
   5262   5278     1
   5262   5270     1
   5262   5271     1
   5263   5279     1
   5264   9907     1
   5264   5276     1
   5264   5277     1
   5265   9907     1
   5265   5276     1
   5265   5277     1
   5266   5279     1
   5267   9884     1
   5267   5273     1
   5267   5274     1
   5268   9884     1
   5268   5273     1
   5268   5274     1
   5272   9883     1
   5273   9880     1
   5274   9880     1
   5275   9906     1
   5276   9903     1
   5277   9903     1
   5280   5294     1
   5280   5295     1
   5280   5297     1
   5280   5298     1
   5280   5291     1
   5280   5292     1
   5281   5285     1
   5281   5286     1
   5281   5288     1
   5281   5289     1
   5281   5306     1
   5281   5307     1
   5282   5284     1
   5282   5287     1
   5282   5309     1
   5282   5305     1
   5282   5294     1
   5282   5295     1
   5283   5284     1
   5283   5287     1
   5283   5309     1
   5283   5305     1
   5283   5294     1
   5283   5295     1
   5284   5288     1
   5284   5289     1
   5284   5303     1
   5284   5304     1
   5285   5287     1
   5285   5309     1
   5285   5302     1
   5285   5297     1
   5285   5298     1
   5286   5287     1
   5286   5309     1
   5286   5302     1
   5286   5297     1
   5286   5298     1
   5287   5300     1
   5287   5301     1
   5288   5309     1
   5288   5299     1
   5288   5291     1
   5288   5292     1
   5289   5309     1
   5289   5299     1
   5289   5291     1
   5289   5292     1
   5290   5309     1
   5291   5308     1
   5291   5300     1
   5291   5301     1
   5292   5308     1
   5292   5300     1
   5292   5301     1
   5293   5309     1
   5294   9953     1
   5294   5306     1
   5294   5307     1
   5295   9953     1
   5295   5306     1
   5295   5307     1
   5296   5309     1
   5297   9930     1
   5297   5303     1
   5297   5304     1
   5298   9930     1
   5298   5303     1
   5298   5304     1
   5302   9929     1
   5303   9926     1
   5304   9926     1
   5305   9952     1
   5306   9949     1
   5307   9949     1
   5310   5324     1
   5310   5325     1
   5310   5327     1
   5310   5328     1
   5310   5321     1
   5310   5322     1
   5311   5315     1
   5311   5316     1
   5311   5318     1
   5311   5319     1
   5311   5336     1
   5311   5337     1
   5312   5314     1
   5312   5317     1
   5312   5339     1
   5312   5335     1
   5312   5324     1
   5312   5325     1
   5313   5314     1
   5313   5317     1
   5313   5339     1
   5313   5335     1
   5313   5324     1
   5313   5325     1
   5314   5318     1
   5314   5319     1
   5314   5333     1
   5314   5334     1
   5315   5317     1
   5315   5339     1
   5315   5332     1
   5315   5327     1
   5315   5328     1
   5316   5317     1
   5316   5339     1
   5316   5332     1
   5316   5327     1
   5316   5328     1
   5317   5330     1
   5317   5331     1
   5318   5339     1
   5318   5329     1
   5318   5321     1
   5318   5322     1
   5319   5339     1
   5319   5329     1
   5319   5321     1
   5319   5322     1
   5320   5339     1
   5321   5338     1
   5321   5330     1
   5321   5331     1
   5322   5338     1
   5322   5330     1
   5322   5331     1
   5323   5339     1
   5324   9999     1
   5324   5336     1
   5324   5337     1
   5325   9999     1
   5325   5336     1
   5325   5337     1
   5326   5339     1
   5327   9976     1
   5327   5333     1
   5327   5334     1
   5328   9976     1
   5328   5333     1
   5328   5334     1
   5332   9975     1
   5333   9972     1
   5334   9972     1
   5335   9998     1
   5336   9995     1
   5337   9995     1
   5340   5354     1
   5340   5355     1
   5340   5357     1
   5340   5358     1
   5340   5351     1
   5340   5352     1
   5341   5345     1
   5341   5346     1
   5341   5348     1
   5341   5349     1
   5341   5366     1
   5341   5367     1
   5342   5344     1
   5342   5347     1
   5342   5369     1
   5342   5365     1
   5342   5354     1
   5342   5355     1
   5343   5344     1
   5343   5347     1
   5343   5369     1
   5343   5365     1
   5343   5354     1
   5343   5355     1
   5344   5348     1
   5344   5349     1
   5344   5363     1
   5344   5364     1
   5345   5347     1
   5345   5369     1
   5345   5362     1
   5345   5357     1
   5345   5358     1
   5346   5347     1
   5346   5369     1
   5346   5362     1
   5346   5357     1
   5346   5358     1
   5347   5360     1
   5347   5361     1
   5348   5369     1
   5348   5359     1
   5348   5351     1
   5348   5352     1
   5349   5369     1
   5349   5359     1
   5349   5351     1
   5349   5352     1
   5350   5369     1
   5351   5368     1
   5351   5360     1
   5351   5361     1
   5352   5368     1
   5352   5360     1
   5352   5361     1
   5353   5369     1
   5354  10045     1
   5354   5366     1
   5354   5367     1
   5355  10045     1
   5355   5366     1
   5355   5367     1
   5356   5369     1
   5357  10022     1
   5357   5363     1
   5357   5364     1
   5358  10022     1
   5358   5363     1
   5358   5364     1
   5362  10021     1
   5363  10018     1
   5364  10018     1
   5365  10044     1
   5366  10041     1
   5367  10041     1
   5370   5384     1
   5370   5385     1
   5370   5387     1
   5370   5388     1
   5370   5381     1
   5370   5382     1
   5371   5375     1
   5371   5376     1
   5371   5378     1
   5371   5379     1
   5371   5396     1
   5371   5397     1
   5372   5374     1
   5372   5377     1
   5372   5399     1
   5372   5395     1
   5372   5384     1
   5372   5385     1
   5373   5374     1
   5373   5377     1
   5373   5399     1
   5373   5395     1
   5373   5384     1
   5373   5385     1
   5374   5378     1
   5374   5379     1
   5374   5393     1
   5374   5394     1
   5375   5377     1
   5375   5399     1
   5375   5392     1
   5375   5387     1
   5375   5388     1
   5376   5377     1
   5376   5399     1
   5376   5392     1
   5376   5387     1
   5376   5388     1
   5377   5390     1
   5377   5391     1
   5378   5399     1
   5378   5389     1
   5378   5381     1
   5378   5382     1
   5379   5399     1
   5379   5389     1
   5379   5381     1
   5379   5382     1
   5380   5399     1
   5381   5398     1
   5381   5390     1
   5381   5391     1
   5382   5398     1
   5382   5390     1
   5382   5391     1
   5383   5399     1
   5384  10091     1
   5384   5396     1
   5384   5397     1
   5385  10091     1
   5385   5396     1
   5385   5397     1
   5386   5399     1
   5387  10068     1
   5387   5393     1
   5387   5394     1
   5388  10068     1
   5388   5393     1
   5388   5394     1
   5392  10067     1
   5393  10064     1
   5394  10064     1
   5395  10090     1
   5396  10087     1
   5397  10087     1
   5400   5414     1
   5400   5415     1
   5400   5417     1
   5400   5418     1
   5400   5411     1
   5400   5412     1
   5401   5405     1
   5401   5406     1
   5401   5408     1
   5401   5409     1
   5401   5426     1
   5401   5427     1
   5402   5404     1
   5402   5407     1
   5402   5429     1
   5402   5425     1
   5402   5414     1
   5402   5415     1
   5403   5404     1
   5403   5407     1
   5403   5429     1
   5403   5425     1
   5403   5414     1
   5403   5415     1
   5404   5408     1
   5404   5409     1
   5404   5423     1
   5404   5424     1
   5405   5407     1
   5405   5429     1
   5405   5422     1
   5405   5417     1
   5405   5418     1
   5406   5407     1
   5406   5429     1
   5406   5422     1
   5406   5417     1
   5406   5418     1
   5407   5420     1
   5407   5421     1
   5408   5429     1
   5408   5419     1
   5408   5411     1
   5408   5412     1
   5409   5429     1
   5409   5419     1
   5409   5411     1
   5409   5412     1
   5410   5429     1
   5411   5428     1
   5411   5420     1
   5411   5421     1
   5412   5428     1
   5412   5420     1
   5412   5421     1
   5413   5429     1
   5414  10137     1
   5414   5426     1
   5414   5427     1
   5415  10137     1
   5415   5426     1
   5415   5427     1
   5416   5429     1
   5417  10114     1
   5417   5423     1
   5417   5424     1
   5418  10114     1
   5418   5423     1
   5418   5424     1
   5422  10113     1
   5423  10110     1
   5424  10110     1
   5425  10136     1
   5426  10133     1
   5427  10133     1
   5430   5444     1
   5430   5445     1
   5430   5447     1
   5430   5448     1
   5430   5441     1
   5430   5442     1
   5431   5435     1
   5431   5436     1
   5431   5438     1
   5431   5439     1
   5431   5456     1
   5431   5457     1
   5432   5434     1
   5432   5437     1
   5432   5459     1
   5432   5455     1
   5432   5444     1
   5432   5445     1
   5433   5434     1
   5433   5437     1
   5433   5459     1
   5433   5455     1
   5433   5444     1
   5433   5445     1
   5434   5438     1
   5434   5439     1
   5434   5453     1
   5434   5454     1
   5435   5437     1
   5435   5459     1
   5435   5452     1
   5435   5447     1
   5435   5448     1
   5436   5437     1
   5436   5459     1
   5436   5452     1
   5436   5447     1
   5436   5448     1
   5437   5450     1
   5437   5451     1
   5438   5459     1
   5438   5449     1
   5438   5441     1
   5438   5442     1
   5439   5459     1
   5439   5449     1
   5439   5441     1
   5439   5442     1
   5440   5459     1
   5441   5458     1
   5441   5450     1
   5441   5451     1
   5442   5458     1
   5442   5450     1
   5442   5451     1
   5443   5459     1
   5444  10183     1
   5444   5456     1
   5444   5457     1
   5445  10183     1
   5445   5456     1
   5445   5457     1
   5446   5459     1
   5447  10160     1
   5447   5453     1
   5447   5454     1
   5448  10160     1
   5448   5453     1
   5448   5454     1
   5452  10159     1
   5453  10156     1
   5454  10156     1
   5455  10182     1
   5456  10179     1
   5457  10179     1
   5460   5474     1
   5460   5475     1
   5460   5477     1
   5460   5478     1
   5460   5471     1
   5460   5472     1
   5461   5465     1
   5461   5466     1
   5461   5468     1
   5461   5469     1
   5461   5486     1
   5461   5487     1
   5462   5464     1
   5462   5467     1
   5462   5489     1
   5462   5485     1
   5462   5474     1
   5462   5475     1
   5463   5464     1
   5463   5467     1
   5463   5489     1
   5463   5485     1
   5463   5474     1
   5463   5475     1
   5464   5468     1
   5464   5469     1
   5464   5483     1
   5464   5484     1
   5465   5467     1
   5465   5489     1
   5465   5482     1
   5465   5477     1
   5465   5478     1
   5466   5467     1
   5466   5489     1
   5466   5482     1
   5466   5477     1
   5466   5478     1
   5467   5480     1
   5467   5481     1
   5468   5489     1
   5468   5479     1
   5468   5471     1
   5468   5472     1
   5469   5489     1
   5469   5479     1
   5469   5471     1
   5469   5472     1
   5470   5489     1
   5471   5488     1
   5471   5480     1
   5471   5481     1
   5472   5488     1
   5472   5480     1
   5472   5481     1
   5473   5489     1
   5474  10229     1
   5474   5486     1
   5474   5487     1
   5475  10229     1
   5475   5486     1
   5475   5487     1
   5476   5489     1
   5477  10206     1
   5477   5483     1
   5477   5484     1
   5478  10206     1
   5478   5483     1
   5478   5484     1
   5482  10205     1
   5483  10202     1
   5484  10202     1
   5485  10228     1
   5486  10225     1
   5487  10225     1
   5490   5504     1
   5490   5505     1
   5490   5507     1
   5490   5508     1
   5490   5501     1
   5490   5502     1
   5491   5495     1
   5491   5496     1
   5491   5498     1
   5491   5499     1
   5491   5516     1
   5491   5517     1
   5492   5494     1
   5492   5497     1
   5492   5519     1
   5492   5515     1
   5492   5504     1
   5492   5505     1
   5493   5494     1
   5493   5497     1
   5493   5519     1
   5493   5515     1
   5493   5504     1
   5493   5505     1
   5494   5498     1
   5494   5499     1
   5494   5513     1
   5494   5514     1
   5495   5497     1
   5495   5519     1
   5495   5512     1
   5495   5507     1
   5495   5508     1
   5496   5497     1
   5496   5519     1
   5496   5512     1
   5496   5507     1
   5496   5508     1
   5497   5510     1
   5497   5511     1
   5498   5519     1
   5498   5509     1
   5498   5501     1
   5498   5502     1
   5499   5519     1
   5499   5509     1
   5499   5501     1
   5499   5502     1
   5500   5519     1
   5501   5518     1
   5501   5510     1
   5501   5511     1
   5502   5518     1
   5502   5510     1
   5502   5511     1
   5503   5519     1
   5504  10275     1
   5504   5516     1
   5504   5517     1
   5505  10275     1
   5505   5516     1
   5505   5517     1
   5506   5519     1
   5507  10252     1
   5507   5513     1
   5507   5514     1
   5508  10252     1
   5508   5513     1
   5508   5514     1
   5512  10251     1
   5513  10248     1
   5514  10248     1
   5515  10274     1
   5516  10271     1
   5517  10271     1
   5520   5534     1
   5520   5535     1
   5520   5537     1
   5520   5538     1
   5520   5531     1
   5520   5532     1
   5521   5525     1
   5521   5526     1
   5521   5528     1
   5521   5529     1
   5521   5546     1
   5521   5547     1
   5522   5524     1
   5522   5527     1
   5522   5549     1
   5522   5545     1
   5522   5534     1
   5522   5535     1
   5523   5524     1
   5523   5527     1
   5523   5549     1
   5523   5545     1
   5523   5534     1
   5523   5535     1
   5524   5528     1
   5524   5529     1
   5524   5543     1
   5524   5544     1
   5525   5527     1
   5525   5549     1
   5525   5542     1
   5525   5537     1
   5525   5538     1
   5526   5527     1
   5526   5549     1
   5526   5542     1
   5526   5537     1
   5526   5538     1
   5527   5540     1
   5527   5541     1
   5528   5549     1
   5528   5539     1
   5528   5531     1
   5528   5532     1
   5529   5549     1
   5529   5539     1
   5529   5531     1
   5529   5532     1
   5530   5549     1
   5531   5548     1
   5531   5540     1
   5531   5541     1
   5532   5548     1
   5532   5540     1
   5532   5541     1
   5533   5549     1
   5534  10321     1
   5534   5546     1
   5534   5547     1
   5535  10321     1
   5535   5546     1
   5535   5547     1
   5536   5549     1
   5537  10298     1
   5537   5543     1
   5537   5544     1
   5538  10298     1
   5538   5543     1
   5538   5544     1
   5542  10297     1
   5543  10294     1
   5544  10294     1
   5545  10320     1
   5546  10317     1
   5547  10317     1
   5550   5564     1
   5550   5565     1
   5550   5567     1
   5550   5568     1
   5550   5561     1
   5550   5562     1
   5551   5555     1
   5551   5556     1
   5551   5558     1
   5551   5559     1
   5551   5576     1
   5551   5577     1
   5552   5554     1
   5552   5557     1
   5552   5579     1
   5552   5575     1
   5552   5564     1
   5552   5565     1
   5553   5554     1
   5553   5557     1
   5553   5579     1
   5553   5575     1
   5553   5564     1
   5553   5565     1
   5554   5558     1
   5554   5559     1
   5554   5573     1
   5554   5574     1
   5555   5557     1
   5555   5579     1
   5555   5572     1
   5555   5567     1
   5555   5568     1
   5556   5557     1
   5556   5579     1
   5556   5572     1
   5556   5567     1
   5556   5568     1
   5557   5570     1
   5557   5571     1
   5558   5579     1
   5558   5569     1
   5558   5561     1
   5558   5562     1
   5559   5579     1
   5559   5569     1
   5559   5561     1
   5559   5562     1
   5560   5579     1
   5561   5578     1
   5561   5570     1
   5561   5571     1
   5562   5578     1
   5562   5570     1
   5562   5571     1
   5563   5579     1
   5564  10367     1
   5564   5576     1
   5564   5577     1
   5565  10367     1
   5565   5576     1
   5565   5577     1
   5566   5579     1
   5567  10344     1
   5567   5573     1
   5567   5574     1
   5568  10344     1
   5568   5573     1
   5568   5574     1
   5572  10343     1
   5573  10340     1
   5574  10340     1
   5575  10366     1
   5576  10363     1
   5577  10363     1
   5580   5594     1
   5580   5595     1
   5580   5597     1
   5580   5598     1
   5580   5591     1
   5580   5592     1
   5581   5585     1
   5581   5586     1
   5581   5588     1
   5581   5589     1
   5581   5606     1
   5581   5607     1
   5582   5584     1
   5582   5587     1
   5582   5609     1
   5582   5605     1
   5582   5594     1
   5582   5595     1
   5583   5584     1
   5583   5587     1
   5583   5609     1
   5583   5605     1
   5583   5594     1
   5583   5595     1
   5584   5588     1
   5584   5589     1
   5584   5603     1
   5584   5604     1
   5585   5587     1
   5585   5609     1
   5585   5602     1
   5585   5597     1
   5585   5598     1
   5586   5587     1
   5586   5609     1
   5586   5602     1
   5586   5597     1
   5586   5598     1
   5587   5600     1
   5587   5601     1
   5588   5609     1
   5588   5599     1
   5588   5591     1
   5588   5592     1
   5589   5609     1
   5589   5599     1
   5589   5591     1
   5589   5592     1
   5590   5609     1
   5591   5608     1
   5591   5600     1
   5591   5601     1
   5592   5608     1
   5592   5600     1
   5592   5601     1
   5593   5609     1
   5594  10413     1
   5594   5606     1
   5594   5607     1
   5595  10413     1
   5595   5606     1
   5595   5607     1
   5596   5609     1
   5597  10390     1
   5597   5603     1
   5597   5604     1
   5598  10390     1
   5598   5603     1
   5598   5604     1
   5602  10389     1
   5603  10386     1
   5604  10386     1
   5605  10412     1
   5606  10409     1
   5607  10409     1
   5610   5624     1
   5610   5625     1
   5610   5627     1
   5610   5628     1
   5610   5621     1
   5610   5622     1
   5611   5615     1
   5611   5616     1
   5611   5618     1
   5611   5619     1
   5611   5636     1
   5611   5637     1
   5612   5614     1
   5612   5617     1
   5612   5639     1
   5612   5635     1
   5612   5624     1
   5612   5625     1
   5613   5614     1
   5613   5617     1
   5613   5639     1
   5613   5635     1
   5613   5624     1
   5613   5625     1
   5614   5618     1
   5614   5619     1
   5614   5633     1
   5614   5634     1
   5615   5617     1
   5615   5639     1
   5615   5632     1
   5615   5627     1
   5615   5628     1
   5616   5617     1
   5616   5639     1
   5616   5632     1
   5616   5627     1
   5616   5628     1
   5617   5630     1
   5617   5631     1
   5618   5639     1
   5618   5629     1
   5618   5621     1
   5618   5622     1
   5619   5639     1
   5619   5629     1
   5619   5621     1
   5619   5622     1
   5620   5639     1
   5621   5638     1
   5621   5630     1
   5621   5631     1
   5622   5638     1
   5622   5630     1
   5622   5631     1
   5623   5639     1
   5624  10459     1
   5624   5636     1
   5624   5637     1
   5625  10459     1
   5625   5636     1
   5625   5637     1
   5626   5639     1
   5627  10436     1
   5627   5633     1
   5627   5634     1
   5628  10436     1
   5628   5633     1
   5628   5634     1
   5632  10435     1
   5633  10432     1
   5634  10432     1
   5635  10458     1
   5636  10455     1
   5637  10455     1
   5640   5654     1
   5640   5655     1
   5640   5657     1
   5640   5658     1
   5640   5651     1
   5640   5652     1
   5641   5645     1
   5641   5646     1
   5641   5648     1
   5641   5649     1
   5641   5666     1
   5641   5667     1
   5642   5644     1
   5642   5647     1
   5642   5669     1
   5642   5665     1
   5642   5654     1
   5642   5655     1
   5643   5644     1
   5643   5647     1
   5643   5669     1
   5643   5665     1
   5643   5654     1
   5643   5655     1
   5644   5648     1
   5644   5649     1
   5644   5663     1
   5644   5664     1
   5645   5647     1
   5645   5669     1
   5645   5662     1
   5645   5657     1
   5645   5658     1
   5646   5647     1
   5646   5669     1
   5646   5662     1
   5646   5657     1
   5646   5658     1
   5647   5660     1
   5647   5661     1
   5648   5669     1
   5648   5659     1
   5648   5651     1
   5648   5652     1
   5649   5669     1
   5649   5659     1
   5649   5651     1
   5649   5652     1
   5650   5669     1
   5651   5668     1
   5651   5660     1
   5651   5661     1
   5652   5668     1
   5652   5660     1
   5652   5661     1
   5653   5669     1
   5654  10505     1
   5654   5666     1
   5654   5667     1
   5655  10505     1
   5655   5666     1
   5655   5667     1
   5656   5669     1
   5657  10482     1
   5657   5663     1
   5657   5664     1
   5658  10482     1
   5658   5663     1
   5658   5664     1
   5662  10481     1
   5663  10478     1
   5664  10478     1
   5665  10504     1
   5666  10501     1
   5667  10501     1
   5670   5684     1
   5670   5685     1
   5670   5687     1
   5670   5688     1
   5670   5681     1
   5670   5682     1
   5671   5675     1
   5671   5676     1
   5671   5678     1
   5671   5679     1
   5671   5696     1
   5671   5697     1
   5672   5674     1
   5672   5677     1
   5672   5699     1
   5672   5695     1
   5672   5684     1
   5672   5685     1
   5673   5674     1
   5673   5677     1
   5673   5699     1
   5673   5695     1
   5673   5684     1
   5673   5685     1
   5674   5678     1
   5674   5679     1
   5674   5693     1
   5674   5694     1
   5675   5677     1
   5675   5699     1
   5675   5692     1
   5675   5687     1
   5675   5688     1
   5676   5677     1
   5676   5699     1
   5676   5692     1
   5676   5687     1
   5676   5688     1
   5677   5690     1
   5677   5691     1
   5678   5699     1
   5678   5689     1
   5678   5681     1
   5678   5682     1
   5679   5699     1
   5679   5689     1
   5679   5681     1
   5679   5682     1
   5680   5699     1
   5681   5698     1
   5681   5690     1
   5681   5691     1
   5682   5698     1
   5682   5690     1
   5682   5691     1
   5683   5699     1
   5684  10551     1
   5684   5696     1
   5684   5697     1
   5685  10551     1
   5685   5696     1
   5685   5697     1
   5686   5699     1
   5687  10528     1
   5687   5693     1
   5687   5694     1
   5688  10528     1
   5688   5693     1
   5688   5694     1
   5692  10527     1
   5693  10524     1
   5694  10524     1
   5695  10550     1
   5696  10547     1
   5697  10547     1
   5700   5714     1
   5700   5715     1
   5700   5717     1
   5700   5718     1
   5700   5711     1
   5700   5712     1
   5701   5705     1
   5701   5706     1
   5701   5708     1
   5701   5709     1
   5701   5726     1
   5701   5727     1
   5702   5704     1
   5702   5707     1
   5702   5729     1
   5702   5725     1
   5702   5714     1
   5702   5715     1
   5703   5704     1
   5703   5707     1
   5703   5729     1
   5703   5725     1
   5703   5714     1
   5703   5715     1
   5704   5708     1
   5704   5709     1
   5704   5723     1
   5704   5724     1
   5705   5707     1
   5705   5729     1
   5705   5722     1
   5705   5717     1
   5705   5718     1
   5706   5707     1
   5706   5729     1
   5706   5722     1
   5706   5717     1
   5706   5718     1
   5707   5720     1
   5707   5721     1
   5708   5729     1
   5708   5719     1
   5708   5711     1
   5708   5712     1
   5709   5729     1
   5709   5719     1
   5709   5711     1
   5709   5712     1
   5710   5729     1
   5711   5728     1
   5711   5720     1
   5711   5721     1
   5712   5728     1
   5712   5720     1
   5712   5721     1
   5713   5729     1
   5714  10597     1
   5714   5726     1
   5714   5727     1
   5715  10597     1
   5715   5726     1
   5715   5727     1
   5716   5729     1
   5717  10574     1
   5717   5723     1
   5717   5724     1
   5718  10574     1
   5718   5723     1
   5718   5724     1
   5722  10573     1
   5723  10570     1
   5724  10570     1
   5725  10596     1
   5726  10593     1
   5727  10593     1
   5730   5744     1
   5730   5745     1
   5730   5747     1
   5730   5748     1
   5730   5741     1
   5730   5742     1
   5731   5735     1
   5731   5736     1
   5731   5738     1
   5731   5739     1
   5731   5756     1
   5731   5757     1
   5732   5734     1
   5732   5737     1
   5732   5759     1
   5732   5755     1
   5732   5744     1
   5732   5745     1
   5733   5734     1
   5733   5737     1
   5733   5759     1
   5733   5755     1
   5733   5744     1
   5733   5745     1
   5734   5738     1
   5734   5739     1
   5734   5753     1
   5734   5754     1
   5735   5737     1
   5735   5759     1
   5735   5752     1
   5735   5747     1
   5735   5748     1
   5736   5737     1
   5736   5759     1
   5736   5752     1
   5736   5747     1
   5736   5748     1
   5737   5750     1
   5737   5751     1
   5738   5759     1
   5738   5749     1
   5738   5741     1
   5738   5742     1
   5739   5759     1
   5739   5749     1
   5739   5741     1
   5739   5742     1
   5740   5759     1
   5741   5758     1
   5741   5750     1
   5741   5751     1
   5742   5758     1
   5742   5750     1
   5742   5751     1
   5743   5759     1
   5744  10643     1
   5744   5756     1
   5744   5757     1
   5745  10643     1
   5745   5756     1
   5745   5757     1
   5746   5759     1
   5747  10620     1
   5747   5753     1
   5747   5754     1
   5748  10620     1
   5748   5753     1
   5748   5754     1
   5752  10619     1
   5753  10616     1
   5754  10616     1
   5755  10642     1
   5756  10639     1
   5757  10639     1
   5760   5774     1
   5760   5775     1
   5760   5777     1
   5760   5778     1
   5760   5771     1
   5760   5772     1
   5761   5765     1
   5761   5766     1
   5761   5768     1
   5761   5769     1
   5761   5786     1
   5761   5787     1
   5762   5764     1
   5762   5767     1
   5762   5789     1
   5762   5785     1
   5762   5774     1
   5762   5775     1
   5763   5764     1
   5763   5767     1
   5763   5789     1
   5763   5785     1
   5763   5774     1
   5763   5775     1
   5764   5768     1
   5764   5769     1
   5764   5783     1
   5764   5784     1
   5765   5767     1
   5765   5789     1
   5765   5782     1
   5765   5777     1
   5765   5778     1
   5766   5767     1
   5766   5789     1
   5766   5782     1
   5766   5777     1
   5766   5778     1
   5767   5780     1
   5767   5781     1
   5768   5789     1
   5768   5779     1
   5768   5771     1
   5768   5772     1
   5769   5789     1
   5769   5779     1
   5769   5771     1
   5769   5772     1
   5770   5789     1
   5771   5788     1
   5771   5780     1
   5771   5781     1
   5772   5788     1
   5772   5780     1
   5772   5781     1
   5773   5789     1
   5774  10689     1
   5774   5786     1
   5774   5787     1
   5775  10689     1
   5775   5786     1
   5775   5787     1
   5776   5789     1
   5777  10666     1
   5777   5783     1
   5777   5784     1
   5778  10666     1
   5778   5783     1
   5778   5784     1
   5782  10665     1
   5783  10662     1
   5784  10662     1
   5785  10688     1
   5786  10685     1
   5787  10685     1
   5790   5804     1
   5790   5805     1
   5790   5807     1
   5790   5808     1
   5790   5801     1
   5790   5802     1
   5791   5795     1
   5791   5796     1
   5791   5798     1
   5791   5799     1
   5791   5816     1
   5791   5817     1
   5792   5794     1
   5792   5797     1
   5792   5819     1
   5792   5815     1
   5792   5804     1
   5792   5805     1
   5793   5794     1
   5793   5797     1
   5793   5819     1
   5793   5815     1
   5793   5804     1
   5793   5805     1
   5794   5798     1
   5794   5799     1
   5794   5813     1
   5794   5814     1
   5795   5797     1
   5795   5819     1
   5795   5812     1
   5795   5807     1
   5795   5808     1
   5796   5797     1
   5796   5819     1
   5796   5812     1
   5796   5807     1
   5796   5808     1
   5797   5810     1
   5797   5811     1
   5798   5819     1
   5798   5809     1
   5798   5801     1
   5798   5802     1
   5799   5819     1
   5799   5809     1
   5799   5801     1
   5799   5802     1
   5800   5819     1
   5801   5818     1
   5801   5810     1
   5801   5811     1
   5802   5818     1
   5802   5810     1
   5802   5811     1
   5803   5819     1
   5804  10735     1
   5804   5816     1
   5804   5817     1
   5805  10735     1
   5805   5816     1
   5805   5817     1
   5806   5819     1
   5807  10712     1
   5807   5813     1
   5807   5814     1
   5808  10712     1
   5808   5813     1
   5808   5814     1
   5812  10711     1
   5813  10708     1
   5814  10708     1
   5815  10734     1
   5816  10731     1
   5817  10731     1
   5820   5834     1
   5820   5835     1
   5820   5837     1
   5820   5838     1
   5820   5831     1
   5820   5832     1
   5821   5825     1
   5821   5826     1
   5821   5828     1
   5821   5829     1
   5821   5846     1
   5821   5847     1
   5822   5824     1
   5822   5827     1
   5822   5849     1
   5822   5845     1
   5822   5834     1
   5822   5835     1
   5823   5824     1
   5823   5827     1
   5823   5849     1
   5823   5845     1
   5823   5834     1
   5823   5835     1
   5824   5828     1
   5824   5829     1
   5824   5843     1
   5824   5844     1
   5825   5827     1
   5825   5849     1
   5825   5842     1
   5825   5837     1
   5825   5838     1
   5826   5827     1
   5826   5849     1
   5826   5842     1
   5826   5837     1
   5826   5838     1
   5827   5840     1
   5827   5841     1
   5828   5849     1
   5828   5839     1
   5828   5831     1
   5828   5832     1
   5829   5849     1
   5829   5839     1
   5829   5831     1
   5829   5832     1
   5830   5849     1
   5831   5848     1
   5831   5840     1
   5831   5841     1
   5832   5848     1
   5832   5840     1
   5832   5841     1
   5833   5849     1
   5834  10781     1
   5834   5846     1
   5834   5847     1
   5835  10781     1
   5835   5846     1
   5835   5847     1
   5836   5849     1
   5837  10758     1
   5837   5843     1
   5837   5844     1
   5838  10758     1
   5838   5843     1
   5838   5844     1
   5842  10757     1
   5843  10754     1
   5844  10754     1
   5845  10780     1
   5846  10777     1
   5847  10777     1
   5850   5864     1
   5850   5865     1
   5850   5867     1
   5850   5868     1
   5850   5861     1
   5850   5862     1
   5851   5855     1
   5851   5856     1
   5851   5858     1
   5851   5859     1
   5851   5876     1
   5851   5877     1
   5852   5854     1
   5852   5857     1
   5852   5879     1
   5852   5875     1
   5852   5864     1
   5852   5865     1
   5853   5854     1
   5853   5857     1
   5853   5879     1
   5853   5875     1
   5853   5864     1
   5853   5865     1
   5854   5858     1
   5854   5859     1
   5854   5873     1
   5854   5874     1
   5855   5857     1
   5855   5879     1
   5855   5872     1
   5855   5867     1
   5855   5868     1
   5856   5857     1
   5856   5879     1
   5856   5872     1
   5856   5867     1
   5856   5868     1
   5857   5870     1
   5857   5871     1
   5858   5879     1
   5858   5869     1
   5858   5861     1
   5858   5862     1
   5859   5879     1
   5859   5869     1
   5859   5861     1
   5859   5862     1
   5860   5879     1
   5861   5878     1
   5861   5870     1
   5861   5871     1
   5862   5878     1
   5862   5870     1
   5862   5871     1
   5863   5879     1
   5864  10827     1
   5864   5876     1
   5864   5877     1
   5865  10827     1
   5865   5876     1
   5865   5877     1
   5866   5879     1
   5867  10804     1
   5867   5873     1
   5867   5874     1
   5868  10804     1
   5868   5873     1
   5868   5874     1
   5872  10803     1
   5873  10800     1
   5874  10800     1
   5875  10826     1
   5876  10823     1
   5877  10823     1
   5880   5894     1
   5880   5895     1
   5880   5897     1
   5880   5898     1
   5880   5891     1
   5880   5892     1
   5881   5885     1
   5881   5886     1
   5881   5888     1
   5881   5889     1
   5881   5906     1
   5881   5907     1
   5882   5884     1
   5882   5887     1
   5882   5909     1
   5882   5905     1
   5882   5894     1
   5882   5895     1
   5883   5884     1
   5883   5887     1
   5883   5909     1
   5883   5905     1
   5883   5894     1
   5883   5895     1
   5884   5888     1
   5884   5889     1
   5884   5903     1
   5884   5904     1
   5885   5887     1
   5885   5909     1
   5885   5902     1
   5885   5897     1
   5885   5898     1
   5886   5887     1
   5886   5909     1
   5886   5902     1
   5886   5897     1
   5886   5898     1
   5887   5900     1
   5887   5901     1
   5888   5909     1
   5888   5899     1
   5888   5891     1
   5888   5892     1
   5889   5909     1
   5889   5899     1
   5889   5891     1
   5889   5892     1
   5890   5909     1
   5891   5908     1
   5891   5900     1
   5891   5901     1
   5892   5908     1
   5892   5900     1
   5892   5901     1
   5893   5909     1
   5894  10873     1
   5894   5906     1
   5894   5907     1
   5895  10873     1
   5895   5906     1
   5895   5907     1
   5896   5909     1
   5897  10850     1
   5897   5903     1
   5897   5904     1
   5898  10850     1
   5898   5903     1
   5898   5904     1
   5902  10849     1
   5903  10846     1
   5904  10846     1
   5905  10872     1
   5906  10869     1
   5907  10869     1
   5910   5924     1
   5910   5925     1
   5910   5927     1
   5910   5928     1
   5910   5921     1
   5910   5922     1
   5911   5915     1
   5911   5916     1
   5911   5918     1
   5911   5919     1
   5911   5936     1
   5911   5937     1
   5912   5914     1
   5912   5917     1
   5912   5939     1
   5912   5935     1
   5912   5924     1
   5912   5925     1
   5913   5914     1
   5913   5917     1
   5913   5939     1
   5913   5935     1
   5913   5924     1
   5913   5925     1
   5914   5918     1
   5914   5919     1
   5914   5933     1
   5914   5934     1
   5915   5917     1
   5915   5939     1
   5915   5932     1
   5915   5927     1
   5915   5928     1
   5916   5917     1
   5916   5939     1
   5916   5932     1
   5916   5927     1
   5916   5928     1
   5917   5930     1
   5917   5931     1
   5918   5939     1
   5918   5929     1
   5918   5921     1
   5918   5922     1
   5919   5939     1
   5919   5929     1
   5919   5921     1
   5919   5922     1
   5920   5939     1
   5921   5938     1
   5921   5930     1
   5921   5931     1
   5922   5938     1
   5922   5930     1
   5922   5931     1
   5923   5939     1
   5924  10919     1
   5924   5936     1
   5924   5937     1
   5925  10919     1
   5925   5936     1
   5925   5937     1
   5926   5939     1
   5927  10896     1
   5927   5933     1
   5927   5934     1
   5928  10896     1
   5928   5933     1
   5928   5934     1
   5932  10895     1
   5933  10892     1
   5934  10892     1
   5935  10918     1
   5936  10915     1
   5937  10915     1
   5940   5954     1
   5940   5955     1
   5940   5957     1
   5940   5958     1
   5940   5951     1
   5940   5952     1
   5941   5945     1
   5941   5946     1
   5941   5948     1
   5941   5949     1
   5941   5966     1
   5941   5967     1
   5942   5944     1
   5942   5947     1
   5942   5969     1
   5942   5965     1
   5942   5954     1
   5942   5955     1
   5943   5944     1
   5943   5947     1
   5943   5969     1
   5943   5965     1
   5943   5954     1
   5943   5955     1
   5944   5948     1
   5944   5949     1
   5944   5963     1
   5944   5964     1
   5945   5947     1
   5945   5969     1
   5945   5962     1
   5945   5957     1
   5945   5958     1
   5946   5947     1
   5946   5969     1
   5946   5962     1
   5946   5957     1
   5946   5958     1
   5947   5960     1
   5947   5961     1
   5948   5969     1
   5948   5959     1
   5948   5951     1
   5948   5952     1
   5949   5969     1
   5949   5959     1
   5949   5951     1
   5949   5952     1
   5950   5969     1
   5951   5968     1
   5951   5960     1
   5951   5961     1
   5952   5968     1
   5952   5960     1
   5952   5961     1
   5953   5969     1
   5954  10965     1
   5954   5966     1
   5954   5967     1
   5955  10965     1
   5955   5966     1
   5955   5967     1
   5956   5969     1
   5957  10942     1
   5957   5963     1
   5957   5964     1
   5958  10942     1
   5958   5963     1
   5958   5964     1
   5962  10941     1
   5963  10938     1
   5964  10938     1
   5965  10964     1
   5966  10961     1
   5967  10961     1
   5970   5984     1
   5970   5985     1
   5970   5987     1
   5970   5988     1
   5970   5981     1
   5970   5982     1
   5971   5975     1
   5971   5976     1
   5971   5978     1
   5971   5979     1
   5971   5996     1
   5971   5997     1
   5972   5974     1
   5972   5977     1
   5972   5999     1
   5972   5995     1
   5972   5984     1
   5972   5985     1
   5973   5974     1
   5973   5977     1
   5973   5999     1
   5973   5995     1
   5973   5984     1
   5973   5985     1
   5974   5978     1
   5974   5979     1
   5974   5993     1
   5974   5994     1
   5975   5977     1
   5975   5999     1
   5975   5992     1
   5975   5987     1
   5975   5988     1
   5976   5977     1
   5976   5999     1
   5976   5992     1
   5976   5987     1
   5976   5988     1
   5977   5990     1
   5977   5991     1
   5978   5999     1
   5978   5989     1
   5978   5981     1
   5978   5982     1
   5979   5999     1
   5979   5989     1
   5979   5981     1
   5979   5982     1
   5980   5999     1
   5981   5998     1
   5981   5990     1
   5981   5991     1
   5982   5998     1
   5982   5990     1
   5982   5991     1
   5983   5999     1
   5984  11011     1
   5984   5996     1
   5984   5997     1
   5985  11011     1
   5985   5996     1
   5985   5997     1
   5986   5999     1
   5987  10988     1
   5987   5993     1
   5987   5994     1
   5988  10988     1
   5988   5993     1
   5988   5994     1
   5992  10987     1
   5993  10984     1
   5994  10984     1
   5995  11010     1
   5996  11007     1
   5997  11007     1
   6000   6014     1
   6000   6015     1
   6000   6017     1
   6000   6018     1
   6000   6011     1
   6000   6012     1
   6001   6005     1
   6001   6006     1
   6001   6008     1
   6001   6009     1
   6001   6026     1
   6001   6027     1
   6002   6004     1
   6002   6007     1
   6002   6029     1
   6002   6025     1
   6002   6014     1
   6002   6015     1
   6003   6004     1
   6003   6007     1
   6003   6029     1
   6003   6025     1
   6003   6014     1
   6003   6015     1
   6004   6008     1
   6004   6009     1
   6004   6023     1
   6004   6024     1
   6005   6007     1
   6005   6029     1
   6005   6022     1
   6005   6017     1
   6005   6018     1
   6006   6007     1
   6006   6029     1
   6006   6022     1
   6006   6017     1
   6006   6018     1
   6007   6020     1
   6007   6021     1
   6008   6029     1
   6008   6019     1
   6008   6011     1
   6008   6012     1
   6009   6029     1
   6009   6019     1
   6009   6011     1
   6009   6012     1
   6010   6029     1
   6011   6028     1
   6011   6020     1
   6011   6021     1
   6012   6028     1
   6012   6020     1
   6012   6021     1
   6013   6029     1
   6014  11057     1
   6014   6026     1
   6014   6027     1
   6015  11057     1
   6015   6026     1
   6015   6027     1
   6016   6029     1
   6017  11034     1
   6017   6023     1
   6017   6024     1
   6018  11034     1
   6018   6023     1
   6018   6024     1
   6022  11033     1
   6023  11030     1
   6024  11030     1
   6025  11056     1
   6026  11053     1
   6027  11053     1
   6030   6044     1
   6030   6045     1
   6030   6047     1
   6030   6048     1
   6030   6041     1
   6030   6042     1
   6031   6035     1
   6031   6036     1
   6031   6038     1
   6031   6039     1
   6031   6056     1
   6031   6057     1
   6032   6034     1
   6032   6037     1
   6032   6059     1
   6032   6055     1
   6032   6044     1
   6032   6045     1
   6033   6034     1
   6033   6037     1
   6033   6059     1
   6033   6055     1
   6033   6044     1
   6033   6045     1
   6034   6038     1
   6034   6039     1
   6034   6053     1
   6034   6054     1
   6035   6037     1
   6035   6059     1
   6035   6052     1
   6035   6047     1
   6035   6048     1
   6036   6037     1
   6036   6059     1
   6036   6052     1
   6036   6047     1
   6036   6048     1
   6037   6050     1
   6037   6051     1
   6038   6059     1
   6038   6049     1
   6038   6041     1
   6038   6042     1
   6039   6059     1
   6039   6049     1
   6039   6041     1
   6039   6042     1
   6040   6059     1
   6041   6058     1
   6041   6050     1
   6041   6051     1
   6042   6058     1
   6042   6050     1
   6042   6051     1
   6043   6059     1
   6044  11103     1
   6044   6056     1
   6044   6057     1
   6045  11103     1
   6045   6056     1
   6045   6057     1
   6046   6059     1
   6047  11080     1
   6047   6053     1
   6047   6054     1
   6048  11080     1
   6048   6053     1
   6048   6054     1
   6052  11079     1
   6053  11076     1
   6054  11076     1
   6055  11102     1
   6056  11099     1
   6057  11099     1
   6060   6074     1
   6060   6075     1
   6060   6077     1
   6060   6078     1
   6060   6071     1
   6060   6072     1
   6061   6065     1
   6061   6066     1
   6061   6068     1
   6061   6069     1
   6061   6086     1
   6061   6087     1
   6062   6064     1
   6062   6067     1
   6062   6089     1
   6062   6085     1
   6062   6074     1
   6062   6075     1
   6063   6064     1
   6063   6067     1
   6063   6089     1
   6063   6085     1
   6063   6074     1
   6063   6075     1
   6064   6068     1
   6064   6069     1
   6064   6083     1
   6064   6084     1
   6065   6067     1
   6065   6089     1
   6065   6082     1
   6065   6077     1
   6065   6078     1
   6066   6067     1
   6066   6089     1
   6066   6082     1
   6066   6077     1
   6066   6078     1
   6067   6080     1
   6067   6081     1
   6068   6089     1
   6068   6079     1
   6068   6071     1
   6068   6072     1
   6069   6089     1
   6069   6079     1
   6069   6071     1
   6069   6072     1
   6070   6089     1
   6071   6088     1
   6071   6080     1
   6071   6081     1
   6072   6088     1
   6072   6080     1
   6072   6081     1
   6073   6089     1
   6074  11149     1
   6074   6086     1
   6074   6087     1
   6075  11149     1
   6075   6086     1
   6075   6087     1
   6076   6089     1
   6077  11126     1
   6077   6083     1
   6077   6084     1
   6078  11126     1
   6078   6083     1
   6078   6084     1
   6082  11125     1
   6083  11122     1
   6084  11122     1
   6085  11148     1
   6086  11145     1
   6087  11145     1
   6090   6104     1
   6090   6105     1
   6090   6107     1
   6090   6108     1
   6090   6101     1
   6090   6102     1
   6091   6095     1
   6091   6096     1
   6091   6098     1
   6091   6099     1
   6091   6116     1
   6091   6117     1
   6092   6094     1
   6092   6097     1
   6092   6119     1
   6092   6115     1
   6092   6104     1
   6092   6105     1
   6093   6094     1
   6093   6097     1
   6093   6119     1
   6093   6115     1
   6093   6104     1
   6093   6105     1
   6094   6098     1
   6094   6099     1
   6094   6113     1
   6094   6114     1
   6095   6097     1
   6095   6119     1
   6095   6112     1
   6095   6107     1
   6095   6108     1
   6096   6097     1
   6096   6119     1
   6096   6112     1
   6096   6107     1
   6096   6108     1
   6097   6110     1
   6097   6111     1
   6098   6119     1
   6098   6109     1
   6098   6101     1
   6098   6102     1
   6099   6119     1
   6099   6109     1
   6099   6101     1
   6099   6102     1
   6100   6119     1
   6101   6118     1
   6101   6110     1
   6101   6111     1
   6102   6118     1
   6102   6110     1
   6102   6111     1
   6103   6119     1
   6104  11195     1
   6104   6116     1
   6104   6117     1
   6105  11195     1
   6105   6116     1
   6105   6117     1
   6106   6119     1
   6107  11172     1
   6107   6113     1
   6107   6114     1
   6108  11172     1
   6108   6113     1
   6108   6114     1
   6112  11171     1
   6113  11168     1
   6114  11168     1
   6115  11194     1
   6116  11191     1
   6117  11191     1
   6120   6134     1
   6120   6135     1
   6120   6137     1
   6120   6138     1
   6120   6131     1
   6120   6132     1
   6121   6125     1
   6121   6126     1
   6121   6128     1
   6121   6129     1
   6121   6146     1
   6121   6147     1
   6122   6124     1
   6122   6127     1
   6122   6149     1
   6122   6145     1
   6122   6134     1
   6122   6135     1
   6123   6124     1
   6123   6127     1
   6123   6149     1
   6123   6145     1
   6123   6134     1
   6123   6135     1
   6124   6128     1
   6124   6129     1
   6124   6143     1
   6124   6144     1
   6125   6127     1
   6125   6149     1
   6125   6142     1
   6125   6137     1
   6125   6138     1
   6126   6127     1
   6126   6149     1
   6126   6142     1
   6126   6137     1
   6126   6138     1
   6127   6140     1
   6127   6141     1
   6128   6149     1
   6128   6139     1
   6128   6131     1
   6128   6132     1
   6129   6149     1
   6129   6139     1
   6129   6131     1
   6129   6132     1
   6130   6149     1
   6131   6148     1
   6131   6140     1
   6131   6141     1
   6132   6148     1
   6132   6140     1
   6132   6141     1
   6133   6149     1
   6134  11241     1
   6134   6146     1
   6134   6147     1
   6135  11241     1
   6135   6146     1
   6135   6147     1
   6136   6149     1
   6137  11218     1
   6137   6143     1
   6137   6144     1
   6138  11218     1
   6138   6143     1
   6138   6144     1
   6142  11217     1
   6143  11214     1
   6144  11214     1
   6145  11240     1
   6146  11237     1
   6147  11237     1
   6150   6164     1
   6150   6165     1
   6150   6167     1
   6150   6168     1
   6150   6161     1
   6150   6162     1
   6151   6155     1
   6151   6156     1
   6151   6158     1
   6151   6159     1
   6151   6176     1
   6151   6177     1
   6152   6154     1
   6152   6157     1
   6152   6179     1
   6152   6175     1
   6152   6164     1
   6152   6165     1
   6153   6154     1
   6153   6157     1
   6153   6179     1
   6153   6175     1
   6153   6164     1
   6153   6165     1
   6154   6158     1
   6154   6159     1
   6154   6173     1
   6154   6174     1
   6155   6157     1
   6155   6179     1
   6155   6172     1
   6155   6167     1
   6155   6168     1
   6156   6157     1
   6156   6179     1
   6156   6172     1
   6156   6167     1
   6156   6168     1
   6157   6170     1
   6157   6171     1
   6158   6179     1
   6158   6169     1
   6158   6161     1
   6158   6162     1
   6159   6179     1
   6159   6169     1
   6159   6161     1
   6159   6162     1
   6160   6179     1
   6161   6178     1
   6161   6170     1
   6161   6171     1
   6162   6178     1
   6162   6170     1
   6162   6171     1
   6163   6179     1
   6164  11287     1
   6164   6176     1
   6164   6177     1
   6165  11287     1
   6165   6176     1
   6165   6177     1
   6166   6179     1
   6167  11264     1
   6167   6173     1
   6167   6174     1
   6168  11264     1
   6168   6173     1
   6168   6174     1
   6172  11263     1
   6173  11260     1
   6174  11260     1
   6175  11286     1
   6176  11283     1
   6177  11283     1
   6180   6194     1
   6180   6195     1
   6180   6197     1
   6180   6198     1
   6180   6191     1
   6180   6192     1
   6181   6185     1
   6181   6186     1
   6181   6188     1
   6181   6189     1
   6181   6206     1
   6181   6207     1
   6182   6184     1
   6182   6187     1
   6182   6209     1
   6182   6205     1
   6182   6194     1
   6182   6195     1
   6183   6184     1
   6183   6187     1
   6183   6209     1
   6183   6205     1
   6183   6194     1
   6183   6195     1
   6184   6188     1
   6184   6189     1
   6184   6203     1
   6184   6204     1
   6185   6187     1
   6185   6209     1
   6185   6202     1
   6185   6197     1
   6185   6198     1
   6186   6187     1
   6186   6209     1
   6186   6202     1
   6186   6197     1
   6186   6198     1
   6187   6200     1
   6187   6201     1
   6188   6209     1
   6188   6199     1
   6188   6191     1
   6188   6192     1
   6189   6209     1
   6189   6199     1
   6189   6191     1
   6189   6192     1
   6190   6209     1
   6191   6208     1
   6191   6200     1
   6191   6201     1
   6192   6208     1
   6192   6200     1
   6192   6201     1
   6193   6209     1
   6194  11333     1
   6194   6206     1
   6194   6207     1
   6195  11333     1
   6195   6206     1
   6195   6207     1
   6196   6209     1
   6197  11310     1
   6197   6203     1
   6197   6204     1
   6198  11310     1
   6198   6203     1
   6198   6204     1
   6202  11309     1
   6203  11306     1
   6204  11306     1
   6205  11332     1
   6206  11329     1
   6207  11329     1
   6210   6224     1
   6210   6225     1
   6210   6227     1
   6210   6228     1
   6210   6221     1
   6210   6222     1
   6211   6215     1
   6211   6216     1
   6211   6218     1
   6211   6219     1
   6211   6236     1
   6211   6237     1
   6212   6214     1
   6212   6217     1
   6212   6239     1
   6212   6235     1
   6212   6224     1
   6212   6225     1
   6213   6214     1
   6213   6217     1
   6213   6239     1
   6213   6235     1
   6213   6224     1
   6213   6225     1
   6214   6218     1
   6214   6219     1
   6214   6233     1
   6214   6234     1
   6215   6217     1
   6215   6239     1
   6215   6232     1
   6215   6227     1
   6215   6228     1
   6216   6217     1
   6216   6239     1
   6216   6232     1
   6216   6227     1
   6216   6228     1
   6217   6230     1
   6217   6231     1
   6218   6239     1
   6218   6229     1
   6218   6221     1
   6218   6222     1
   6219   6239     1
   6219   6229     1
   6219   6221     1
   6219   6222     1
   6220   6239     1
   6221   6238     1
   6221   6230     1
   6221   6231     1
   6222   6238     1
   6222   6230     1
   6222   6231     1
   6223   6239     1
   6224  11379     1
   6224   6236     1
   6224   6237     1
   6225  11379     1
   6225   6236     1
   6225   6237     1
   6226   6239     1
   6227  11356     1
   6227   6233     1
   6227   6234     1
   6228  11356     1
   6228   6233     1
   6228   6234     1
   6232  11355     1
   6233  11352     1
   6234  11352     1
   6235  11378     1
   6236  11375     1
   6237  11375     1
   6240   6254     1
   6240   6255     1
   6240   6257     1
   6240   6258     1
   6240   6251     1
   6240   6252     1
   6241   6245     1
   6241   6246     1
   6241   6248     1
   6241   6249     1
   6241   6266     1
   6241   6267     1
   6242   6244     1
   6242   6247     1
   6242   6269     1
   6242   6265     1
   6242   6254     1
   6242   6255     1
   6243   6244     1
   6243   6247     1
   6243   6269     1
   6243   6265     1
   6243   6254     1
   6243   6255     1
   6244   6248     1
   6244   6249     1
   6244   6263     1
   6244   6264     1
   6245   6247     1
   6245   6269     1
   6245   6262     1
   6245   6257     1
   6245   6258     1
   6246   6247     1
   6246   6269     1
   6246   6262     1
   6246   6257     1
   6246   6258     1
   6247   6260     1
   6247   6261     1
   6248   6269     1
   6248   6259     1
   6248   6251     1
   6248   6252     1
   6249   6269     1
   6249   6259     1
   6249   6251     1
   6249   6252     1
   6250   6269     1
   6251   6268     1
   6251   6260     1
   6251   6261     1
   6252   6268     1
   6252   6260     1
   6252   6261     1
   6253   6269     1
   6254  11425     1
   6254   6266     1
   6254   6267     1
   6255  11425     1
   6255   6266     1
   6255   6267     1
   6256   6269     1
   6257  11402     1
   6257   6263     1
   6257   6264     1
   6258  11402     1
   6258   6263     1
   6258   6264     1
   6262  11401     1
   6263  11398     1
   6264  11398     1
   6265  11424     1
   6266  11421     1
   6267  11421     1
   6270   6284     1
   6270   6285     1
   6270   6287     1
   6270   6288     1
   6270   6281     1
   6270   6282     1
   6271   6275     1
   6271   6276     1
   6271   6278     1
   6271   6279     1
   6271   6296     1
   6271   6297     1
   6272   6274     1
   6272   6277     1
   6272   6299     1
   6272   6295     1
   6272   6284     1
   6272   6285     1
   6273   6274     1
   6273   6277     1
   6273   6299     1
   6273   6295     1
   6273   6284     1
   6273   6285     1
   6274   6278     1
   6274   6279     1
   6274   6293     1
   6274   6294     1
   6275   6277     1
   6275   6299     1
   6275   6292     1
   6275   6287     1
   6275   6288     1
   6276   6277     1
   6276   6299     1
   6276   6292     1
   6276   6287     1
   6276   6288     1
   6277   6290     1
   6277   6291     1
   6278   6299     1
   6278   6289     1
   6278   6281     1
   6278   6282     1
   6279   6299     1
   6279   6289     1
   6279   6281     1
   6279   6282     1
   6280   6299     1
   6281   6298     1
   6281   6290     1
   6281   6291     1
   6282   6298     1
   6282   6290     1
   6282   6291     1
   6283   6299     1
   6284  11471     1
   6284   6296     1
   6284   6297     1
   6285  11471     1
   6285   6296     1
   6285   6297     1
   6286   6299     1
   6287  11448     1
   6287   6293     1
   6287   6294     1
   6288  11448     1
   6288   6293     1
   6288   6294     1
   6292  11447     1
   6293  11444     1
   6294  11444     1
   6295  11470     1
   6296  11467     1
   6297  11467     1
   6300   6314     1
   6300   6315     1
   6300   6317     1
   6300   6318     1
   6300   6311     1
   6300   6312     1
   6301   6305     1
   6301   6306     1
   6301   6308     1
   6301   6309     1
   6301   6326     1
   6301   6327     1
   6302   6304     1
   6302   6307     1
   6302   6329     1
   6302   6325     1
   6302   6314     1
   6302   6315     1
   6303   6304     1
   6303   6307     1
   6303   6329     1
   6303   6325     1
   6303   6314     1
   6303   6315     1
   6304   6308     1
   6304   6309     1
   6304   6323     1
   6304   6324     1
   6305   6307     1
   6305   6329     1
   6305   6322     1
   6305   6317     1
   6305   6318     1
   6306   6307     1
   6306   6329     1
   6306   6322     1
   6306   6317     1
   6306   6318     1
   6307   6320     1
   6307   6321     1
   6308   6329     1
   6308   6319     1
   6308   6311     1
   6308   6312     1
   6309   6329     1
   6309   6319     1
   6309   6311     1
   6309   6312     1
   6310   6329     1
   6311   6328     1
   6311   6320     1
   6311   6321     1
   6312   6328     1
   6312   6320     1
   6312   6321     1
   6313   6329     1
   6314  11517     1
   6314   6326     1
   6314   6327     1
   6315  11517     1
   6315   6326     1
   6315   6327     1
   6316   6329     1
   6317  11494     1
   6317   6323     1
   6317   6324     1
   6318  11494     1
   6318   6323     1
   6318   6324     1
   6322  11493     1
   6323  11490     1
   6324  11490     1
   6325  11516     1
   6326  11513     1
   6327  11513     1
   6330   6344     1
   6330   6345     1
   6330   6347     1
   6330   6348     1
   6330   6341     1
   6330   6342     1
   6331   6335     1
   6331   6336     1
   6331   6338     1
   6331   6339     1
   6331   6356     1
   6331   6357     1
   6332   6334     1
   6332   6337     1
   6332   6359     1
   6332   6355     1
   6332   6344     1
   6332   6345     1
   6333   6334     1
   6333   6337     1
   6333   6359     1
   6333   6355     1
   6333   6344     1
   6333   6345     1
   6334   6338     1
   6334   6339     1
   6334   6353     1
   6334   6354     1
   6335   6337     1
   6335   6359     1
   6335   6352     1
   6335   6347     1
   6335   6348     1
   6336   6337     1
   6336   6359     1
   6336   6352     1
   6336   6347     1
   6336   6348     1
   6337   6350     1
   6337   6351     1
   6338   6359     1
   6338   6349     1
   6338   6341     1
   6338   6342     1
   6339   6359     1
   6339   6349     1
   6339   6341     1
   6339   6342     1
   6340   6359     1
   6341   6358     1
   6341   6350     1
   6341   6351     1
   6342   6358     1
   6342   6350     1
   6342   6351     1
   6343   6359     1
   6344  11563     1
   6344   6356     1
   6344   6357     1
   6345  11563     1
   6345   6356     1
   6345   6357     1
   6346   6359     1
   6347  11540     1
   6347   6353     1
   6347   6354     1
   6348  11540     1
   6348   6353     1
   6348   6354     1
   6352  11539     1
   6353  11536     1
   6354  11536     1
   6355  11562     1
   6356  11559     1
   6357  11559     1
   6360   6374     1
   6360   6375     1
   6360   6377     1
   6360   6378     1
   6360   6371     1
   6360   6372     1
   6361   6365     1
   6361   6366     1
   6361   6368     1
   6361   6369     1
   6361   6386     1
   6361   6387     1
   6362   6364     1
   6362   6367     1
   6362   6389     1
   6362   6385     1
   6362   6374     1
   6362   6375     1
   6363   6364     1
   6363   6367     1
   6363   6389     1
   6363   6385     1
   6363   6374     1
   6363   6375     1
   6364   6368     1
   6364   6369     1
   6364   6383     1
   6364   6384     1
   6365   6367     1
   6365   6389     1
   6365   6382     1
   6365   6377     1
   6365   6378     1
   6366   6367     1
   6366   6389     1
   6366   6382     1
   6366   6377     1
   6366   6378     1
   6367   6380     1
   6367   6381     1
   6368   6389     1
   6368   6379     1
   6368   6371     1
   6368   6372     1
   6369   6389     1
   6369   6379     1
   6369   6371     1
   6369   6372     1
   6370   6389     1
   6371   6388     1
   6371   6380     1
   6371   6381     1
   6372   6388     1
   6372   6380     1
   6372   6381     1
   6373   6389     1
   6374  11609     1
   6374   6386     1
   6374   6387     1
   6375  11609     1
   6375   6386     1
   6375   6387     1
   6376   6389     1
   6377  11586     1
   6377   6383     1
   6377   6384     1
   6378  11586     1
   6378   6383     1
   6378   6384     1
   6382  11585     1
   6383  11582     1
   6384  11582     1
   6385  11608     1
   6386  11605     1
   6387  11605     1
   6390   6404     1
   6390   6405     1
   6390   6407     1
   6390   6408     1
   6390   6401     1
   6390   6402     1
   6391   6395     1
   6391   6396     1
   6391   6398     1
   6391   6399     1
   6391   6416     1
   6391   6417     1
   6392   6394     1
   6392   6397     1
   6392   6419     1
   6392   6415     1
   6392   6404     1
   6392   6405     1
   6393   6394     1
   6393   6397     1
   6393   6419     1
   6393   6415     1
   6393   6404     1
   6393   6405     1
   6394   6398     1
   6394   6399     1
   6394   6413     1
   6394   6414     1
   6395   6397     1
   6395   6419     1
   6395   6412     1
   6395   6407     1
   6395   6408     1
   6396   6397     1
   6396   6419     1
   6396   6412     1
   6396   6407     1
   6396   6408     1
   6397   6410     1
   6397   6411     1
   6398   6419     1
   6398   6409     1
   6398   6401     1
   6398   6402     1
   6399   6419     1
   6399   6409     1
   6399   6401     1
   6399   6402     1
   6400   6419     1
   6401   6418     1
   6401   6410     1
   6401   6411     1
   6402   6418     1
   6402   6410     1
   6402   6411     1
   6403   6419     1
   6404  11655     1
   6404   6416     1
   6404   6417     1
   6405  11655     1
   6405   6416     1
   6405   6417     1
   6406   6419     1
   6407  11632     1
   6407   6413     1
   6407   6414     1
   6408  11632     1
   6408   6413     1
   6408   6414     1
   6412  11631     1
   6413  11628     1
   6414  11628     1
   6415  11654     1
   6416  11651     1
   6417  11651     1
   6420   6434     1
   6420   6435     1
   6420   6437     1
   6420   6438     1
   6420   6431     1
   6420   6432     1
   6421   6425     1
   6421   6426     1
   6421   6428     1
   6421   6429     1
   6421   6446     1
   6421   6447     1
   6422   6424     1
   6422   6427     1
   6422   6449     1
   6422   6445     1
   6422   6434     1
   6422   6435     1
   6423   6424     1
   6423   6427     1
   6423   6449     1
   6423   6445     1
   6423   6434     1
   6423   6435     1
   6424   6428     1
   6424   6429     1
   6424   6443     1
   6424   6444     1
   6425   6427     1
   6425   6449     1
   6425   6442     1
   6425   6437     1
   6425   6438     1
   6426   6427     1
   6426   6449     1
   6426   6442     1
   6426   6437     1
   6426   6438     1
   6427   6440     1
   6427   6441     1
   6428   6449     1
   6428   6439     1
   6428   6431     1
   6428   6432     1
   6429   6449     1
   6429   6439     1
   6429   6431     1
   6429   6432     1
   6430   6449     1
   6431   6448     1
   6431   6440     1
   6431   6441     1
   6432   6448     1
   6432   6440     1
   6432   6441     1
   6433   6449     1
   6434  11701     1
   6434   6446     1
   6434   6447     1
   6435  11701     1
   6435   6446     1
   6435   6447     1
   6436   6449     1
   6437  11678     1
   6437   6443     1
   6437   6444     1
   6438  11678     1
   6438   6443     1
   6438   6444     1
   6442  11677     1
   6443  11674     1
   6444  11674     1
   6445  11700     1
   6446  11697     1
   6447  11697     1
   6450   6464     1
   6450   6465     1
   6450   6467     1
   6450   6468     1
   6450   6461     1
   6450   6462     1
   6451   6455     1
   6451   6456     1
   6451   6458     1
   6451   6459     1
   6451   6476     1
   6451   6477     1
   6452   6454     1
   6452   6457     1
   6452   6479     1
   6452   6475     1
   6452   6464     1
   6452   6465     1
   6453   6454     1
   6453   6457     1
   6453   6479     1
   6453   6475     1
   6453   6464     1
   6453   6465     1
   6454   6458     1
   6454   6459     1
   6454   6473     1
   6454   6474     1
   6455   6457     1
   6455   6479     1
   6455   6472     1
   6455   6467     1
   6455   6468     1
   6456   6457     1
   6456   6479     1
   6456   6472     1
   6456   6467     1
   6456   6468     1
   6457   6470     1
   6457   6471     1
   6458   6479     1
   6458   6469     1
   6458   6461     1
   6458   6462     1
   6459   6479     1
   6459   6469     1
   6459   6461     1
   6459   6462     1
   6460   6479     1
   6461   6478     1
   6461   6470     1
   6461   6471     1
   6462   6478     1
   6462   6470     1
   6462   6471     1
   6463   6479     1
   6464  11747     1
   6464   6476     1
   6464   6477     1
   6465  11747     1
   6465   6476     1
   6465   6477     1
   6466   6479     1
   6467  11724     1
   6467   6473     1
   6467   6474     1
   6468  11724     1
   6468   6473     1
   6468   6474     1
   6472  11723     1
   6473  11720     1
   6474  11720     1
   6475  11746     1
   6476  11743     1
   6477  11743     1
   6480   6494     1
   6480   6495     1
   6480   6497     1
   6480   6498     1
   6480   6491     1
   6480   6492     1
   6481   6485     1
   6481   6486     1
   6481   6488     1
   6481   6489     1
   6481   6506     1
   6481   6507     1
   6482   6484     1
   6482   6487     1
   6482   6509     1
   6482   6505     1
   6482   6494     1
   6482   6495     1
   6483   6484     1
   6483   6487     1
   6483   6509     1
   6483   6505     1
   6483   6494     1
   6483   6495     1
   6484   6488     1
   6484   6489     1
   6484   6503     1
   6484   6504     1
   6485   6487     1
   6485   6509     1
   6485   6502     1
   6485   6497     1
   6485   6498     1
   6486   6487     1
   6486   6509     1
   6486   6502     1
   6486   6497     1
   6486   6498     1
   6487   6500     1
   6487   6501     1
   6488   6509     1
   6488   6499     1
   6488   6491     1
   6488   6492     1
   6489   6509     1
   6489   6499     1
   6489   6491     1
   6489   6492     1
   6490   6509     1
   6491   6508     1
   6491   6500     1
   6491   6501     1
   6492   6508     1
   6492   6500     1
   6492   6501     1
   6493   6509     1
   6494  11793     1
   6494   6506     1
   6494   6507     1
   6495  11793     1
   6495   6506     1
   6495   6507     1
   6496   6509     1
   6497  11770     1
   6497   6503     1
   6497   6504     1
   6498  11770     1
   6498   6503     1
   6498   6504     1
   6502  11769     1
   6503  11766     1
   6504  11766     1
   6505  11792     1
   6506  11789     1
   6507  11789     1
   6510   6524     1
   6510   6525     1
   6510   6527     1
   6510   6528     1
   6510   6521     1
   6510   6522     1
   6511   6515     1
   6511   6516     1
   6511   6518     1
   6511   6519     1
   6511   6536     1
   6511   6537     1
   6512   6514     1
   6512   6517     1
   6512   6539     1
   6512   6535     1
   6512   6524     1
   6512   6525     1
   6513   6514     1
   6513   6517     1
   6513   6539     1
   6513   6535     1
   6513   6524     1
   6513   6525     1
   6514   6518     1
   6514   6519     1
   6514   6533     1
   6514   6534     1
   6515   6517     1
   6515   6539     1
   6515   6532     1
   6515   6527     1
   6515   6528     1
   6516   6517     1
   6516   6539     1
   6516   6532     1
   6516   6527     1
   6516   6528     1
   6517   6530     1
   6517   6531     1
   6518   6539     1
   6518   6529     1
   6518   6521     1
   6518   6522     1
   6519   6539     1
   6519   6529     1
   6519   6521     1
   6519   6522     1
   6520   6539     1
   6521   6538     1
   6521   6530     1
   6521   6531     1
   6522   6538     1
   6522   6530     1
   6522   6531     1
   6523   6539     1
   6524  11839     1
   6524   6536     1
   6524   6537     1
   6525  11839     1
   6525   6536     1
   6525   6537     1
   6526   6539     1
   6527  11816     1
   6527   6533     1
   6527   6534     1
   6528  11816     1
   6528   6533     1
   6528   6534     1
   6532  11815     1
   6533  11812     1
   6534  11812     1
   6535  11838     1
   6536  11835     1
   6537  11835     1
   6540   6554     1
   6540   6555     1
   6540   6557     1
   6540   6558     1
   6540   6551     1
   6540   6552     1
   6541   6545     1
   6541   6546     1
   6541   6548     1
   6541   6549     1
   6541   6566     1
   6541   6567     1
   6542   6544     1
   6542   6547     1
   6542   6569     1
   6542   6565     1
   6542   6554     1
   6542   6555     1
   6543   6544     1
   6543   6547     1
   6543   6569     1
   6543   6565     1
   6543   6554     1
   6543   6555     1
   6544   6548     1
   6544   6549     1
   6544   6563     1
   6544   6564     1
   6545   6547     1
   6545   6569     1
   6545   6562     1
   6545   6557     1
   6545   6558     1
   6546   6547     1
   6546   6569     1
   6546   6562     1
   6546   6557     1
   6546   6558     1
   6547   6560     1
   6547   6561     1
   6548   6569     1
   6548   6559     1
   6548   6551     1
   6548   6552     1
   6549   6569     1
   6549   6559     1
   6549   6551     1
   6549   6552     1
   6550   6569     1
   6551   6568     1
   6551   6560     1
   6551   6561     1
   6552   6568     1
   6552   6560     1
   6552   6561     1
   6553   6569     1
   6554  11885     1
   6554   6566     1
   6554   6567     1
   6555  11885     1
   6555   6566     1
   6555   6567     1
   6556   6569     1
   6557  11862     1
   6557   6563     1
   6557   6564     1
   6558  11862     1
   6558   6563     1
   6558   6564     1
   6562  11861     1
   6563  11858     1
   6564  11858     1
   6565  11884     1
   6566  11881     1
   6567  11881     1
   6570   6584     1
   6570   6585     1
   6570   6587     1
   6570   6588     1
   6570   6581     1
   6570   6582     1
   6571   6575     1
   6571   6576     1
   6571   6578     1
   6571   6579     1
   6571   6596     1
   6571   6597     1
   6572   6574     1
   6572   6577     1
   6572   6599     1
   6572   6595     1
   6572   6584     1
   6572   6585     1
   6573   6574     1
   6573   6577     1
   6573   6599     1
   6573   6595     1
   6573   6584     1
   6573   6585     1
   6574   6578     1
   6574   6579     1
   6574   6593     1
   6574   6594     1
   6575   6577     1
   6575   6599     1
   6575   6592     1
   6575   6587     1
   6575   6588     1
   6576   6577     1
   6576   6599     1
   6576   6592     1
   6576   6587     1
   6576   6588     1
   6577   6590     1
   6577   6591     1
   6578   6599     1
   6578   6589     1
   6578   6581     1
   6578   6582     1
   6579   6599     1
   6579   6589     1
   6579   6581     1
   6579   6582     1
   6580   6599     1
   6581   6598     1
   6581   6590     1
   6581   6591     1
   6582   6598     1
   6582   6590     1
   6582   6591     1
   6583   6599     1
   6584  11931     1
   6584   6596     1
   6584   6597     1
   6585  11931     1
   6585   6596     1
   6585   6597     1
   6586   6599     1
   6587  11908     1
   6587   6593     1
   6587   6594     1
   6588  11908     1
   6588   6593     1
   6588   6594     1
   6592  11907     1
   6593  11904     1
   6594  11904     1
   6595  11930     1
   6596  11927     1
   6597  11927     1
   6600   6614     1
   6600   6615     1
   6600   6617     1
   6600   6618     1
   6600   6611     1
   6600   6612     1
   6601   6605     1
   6601   6606     1
   6601   6608     1
   6601   6609     1
   6601   6626     1
   6601   6627     1
   6602   6604     1
   6602   6607     1
   6602   6629     1
   6602   6625     1
   6602   6614     1
   6602   6615     1
   6603   6604     1
   6603   6607     1
   6603   6629     1
   6603   6625     1
   6603   6614     1
   6603   6615     1
   6604   6608     1
   6604   6609     1
   6604   6623     1
   6604   6624     1
   6605   6607     1
   6605   6629     1
   6605   6622     1
   6605   6617     1
   6605   6618     1
   6606   6607     1
   6606   6629     1
   6606   6622     1
   6606   6617     1
   6606   6618     1
   6607   6620     1
   6607   6621     1
   6608   6629     1
   6608   6619     1
   6608   6611     1
   6608   6612     1
   6609   6629     1
   6609   6619     1
   6609   6611     1
   6609   6612     1
   6610   6629     1
   6611   6628     1
   6611   6620     1
   6611   6621     1
   6612   6628     1
   6612   6620     1
   6612   6621     1
   6613   6629     1
   6614  11977     1
   6614   6626     1
   6614   6627     1
   6615  11977     1
   6615   6626     1
   6615   6627     1
   6616   6629     1
   6617  11954     1
   6617   6623     1
   6617   6624     1
   6618  11954     1
   6618   6623     1
   6618   6624     1
   6622  11953     1
   6623  11950     1
   6624  11950     1
   6625  11976     1
   6626  11973     1
   6627  11973     1
   6630   6644     1
   6630   6645     1
   6630   6647     1
   6630   6648     1
   6630   6641     1
   6630   6642     1
   6631   6635     1
   6631   6636     1
   6631   6638     1
   6631   6639     1
   6631   6656     1
   6631   6657     1
   6632   6634     1
   6632   6637     1
   6632   6659     1
   6632   6655     1
   6632   6644     1
   6632   6645     1
   6633   6634     1
   6633   6637     1
   6633   6659     1
   6633   6655     1
   6633   6644     1
   6633   6645     1
   6634   6638     1
   6634   6639     1
   6634   6653     1
   6634   6654     1
   6635   6637     1
   6635   6659     1
   6635   6652     1
   6635   6647     1
   6635   6648     1
   6636   6637     1
   6636   6659     1
   6636   6652     1
   6636   6647     1
   6636   6648     1
   6637   6650     1
   6637   6651     1
   6638   6659     1
   6638   6649     1
   6638   6641     1
   6638   6642     1
   6639   6659     1
   6639   6649     1
   6639   6641     1
   6639   6642     1
   6640   6659     1
   6641   6658     1
   6641   6650     1
   6641   6651     1
   6642   6658     1
   6642   6650     1
   6642   6651     1
   6643   6659     1
   6644  12023     1
   6644   6656     1
   6644   6657     1
   6645  12023     1
   6645   6656     1
   6645   6657     1
   6646   6659     1
   6647  12000     1
   6647   6653     1
   6647   6654     1
   6648  12000     1
   6648   6653     1
   6648   6654     1
   6652  11999     1
   6653  11996     1
   6654  11996     1
   6655  12022     1
   6656  12019     1
   6657  12019     1
   6660   6674     1
   6660   6675     1
   6660   6677     1
   6660   6678     1
   6660   6671     1
   6660   6672     1
   6661   6665     1
   6661   6666     1
   6661   6668     1
   6661   6669     1
   6661   6686     1
   6661   6687     1
   6662   6664     1
   6662   6667     1
   6662   6689     1
   6662   6685     1
   6662   6674     1
   6662   6675     1
   6663   6664     1
   6663   6667     1
   6663   6689     1
   6663   6685     1
   6663   6674     1
   6663   6675     1
   6664   6668     1
   6664   6669     1
   6664   6683     1
   6664   6684     1
   6665   6667     1
   6665   6689     1
   6665   6682     1
   6665   6677     1
   6665   6678     1
   6666   6667     1
   6666   6689     1
   6666   6682     1
   6666   6677     1
   6666   6678     1
   6667   6680     1
   6667   6681     1
   6668   6689     1
   6668   6679     1
   6668   6671     1
   6668   6672     1
   6669   6689     1
   6669   6679     1
   6669   6671     1
   6669   6672     1
   6670   6689     1
   6671   6688     1
   6671   6680     1
   6671   6681     1
   6672   6688     1
   6672   6680     1
   6672   6681     1
   6673   6689     1
   6674  12069     1
   6674   6686     1
   6674   6687     1
   6675  12069     1
   6675   6686     1
   6675   6687     1
   6676   6689     1
   6677  12046     1
   6677   6683     1
   6677   6684     1
   6678  12046     1
   6678   6683     1
   6678   6684     1
   6682  12045     1
   6683  12042     1
   6684  12042     1
   6685  12068     1
   6686  12065     1
   6687  12065     1
   6690   6704     1
   6690   6705     1
   6690   6707     1
   6690   6708     1
   6690   6701     1
   6690   6702     1
   6691   6695     1
   6691   6696     1
   6691   6698     1
   6691   6699     1
   6691   6716     1
   6691   6717     1
   6692   6694     1
   6692   6697     1
   6692   6719     1
   6692   6715     1
   6692   6704     1
   6692   6705     1
   6693   6694     1
   6693   6697     1
   6693   6719     1
   6693   6715     1
   6693   6704     1
   6693   6705     1
   6694   6698     1
   6694   6699     1
   6694   6713     1
   6694   6714     1
   6695   6697     1
   6695   6719     1
   6695   6712     1
   6695   6707     1
   6695   6708     1
   6696   6697     1
   6696   6719     1
   6696   6712     1
   6696   6707     1
   6696   6708     1
   6697   6710     1
   6697   6711     1
   6698   6719     1
   6698   6709     1
   6698   6701     1
   6698   6702     1
   6699   6719     1
   6699   6709     1
   6699   6701     1
   6699   6702     1
   6700   6719     1
   6701   6718     1
   6701   6710     1
   6701   6711     1
   6702   6718     1
   6702   6710     1
   6702   6711     1
   6703   6719     1
   6704  12115     1
   6704   6716     1
   6704   6717     1
   6705  12115     1
   6705   6716     1
   6705   6717     1
   6706   6719     1
   6707  12092     1
   6707   6713     1
   6707   6714     1
   6708  12092     1
   6708   6713     1
   6708   6714     1
   6712  12091     1
   6713  12088     1
   6714  12088     1
   6715  12114     1
   6716  12111     1
   6717  12111     1
   6720   6734     1
   6720   6735     1
   6720   6737     1
   6720   6738     1
   6720   6731     1
   6720   6732     1
   6721   6725     1
   6721   6726     1
   6721   6728     1
   6721   6729     1
   6721   6746     1
   6721   6747     1
   6722   6724     1
   6722   6727     1
   6722   6749     1
   6722   6745     1
   6722   6734     1
   6722   6735     1
   6723   6724     1
   6723   6727     1
   6723   6749     1
   6723   6745     1
   6723   6734     1
   6723   6735     1
   6724   6728     1
   6724   6729     1
   6724   6743     1
   6724   6744     1
   6725   6727     1
   6725   6749     1
   6725   6742     1
   6725   6737     1
   6725   6738     1
   6726   6727     1
   6726   6749     1
   6726   6742     1
   6726   6737     1
   6726   6738     1
   6727   6740     1
   6727   6741     1
   6728   6749     1
   6728   6739     1
   6728   6731     1
   6728   6732     1
   6729   6749     1
   6729   6739     1
   6729   6731     1
   6729   6732     1
   6730   6749     1
   6731   6748     1
   6731   6740     1
   6731   6741     1
   6732   6748     1
   6732   6740     1
   6732   6741     1
   6733   6749     1
   6734  12161     1
   6734   6746     1
   6734   6747     1
   6735  12161     1
   6735   6746     1
   6735   6747     1
   6736   6749     1
   6737  12138     1
   6737   6743     1
   6737   6744     1
   6738  12138     1
   6738   6743     1
   6738   6744     1
   6742  12137     1
   6743  12134     1
   6744  12134     1
   6745  12160     1
   6746  12157     1
   6747  12157     1
   6750   6764     1
   6750   6765     1
   6750   6767     1
   6750   6768     1
   6750   6761     1
   6750   6762     1
   6751   6755     1
   6751   6756     1
   6751   6758     1
   6751   6759     1
   6751   6776     1
   6751   6777     1
   6752   6754     1
   6752   6757     1
   6752   6779     1
   6752   6775     1
   6752   6764     1
   6752   6765     1
   6753   6754     1
   6753   6757     1
   6753   6779     1
   6753   6775     1
   6753   6764     1
   6753   6765     1
   6754   6758     1
   6754   6759     1
   6754   6773     1
   6754   6774     1
   6755   6757     1
   6755   6779     1
   6755   6772     1
   6755   6767     1
   6755   6768     1
   6756   6757     1
   6756   6779     1
   6756   6772     1
   6756   6767     1
   6756   6768     1
   6757   6770     1
   6757   6771     1
   6758   6779     1
   6758   6769     1
   6758   6761     1
   6758   6762     1
   6759   6779     1
   6759   6769     1
   6759   6761     1
   6759   6762     1
   6760   6779     1
   6761   6778     1
   6761   6770     1
   6761   6771     1
   6762   6778     1
   6762   6770     1
   6762   6771     1
   6763   6779     1
   6764  12207     1
   6764   6776     1
   6764   6777     1
   6765  12207     1
   6765   6776     1
   6765   6777     1
   6766   6779     1
   6767  12184     1
   6767   6773     1
   6767   6774     1
   6768  12184     1
   6768   6773     1
   6768   6774     1
   6772  12183     1
   6773  12180     1
   6774  12180     1
   6775  12206     1
   6776  12203     1
   6777  12203     1
   6780   6794     1
   6780   6795     1
   6780   6797     1
   6780   6798     1
   6780   6791     1
   6780   6792     1
   6781   6785     1
   6781   6786     1
   6781   6788     1
   6781   6789     1
   6781   6806     1
   6781   6807     1
   6782   6784     1
   6782   6787     1
   6782   6809     1
   6782   6805     1
   6782   6794     1
   6782   6795     1
   6783   6784     1
   6783   6787     1
   6783   6809     1
   6783   6805     1
   6783   6794     1
   6783   6795     1
   6784   6788     1
   6784   6789     1
   6784   6803     1
   6784   6804     1
   6785   6787     1
   6785   6809     1
   6785   6802     1
   6785   6797     1
   6785   6798     1
   6786   6787     1
   6786   6809     1
   6786   6802     1
   6786   6797     1
   6786   6798     1
   6787   6800     1
   6787   6801     1
   6788   6809     1
   6788   6799     1
   6788   6791     1
   6788   6792     1
   6789   6809     1
   6789   6799     1
   6789   6791     1
   6789   6792     1
   6790   6809     1
   6791   6808     1
   6791   6800     1
   6791   6801     1
   6792   6808     1
   6792   6800     1
   6792   6801     1
   6793   6809     1
   6794  12253     1
   6794   6806     1
   6794   6807     1
   6795  12253     1
   6795   6806     1
   6795   6807     1
   6796   6809     1
   6797  12230     1
   6797   6803     1
   6797   6804     1
   6798  12230     1
   6798   6803     1
   6798   6804     1
   6802  12229     1
   6803  12226     1
   6804  12226     1
   6805  12252     1
   6806  12249     1
   6807  12249     1
   6810   6824     1
   6810   6825     1
   6810   6827     1
   6810   6828     1
   6810   6821     1
   6810   6822     1
   6811   6815     1
   6811   6816     1
   6811   6818     1
   6811   6819     1
   6811   6836     1
   6811   6837     1
   6812   6814     1
   6812   6817     1
   6812   6839     1
   6812   6835     1
   6812   6824     1
   6812   6825     1
   6813   6814     1
   6813   6817     1
   6813   6839     1
   6813   6835     1
   6813   6824     1
   6813   6825     1
   6814   6818     1
   6814   6819     1
   6814   6833     1
   6814   6834     1
   6815   6817     1
   6815   6839     1
   6815   6832     1
   6815   6827     1
   6815   6828     1
   6816   6817     1
   6816   6839     1
   6816   6832     1
   6816   6827     1
   6816   6828     1
   6817   6830     1
   6817   6831     1
   6818   6839     1
   6818   6829     1
   6818   6821     1
   6818   6822     1
   6819   6839     1
   6819   6829     1
   6819   6821     1
   6819   6822     1
   6820   6839     1
   6821   6838     1
   6821   6830     1
   6821   6831     1
   6822   6838     1
   6822   6830     1
   6822   6831     1
   6823   6839     1
   6824  12299     1
   6824   6836     1
   6824   6837     1
   6825  12299     1
   6825   6836     1
   6825   6837     1
   6826   6839     1
   6827  12276     1
   6827   6833     1
   6827   6834     1
   6828  12276     1
   6828   6833     1
   6828   6834     1
   6832  12275     1
   6833  12272     1
   6834  12272     1
   6835  12298     1
   6836  12295     1
   6837  12295     1
   6840   6854     1
   6840   6855     1
   6840   6857     1
   6840   6858     1
   6840   6851     1
   6840   6852     1
   6841   6845     1
   6841   6846     1
   6841   6848     1
   6841   6849     1
   6841   6866     1
   6841   6867     1
   6842   6844     1
   6842   6847     1
   6842   6869     1
   6842   6865     1
   6842   6854     1
   6842   6855     1
   6843   6844     1
   6843   6847     1
   6843   6869     1
   6843   6865     1
   6843   6854     1
   6843   6855     1
   6844   6848     1
   6844   6849     1
   6844   6863     1
   6844   6864     1
   6845   6847     1
   6845   6869     1
   6845   6862     1
   6845   6857     1
   6845   6858     1
   6846   6847     1
   6846   6869     1
   6846   6862     1
   6846   6857     1
   6846   6858     1
   6847   6860     1
   6847   6861     1
   6848   6869     1
   6848   6859     1
   6848   6851     1
   6848   6852     1
   6849   6869     1
   6849   6859     1
   6849   6851     1
   6849   6852     1
   6850   6869     1
   6851   6868     1
   6851   6860     1
   6851   6861     1
   6852   6868     1
   6852   6860     1
   6852   6861     1
   6853   6869     1
   6854  12345     1
   6854   6866     1
   6854   6867     1
   6855  12345     1
   6855   6866     1
   6855   6867     1
   6856   6869     1
   6857  12322     1
   6857   6863     1
   6857   6864     1
   6858  12322     1
   6858   6863     1
   6858   6864     1
   6862  12321     1
   6863  12318     1
   6864  12318     1
   6865  12344     1
   6866  12341     1
   6867  12341     1
   6870   6884     1
   6870   6885     1
   6870   6887     1
   6870   6888     1
   6870   6881     1
   6870   6882     1
   6871   6875     1
   6871   6876     1
   6871   6878     1
   6871   6879     1
   6871   6896     1
   6871   6897     1
   6872   6874     1
   6872   6877     1
   6872   6899     1
   6872   6895     1
   6872   6884     1
   6872   6885     1
   6873   6874     1
   6873   6877     1
   6873   6899     1
   6873   6895     1
   6873   6884     1
   6873   6885     1
   6874   6878     1
   6874   6879     1
   6874   6893     1
   6874   6894     1
   6875   6877     1
   6875   6899     1
   6875   6892     1
   6875   6887     1
   6875   6888     1
   6876   6877     1
   6876   6899     1
   6876   6892     1
   6876   6887     1
   6876   6888     1
   6877   6890     1
   6877   6891     1
   6878   6899     1
   6878   6889     1
   6878   6881     1
   6878   6882     1
   6879   6899     1
   6879   6889     1
   6879   6881     1
   6879   6882     1
   6880   6899     1
   6881   6898     1
   6881   6890     1
   6881   6891     1
   6882   6898     1
   6882   6890     1
   6882   6891     1
   6883   6899     1
   6884  12391     1
   6884   6896     1
   6884   6897     1
   6885  12391     1
   6885   6896     1
   6885   6897     1
   6886   6899     1
   6887  12368     1
   6887   6893     1
   6887   6894     1
   6888  12368     1
   6888   6893     1
   6888   6894     1
   6892  12367     1
   6893  12364     1
   6894  12364     1
   6895  12390     1
   6896  12387     1
   6897  12387     1
   6900   6914     1
   6900   6915     1
   6900   6917     1
   6900   6918     1
   6900   6911     1
   6900   6912     1
   6901   6905     1
   6901   6906     1
   6901   6908     1
   6901   6909     1
   6901   6926     1
   6901   6927     1
   6902   6904     1
   6902   6907     1
   6902   6929     1
   6902   6925     1
   6902   6914     1
   6902   6915     1
   6903   6904     1
   6903   6907     1
   6903   6929     1
   6903   6925     1
   6903   6914     1
   6903   6915     1
   6904   6908     1
   6904   6909     1
   6904   6923     1
   6904   6924     1
   6905   6907     1
   6905   6929     1
   6905   6922     1
   6905   6917     1
   6905   6918     1
   6906   6907     1
   6906   6929     1
   6906   6922     1
   6906   6917     1
   6906   6918     1
   6907   6920     1
   6907   6921     1
   6908   6929     1
   6908   6919     1
   6908   6911     1
   6908   6912     1
   6909   6929     1
   6909   6919     1
   6909   6911     1
   6909   6912     1
   6910   6929     1
   6911   6928     1
   6911   6920     1
   6911   6921     1
   6912   6928     1
   6912   6920     1
   6912   6921     1
   6913   6929     1
   6914  12437     1
   6914   6926     1
   6914   6927     1
   6915  12437     1
   6915   6926     1
   6915   6927     1
   6916   6929     1
   6917  12414     1
   6917   6923     1
   6917   6924     1
   6918  12414     1
   6918   6923     1
   6918   6924     1
   6922  12413     1
   6923  12410     1
   6924  12410     1
   6925  12436     1
   6926  12433     1
   6927  12433     1
   6930   6944     1
   6930   6945     1
   6930   6947     1
   6930   6948     1
   6930   6941     1
   6930   6942     1
   6931   6935     1
   6931   6936     1
   6931   6938     1
   6931   6939     1
   6931   6956     1
   6931   6957     1
   6932   6934     1
   6932   6937     1
   6932   6959     1
   6932   6955     1
   6932   6944     1
   6932   6945     1
   6933   6934     1
   6933   6937     1
   6933   6959     1
   6933   6955     1
   6933   6944     1
   6933   6945     1
   6934   6938     1
   6934   6939     1
   6934   6953     1
   6934   6954     1
   6935   6937     1
   6935   6959     1
   6935   6952     1
   6935   6947     1
   6935   6948     1
   6936   6937     1
   6936   6959     1
   6936   6952     1
   6936   6947     1
   6936   6948     1
   6937   6950     1
   6937   6951     1
   6938   6959     1
   6938   6949     1
   6938   6941     1
   6938   6942     1
   6939   6959     1
   6939   6949     1
   6939   6941     1
   6939   6942     1
   6940   6959     1
   6941   6958     1
   6941   6950     1
   6941   6951     1
   6942   6958     1
   6942   6950     1
   6942   6951     1
   6943   6959     1
   6944  12483     1
   6944   6956     1
   6944   6957     1
   6945  12483     1
   6945   6956     1
   6945   6957     1
   6946   6959     1
   6947  12460     1
   6947   6953     1
   6947   6954     1
   6948  12460     1
   6948   6953     1
   6948   6954     1
   6952  12459     1
   6953  12456     1
   6954  12456     1
   6955  12482     1
   6956  12479     1
   6957  12479     1
   6960   6974     1
   6960   6975     1
   6960   6977     1
   6960   6978     1
   6960   6971     1
   6960   6972     1
   6961   6965     1
   6961   6966     1
   6961   6968     1
   6961   6969     1
   6961   6986     1
   6961   6987     1
   6962   6964     1
   6962   6967     1
   6962   6989     1
   6962   6985     1
   6962   6974     1
   6962   6975     1
   6963   6964     1
   6963   6967     1
   6963   6989     1
   6963   6985     1
   6963   6974     1
   6963   6975     1
   6964   6968     1
   6964   6969     1
   6964   6983     1
   6964   6984     1
   6965   6967     1
   6965   6989     1
   6965   6982     1
   6965   6977     1
   6965   6978     1
   6966   6967     1
   6966   6989     1
   6966   6982     1
   6966   6977     1
   6966   6978     1
   6967   6980     1
   6967   6981     1
   6968   6989     1
   6968   6979     1
   6968   6971     1
   6968   6972     1
   6969   6989     1
   6969   6979     1
   6969   6971     1
   6969   6972     1
   6970   6989     1
   6971   6988     1
   6971   6980     1
   6971   6981     1
   6972   6988     1
   6972   6980     1
   6972   6981     1
   6973   6989     1
   6974  12529     1
   6974   6986     1
   6974   6987     1
   6975  12529     1
   6975   6986     1
   6975   6987     1
   6976   6989     1
   6977  12506     1
   6977   6983     1
   6977   6984     1
   6978  12506     1
   6978   6983     1
   6978   6984     1
   6982  12505     1
   6983  12502     1
   6984  12502     1
   6985  12528     1
   6986  12525     1
   6987  12525     1
   6990   7004     1
   6990   7005     1
   6990   7007     1
   6990   7008     1
   6990   7001     1
   6990   7002     1
   6991   6995     1
   6991   6996     1
   6991   6998     1
   6991   6999     1
   6991   7016     1
   6991   7017     1
   6992   6994     1
   6992   6997     1
   6992   7019     1
   6992   7015     1
   6992   7004     1
   6992   7005     1
   6993   6994     1
   6993   6997     1
   6993   7019     1
   6993   7015     1
   6993   7004     1
   6993   7005     1
   6994   6998     1
   6994   6999     1
   6994   7013     1
   6994   7014     1
   6995   6997     1
   6995   7019     1
   6995   7012     1
   6995   7007     1
   6995   7008     1
   6996   6997     1
   6996   7019     1
   6996   7012     1
   6996   7007     1
   6996   7008     1
   6997   7010     1
   6997   7011     1
   6998   7019     1
   6998   7009     1
   6998   7001     1
   6998   7002     1
   6999   7019     1
   6999   7009     1
   6999   7001     1
   6999   7002     1
   7000   7019     1
   7001   7018     1
   7001   7010     1
   7001   7011     1
   7002   7018     1
   7002   7010     1
   7002   7011     1
   7003   7019     1
   7004  12575     1
   7004   7016     1
   7004   7017     1
   7005  12575     1
   7005   7016     1
   7005   7017     1
   7006   7019     1
   7007  12552     1
   7007   7013     1
   7007   7014     1
   7008  12552     1
   7008   7013     1
   7008   7014     1
   7012  12551     1
   7013  12548     1
   7014  12548     1
   7015  12574     1
   7016  12571     1
   7017  12571     1
   7020   7034     1
   7020   7035     1
   7020   7037     1
   7020   7038     1
   7020   7031     1
   7020   7032     1
   7021   7025     1
   7021   7026     1
   7021   7028     1
   7021   7029     1
   7021   7046     1
   7021   7047     1
   7022   7024     1
   7022   7027     1
   7022   7049     1
   7022   7045     1
   7022   7034     1
   7022   7035     1
   7023   7024     1
   7023   7027     1
   7023   7049     1
   7023   7045     1
   7023   7034     1
   7023   7035     1
   7024   7028     1
   7024   7029     1
   7024   7043     1
   7024   7044     1
   7025   7027     1
   7025   7049     1
   7025   7042     1
   7025   7037     1
   7025   7038     1
   7026   7027     1
   7026   7049     1
   7026   7042     1
   7026   7037     1
   7026   7038     1
   7027   7040     1
   7027   7041     1
   7028   7049     1
   7028   7039     1
   7028   7031     1
   7028   7032     1
   7029   7049     1
   7029   7039     1
   7029   7031     1
   7029   7032     1
   7030   7049     1
   7031   7048     1
   7031   7040     1
   7031   7041     1
   7032   7048     1
   7032   7040     1
   7032   7041     1
   7033   7049     1
   7034  12621     1
   7034   7046     1
   7034   7047     1
   7035  12621     1
   7035   7046     1
   7035   7047     1
   7036   7049     1
   7037  12598     1
   7037   7043     1
   7037   7044     1
   7038  12598     1
   7038   7043     1
   7038   7044     1
   7042  12597     1
   7043  12594     1
   7044  12594     1
   7045  12620     1
   7046  12617     1
   7047  12617     1
   7050   7064     1
   7050   7065     1
   7050   7067     1
   7050   7068     1
   7050   7061     1
   7050   7062     1
   7051   7055     1
   7051   7056     1
   7051   7058     1
   7051   7059     1
   7051   7076     1
   7051   7077     1
   7052   7054     1
   7052   7057     1
   7052   7079     1
   7052   7075     1
   7052   7064     1
   7052   7065     1
   7053   7054     1
   7053   7057     1
   7053   7079     1
   7053   7075     1
   7053   7064     1
   7053   7065     1
   7054   7058     1
   7054   7059     1
   7054   7073     1
   7054   7074     1
   7055   7057     1
   7055   7079     1
   7055   7072     1
   7055   7067     1
   7055   7068     1
   7056   7057     1
   7056   7079     1
   7056   7072     1
   7056   7067     1
   7056   7068     1
   7057   7070     1
   7057   7071     1
   7058   7079     1
   7058   7069     1
   7058   7061     1
   7058   7062     1
   7059   7079     1
   7059   7069     1
   7059   7061     1
   7059   7062     1
   7060   7079     1
   7061   7078     1
   7061   7070     1
   7061   7071     1
   7062   7078     1
   7062   7070     1
   7062   7071     1
   7063   7079     1
   7064  12667     1
   7064   7076     1
   7064   7077     1
   7065  12667     1
   7065   7076     1
   7065   7077     1
   7066   7079     1
   7067  12644     1
   7067   7073     1
   7067   7074     1
   7068  12644     1
   7068   7073     1
   7068   7074     1
   7072  12643     1
   7073  12640     1
   7074  12640     1
   7075  12666     1
   7076  12663     1
   7077  12663     1
   7080   7094     1
   7080   7095     1
   7080   7097     1
   7080   7098     1
   7080   7091     1
   7080   7092     1
   7081   7085     1
   7081   7086     1
   7081   7088     1
   7081   7089     1
   7081   7106     1
   7081   7107     1
   7082   7084     1
   7082   7087     1
   7082   7109     1
   7082   7105     1
   7082   7094     1
   7082   7095     1
   7083   7084     1
   7083   7087     1
   7083   7109     1
   7083   7105     1
   7083   7094     1
   7083   7095     1
   7084   7088     1
   7084   7089     1
   7084   7103     1
   7084   7104     1
   7085   7087     1
   7085   7109     1
   7085   7102     1
   7085   7097     1
   7085   7098     1
   7086   7087     1
   7086   7109     1
   7086   7102     1
   7086   7097     1
   7086   7098     1
   7087   7100     1
   7087   7101     1
   7088   7109     1
   7088   7099     1
   7088   7091     1
   7088   7092     1
   7089   7109     1
   7089   7099     1
   7089   7091     1
   7089   7092     1
   7090   7109     1
   7091   7108     1
   7091   7100     1
   7091   7101     1
   7092   7108     1
   7092   7100     1
   7092   7101     1
   7093   7109     1
   7094  12713     1
   7094   7106     1
   7094   7107     1
   7095  12713     1
   7095   7106     1
   7095   7107     1
   7096   7109     1
   7097  12690     1
   7097   7103     1
   7097   7104     1
   7098  12690     1
   7098   7103     1
   7098   7104     1
   7102  12689     1
   7103  12686     1
   7104  12686     1
   7105  12712     1
   7106  12709     1
   7107  12709     1
   7110   7124     1
   7110   7125     1
   7110   7127     1
   7110   7128     1
   7110   7121     1
   7110   7122     1
   7111   7115     1
   7111   7116     1
   7111   7118     1
   7111   7119     1
   7111   7136     1
   7111   7137     1
   7112   7114     1
   7112   7117     1
   7112   7139     1
   7112   7135     1
   7112   7124     1
   7112   7125     1
   7113   7114     1
   7113   7117     1
   7113   7139     1
   7113   7135     1
   7113   7124     1
   7113   7125     1
   7114   7118     1
   7114   7119     1
   7114   7133     1
   7114   7134     1
   7115   7117     1
   7115   7139     1
   7115   7132     1
   7115   7127     1
   7115   7128     1
   7116   7117     1
   7116   7139     1
   7116   7132     1
   7116   7127     1
   7116   7128     1
   7117   7130     1
   7117   7131     1
   7118   7139     1
   7118   7129     1
   7118   7121     1
   7118   7122     1
   7119   7139     1
   7119   7129     1
   7119   7121     1
   7119   7122     1
   7120   7139     1
   7121   7138     1
   7121   7130     1
   7121   7131     1
   7122   7138     1
   7122   7130     1
   7122   7131     1
   7123   7139     1
   7124  12759     1
   7124   7136     1
   7124   7137     1
   7125  12759     1
   7125   7136     1
   7125   7137     1
   7126   7139     1
   7127  12736     1
   7127   7133     1
   7127   7134     1
   7128  12736     1
   7128   7133     1
   7128   7134     1
   7132  12735     1
   7133  12732     1
   7134  12732     1
   7135  12758     1
   7136  12755     1
   7137  12755     1
   7140   7154     1
   7140   7155     1
   7140   7157     1
   7140   7158     1
   7140   7151     1
   7140   7152     1
   7141   7145     1
   7141   7146     1
   7141   7148     1
   7141   7149     1
   7141   7166     1
   7141   7167     1
   7142   7144     1
   7142   7147     1
   7142   7169     1
   7142   7165     1
   7142   7154     1
   7142   7155     1
   7143   7144     1
   7143   7147     1
   7143   7169     1
   7143   7165     1
   7143   7154     1
   7143   7155     1
   7144   7148     1
   7144   7149     1
   7144   7163     1
   7144   7164     1
   7145   7147     1
   7145   7169     1
   7145   7162     1
   7145   7157     1
   7145   7158     1
   7146   7147     1
   7146   7169     1
   7146   7162     1
   7146   7157     1
   7146   7158     1
   7147   7160     1
   7147   7161     1
   7148   7169     1
   7148   7159     1
   7148   7151     1
   7148   7152     1
   7149   7169     1
   7149   7159     1
   7149   7151     1
   7149   7152     1
   7150   7169     1
   7151   7168     1
   7151   7160     1
   7151   7161     1
   7152   7168     1
   7152   7160     1
   7152   7161     1
   7153   7169     1
   7154  12805     1
   7154   7166     1
   7154   7167     1
   7155  12805     1
   7155   7166     1
   7155   7167     1
   7156   7169     1
   7157  12782     1
   7157   7163     1
   7157   7164     1
   7158  12782     1
   7158   7163     1
   7158   7164     1
   7162  12781     1
   7163  12778     1
   7164  12778     1
   7165  12804     1
   7166  12801     1
   7167  12801     1
   7170   7184     1
   7170   7185     1
   7170   7187     1
   7170   7188     1
   7170   7181     1
   7170   7182     1
   7171   7175     1
   7171   7176     1
   7171   7178     1
   7171   7179     1
   7171   7196     1
   7171   7197     1
   7172   7174     1
   7172   7177     1
   7172   7199     1
   7172   7195     1
   7172   7184     1
   7172   7185     1
   7173   7174     1
   7173   7177     1
   7173   7199     1
   7173   7195     1
   7173   7184     1
   7173   7185     1
   7174   7178     1
   7174   7179     1
   7174   7193     1
   7174   7194     1
   7175   7177     1
   7175   7199     1
   7175   7192     1
   7175   7187     1
   7175   7188     1
   7176   7177     1
   7176   7199     1
   7176   7192     1
   7176   7187     1
   7176   7188     1
   7177   7190     1
   7177   7191     1
   7178   7199     1
   7178   7189     1
   7178   7181     1
   7178   7182     1
   7179   7199     1
   7179   7189     1
   7179   7181     1
   7179   7182     1
   7180   7199     1
   7181   7198     1
   7181   7190     1
   7181   7191     1
   7182   7198     1
   7182   7190     1
   7182   7191     1
   7183   7199     1
   7184  12851     1
   7184   7196     1
   7184   7197     1
   7185  12851     1
   7185   7196     1
   7185   7197     1
   7186   7199     1
   7187  12828     1
   7187   7193     1
   7187   7194     1
   7188  12828     1
   7188   7193     1
   7188   7194     1
   7192  12827     1
   7193  12824     1
   7194  12824     1
   7195  12850     1
   7196  12847     1
   7197  12847     1
   7200   7214     1
   7200   7215     1
   7200   7217     1
   7200   7218     1
   7200   7211     1
   7200   7212     1
   7201   7205     1
   7201   7206     1
   7201   7208     1
   7201   7209     1
   7201   7226     1
   7201   7227     1
   7202   7204     1
   7202   7207     1
   7202   7229     1
   7202   7225     1
   7202   7214     1
   7202   7215     1
   7203   7204     1
   7203   7207     1
   7203   7229     1
   7203   7225     1
   7203   7214     1
   7203   7215     1
   7204   7208     1
   7204   7209     1
   7204   7223     1
   7204   7224     1
   7205   7207     1
   7205   7229     1
   7205   7222     1
   7205   7217     1
   7205   7218     1
   7206   7207     1
   7206   7229     1
   7206   7222     1
   7206   7217     1
   7206   7218     1
   7207   7220     1
   7207   7221     1
   7208   7229     1
   7208   7219     1
   7208   7211     1
   7208   7212     1
   7209   7229     1
   7209   7219     1
   7209   7211     1
   7209   7212     1
   7210   7229     1
   7211   7228     1
   7211   7220     1
   7211   7221     1
   7212   7228     1
   7212   7220     1
   7212   7221     1
   7213   7229     1
   7214  12897     1
   7214   7226     1
   7214   7227     1
   7215  12897     1
   7215   7226     1
   7215   7227     1
   7216   7229     1
   7217  12874     1
   7217   7223     1
   7217   7224     1
   7218  12874     1
   7218   7223     1
   7218   7224     1
   7222  12873     1
   7223  12870     1
   7224  12870     1
   7225  12896     1
   7226  12893     1
   7227  12893     1
   7230   7244     1
   7230   7245     1
   7230   7247     1
   7230   7248     1
   7230   7241     1
   7230   7242     1
   7231   7235     1
   7231   7236     1
   7231   7238     1
   7231   7239     1
   7231   7256     1
   7231   7257     1
   7232   7234     1
   7232   7237     1
   7232   7259     1
   7232   7255     1
   7232   7244     1
   7232   7245     1
   7233   7234     1
   7233   7237     1
   7233   7259     1
   7233   7255     1
   7233   7244     1
   7233   7245     1
   7234   7238     1
   7234   7239     1
   7234   7253     1
   7234   7254     1
   7235   7237     1
   7235   7259     1
   7235   7252     1
   7235   7247     1
   7235   7248     1
   7236   7237     1
   7236   7259     1
   7236   7252     1
   7236   7247     1
   7236   7248     1
   7237   7250     1
   7237   7251     1
   7238   7259     1
   7238   7249     1
   7238   7241     1
   7238   7242     1
   7239   7259     1
   7239   7249     1
   7239   7241     1
   7239   7242     1
   7240   7259     1
   7241   7258     1
   7241   7250     1
   7241   7251     1
   7242   7258     1
   7242   7250     1
   7242   7251     1
   7243   7259     1
   7244  12943     1
   7244   7256     1
   7244   7257     1
   7245  12943     1
   7245   7256     1
   7245   7257     1
   7246   7259     1
   7247  12920     1
   7247   7253     1
   7247   7254     1
   7248  12920     1
   7248   7253     1
   7248   7254     1
   7252  12919     1
   7253  12916     1
   7254  12916     1
   7255  12942     1
   7256  12939     1
   7257  12939     1
   7260   7274     1
   7260   7275     1
   7260   7277     1
   7260   7278     1
   7260   7271     1
   7260   7272     1
   7261   7265     1
   7261   7266     1
   7261   7268     1
   7261   7269     1
   7261   7286     1
   7261   7287     1
   7262   7264     1
   7262   7267     1
   7262   7289     1
   7262   7285     1
   7262   7274     1
   7262   7275     1
   7263   7264     1
   7263   7267     1
   7263   7289     1
   7263   7285     1
   7263   7274     1
   7263   7275     1
   7264   7268     1
   7264   7269     1
   7264   7283     1
   7264   7284     1
   7265   7267     1
   7265   7289     1
   7265   7282     1
   7265   7277     1
   7265   7278     1
   7266   7267     1
   7266   7289     1
   7266   7282     1
   7266   7277     1
   7266   7278     1
   7267   7280     1
   7267   7281     1
   7268   7289     1
   7268   7279     1
   7268   7271     1
   7268   7272     1
   7269   7289     1
   7269   7279     1
   7269   7271     1
   7269   7272     1
   7270   7289     1
   7271   7288     1
   7271   7280     1
   7271   7281     1
   7272   7288     1
   7272   7280     1
   7272   7281     1
   7273   7289     1
   7274  12989     1
   7274   7286     1
   7274   7287     1
   7275  12989     1
   7275   7286     1
   7275   7287     1
   7276   7289     1
   7277  12966     1
   7277   7283     1
   7277   7284     1
   7278  12966     1
   7278   7283     1
   7278   7284     1
   7282  12965     1
   7283  12962     1
   7284  12962     1
   7285  12988     1
   7286  12985     1
   7287  12985     1
   7290   7304     1
   7290   7305     1
   7290   7307     1
   7290   7308     1
   7290   7301     1
   7290   7302     1
   7291   7295     1
   7291   7296     1
   7291   7298     1
   7291   7299     1
   7291   7316     1
   7291   7317     1
   7292   7294     1
   7292   7297     1
   7292   7319     1
   7292   7315     1
   7292   7304     1
   7292   7305     1
   7293   7294     1
   7293   7297     1
   7293   7319     1
   7293   7315     1
   7293   7304     1
   7293   7305     1
   7294   7298     1
   7294   7299     1
   7294   7313     1
   7294   7314     1
   7295   7297     1
   7295   7319     1
   7295   7312     1
   7295   7307     1
   7295   7308     1
   7296   7297     1
   7296   7319     1
   7296   7312     1
   7296   7307     1
   7296   7308     1
   7297   7310     1
   7297   7311     1
   7298   7319     1
   7298   7309     1
   7298   7301     1
   7298   7302     1
   7299   7319     1
   7299   7309     1
   7299   7301     1
   7299   7302     1
   7300   7319     1
   7301   7318     1
   7301   7310     1
   7301   7311     1
   7302   7318     1
   7302   7310     1
   7302   7311     1
   7303   7319     1
   7304  13035     1
   7304   7316     1
   7304   7317     1
   7305  13035     1
   7305   7316     1
   7305   7317     1
   7306   7319     1
   7307  13012     1
   7307   7313     1
   7307   7314     1
   7308  13012     1
   7308   7313     1
   7308   7314     1
   7312  13011     1
   7313  13008     1
   7314  13008     1
   7315  13034     1
   7316  13031     1
   7317  13031     1
   7320   7334     1
   7320   7335     1
   7320   7337     1
   7320   7338     1
   7320   7331     1
   7320   7332     1
   7321   7325     1
   7321   7326     1
   7321   7328     1
   7321   7329     1
   7321   7346     1
   7321   7347     1
   7322   7324     1
   7322   7327     1
   7322   7349     1
   7322   7345     1
   7322   7334     1
   7322   7335     1
   7323   7324     1
   7323   7327     1
   7323   7349     1
   7323   7345     1
   7323   7334     1
   7323   7335     1
   7324   7328     1
   7324   7329     1
   7324   7343     1
   7324   7344     1
   7325   7327     1
   7325   7349     1
   7325   7342     1
   7325   7337     1
   7325   7338     1
   7326   7327     1
   7326   7349     1
   7326   7342     1
   7326   7337     1
   7326   7338     1
   7327   7340     1
   7327   7341     1
   7328   7349     1
   7328   7339     1
   7328   7331     1
   7328   7332     1
   7329   7349     1
   7329   7339     1
   7329   7331     1
   7329   7332     1
   7330   7349     1
   7331   7348     1
   7331   7340     1
   7331   7341     1
   7332   7348     1
   7332   7340     1
   7332   7341     1
   7333   7349     1
   7334  13081     1
   7334   7346     1
   7334   7347     1
   7335  13081     1
   7335   7346     1
   7335   7347     1
   7336   7349     1
   7337  13058     1
   7337   7343     1
   7337   7344     1
   7338  13058     1
   7338   7343     1
   7338   7344     1
   7342  13057     1
   7343  13054     1
   7344  13054     1
   7345  13080     1
   7346  13077     1
   7347  13077     1
   7350   7364     1
   7350   7365     1
   7350   7367     1
   7350   7368     1
   7350   7361     1
   7350   7362     1
   7351   7355     1
   7351   7356     1
   7351   7358     1
   7351   7359     1
   7351   7376     1
   7351   7377     1
   7352   7354     1
   7352   7357     1
   7352   7379     1
   7352   7375     1
   7352   7364     1
   7352   7365     1
   7353   7354     1
   7353   7357     1
   7353   7379     1
   7353   7375     1
   7353   7364     1
   7353   7365     1
   7354   7358     1
   7354   7359     1
   7354   7373     1
   7354   7374     1
   7355   7357     1
   7355   7379     1
   7355   7372     1
   7355   7367     1
   7355   7368     1
   7356   7357     1
   7356   7379     1
   7356   7372     1
   7356   7367     1
   7356   7368     1
   7357   7370     1
   7357   7371     1
   7358   7379     1
   7358   7369     1
   7358   7361     1
   7358   7362     1
   7359   7379     1
   7359   7369     1
   7359   7361     1
   7359   7362     1
   7360   7379     1
   7361   7378     1
   7361   7370     1
   7361   7371     1
   7362   7378     1
   7362   7370     1
   7362   7371     1
   7363   7379     1
   7364  13127     1
   7364   7376     1
   7364   7377     1
   7365  13127     1
   7365   7376     1
   7365   7377     1
   7366   7379     1
   7367  13104     1
   7367   7373     1
   7367   7374     1
   7368  13104     1
   7368   7373     1
   7368   7374     1
   7372  13103     1
   7373  13100     1
   7374  13100     1
   7375  13126     1
   7376  13123     1
   7377  13123     1
   7380   7394     1
   7380   7395     1
   7380   7397     1
   7380   7398     1
   7380   7391     1
   7380   7392     1
   7381   7385     1
   7381   7386     1
   7381   7388     1
   7381   7389     1
   7381   7406     1
   7381   7407     1
   7382   7384     1
   7382   7387     1
   7382   7409     1
   7382   7405     1
   7382   7394     1
   7382   7395     1
   7383   7384     1
   7383   7387     1
   7383   7409     1
   7383   7405     1
   7383   7394     1
   7383   7395     1
   7384   7388     1
   7384   7389     1
   7384   7403     1
   7384   7404     1
   7385   7387     1
   7385   7409     1
   7385   7402     1
   7385   7397     1
   7385   7398     1
   7386   7387     1
   7386   7409     1
   7386   7402     1
   7386   7397     1
   7386   7398     1
   7387   7400     1
   7387   7401     1
   7388   7409     1
   7388   7399     1
   7388   7391     1
   7388   7392     1
   7389   7409     1
   7389   7399     1
   7389   7391     1
   7389   7392     1
   7390   7409     1
   7391   7408     1
   7391   7400     1
   7391   7401     1
   7392   7408     1
   7392   7400     1
   7392   7401     1
   7393   7409     1
   7394  13173     1
   7394   7406     1
   7394   7407     1
   7395  13173     1
   7395   7406     1
   7395   7407     1
   7396   7409     1
   7397  13150     1
   7397   7403     1
   7397   7404     1
   7398  13150     1
   7398   7403     1
   7398   7404     1
   7402  13149     1
   7403  13146     1
   7404  13146     1
   7405  13172     1
   7406  13169     1
   7407  13169     1
   7410   7424     1
   7410   7425     1
   7410   7427     1
   7410   7428     1
   7410   7421     1
   7410   7422     1
   7411   7415     1
   7411   7416     1
   7411   7418     1
   7411   7419     1
   7411   7436     1
   7411   7437     1
   7412   7414     1
   7412   7417     1
   7412   7439     1
   7412   7435     1
   7412   7424     1
   7412   7425     1
   7413   7414     1
   7413   7417     1
   7413   7439     1
   7413   7435     1
   7413   7424     1
   7413   7425     1
   7414   7418     1
   7414   7419     1
   7414   7433     1
   7414   7434     1
   7415   7417     1
   7415   7439     1
   7415   7432     1
   7415   7427     1
   7415   7428     1
   7416   7417     1
   7416   7439     1
   7416   7432     1
   7416   7427     1
   7416   7428     1
   7417   7430     1
   7417   7431     1
   7418   7439     1
   7418   7429     1
   7418   7421     1
   7418   7422     1
   7419   7439     1
   7419   7429     1
   7419   7421     1
   7419   7422     1
   7420   7439     1
   7421   7438     1
   7421   7430     1
   7421   7431     1
   7422   7438     1
   7422   7430     1
   7422   7431     1
   7423   7439     1
   7424  13219     1
   7424   7436     1
   7424   7437     1
   7425  13219     1
   7425   7436     1
   7425   7437     1
   7426   7439     1
   7427  13196     1
   7427   7433     1
   7427   7434     1
   7428  13196     1
   7428   7433     1
   7428   7434     1
   7432  13195     1
   7433  13192     1
   7434  13192     1
   7435  13218     1
   7436  13215     1
   7437  13215     1
   7440   7454     1
   7440   7455     1
   7440   7457     1
   7440   7458     1
   7440   7451     1
   7440   7452     1
   7441   7445     1
   7441   7446     1
   7441   7448     1
   7441   7449     1
   7441   7466     1
   7441   7467     1
   7442   7444     1
   7442   7447     1
   7442   7469     1
   7442   7465     1
   7442   7454     1
   7442   7455     1
   7443   7444     1
   7443   7447     1
   7443   7469     1
   7443   7465     1
   7443   7454     1
   7443   7455     1
   7444   7448     1
   7444   7449     1
   7444   7463     1
   7444   7464     1
   7445   7447     1
   7445   7469     1
   7445   7462     1
   7445   7457     1
   7445   7458     1
   7446   7447     1
   7446   7469     1
   7446   7462     1
   7446   7457     1
   7446   7458     1
   7447   7460     1
   7447   7461     1
   7448   7469     1
   7448   7459     1
   7448   7451     1
   7448   7452     1
   7449   7469     1
   7449   7459     1
   7449   7451     1
   7449   7452     1
   7450   7469     1
   7451   7468     1
   7451   7460     1
   7451   7461     1
   7452   7468     1
   7452   7460     1
   7452   7461     1
   7453   7469     1
   7454  13265     1
   7454   7466     1
   7454   7467     1
   7455  13265     1
   7455   7466     1
   7455   7467     1
   7456   7469     1
   7457  13242     1
   7457   7463     1
   7457   7464     1
   7458  13242     1
   7458   7463     1
   7458   7464     1
   7462  13241     1
   7463  13238     1
   7464  13238     1
   7465  13264     1
   7466  13261     1
   7467  13261     1
   7470   7484     1
   7470   7485     1
   7470   7487     1
   7470   7488     1
   7470   7481     1
   7470   7482     1
   7471   7475     1
   7471   7476     1
   7471   7478     1
   7471   7479     1
   7471   7496     1
   7471   7497     1
   7472   7474     1
   7472   7477     1
   7472   7499     1
   7472   7495     1
   7472   7484     1
   7472   7485     1
   7473   7474     1
   7473   7477     1
   7473   7499     1
   7473   7495     1
   7473   7484     1
   7473   7485     1
   7474   7478     1
   7474   7479     1
   7474   7493     1
   7474   7494     1
   7475   7477     1
   7475   7499     1
   7475   7492     1
   7475   7487     1
   7475   7488     1
   7476   7477     1
   7476   7499     1
   7476   7492     1
   7476   7487     1
   7476   7488     1
   7477   7490     1
   7477   7491     1
   7478   7499     1
   7478   7489     1
   7478   7481     1
   7478   7482     1
   7479   7499     1
   7479   7489     1
   7479   7481     1
   7479   7482     1
   7480   7499     1
   7481   7498     1
   7481   7490     1
   7481   7491     1
   7482   7498     1
   7482   7490     1
   7482   7491     1
   7483   7499     1
   7484  13311     1
   7484   7496     1
   7484   7497     1
   7485  13311     1
   7485   7496     1
   7485   7497     1
   7486   7499     1
   7487  13288     1
   7487   7493     1
   7487   7494     1
   7488  13288     1
   7488   7493     1
   7488   7494     1
   7492  13287     1
   7493  13284     1
   7494  13284     1
   7495  13310     1
   7496  13307     1
   7497  13307     1
   7500   7514     1
   7500   7515     1
   7500   7517     1
   7500   7518     1
   7500   7511     1
   7500   7512     1
   7501   7505     1
   7501   7506     1
   7501   7508     1
   7501   7509     1
   7501   7526     1
   7501   7527     1
   7502   7504     1
   7502   7507     1
   7502   7529     1
   7502   7525     1
   7502   7514     1
   7502   7515     1
   7503   7504     1
   7503   7507     1
   7503   7529     1
   7503   7525     1
   7503   7514     1
   7503   7515     1
   7504   7508     1
   7504   7509     1
   7504   7523     1
   7504   7524     1
   7505   7507     1
   7505   7529     1
   7505   7522     1
   7505   7517     1
   7505   7518     1
   7506   7507     1
   7506   7529     1
   7506   7522     1
   7506   7517     1
   7506   7518     1
   7507   7520     1
   7507   7521     1
   7508   7529     1
   7508   7519     1
   7508   7511     1
   7508   7512     1
   7509   7529     1
   7509   7519     1
   7509   7511     1
   7509   7512     1
   7510   7529     1
   7511   7528     1
   7511   7520     1
   7511   7521     1
   7512   7528     1
   7512   7520     1
   7512   7521     1
   7513   7529     1
   7514  13357     1
   7514   7526     1
   7514   7527     1
   7515  13357     1
   7515   7526     1
   7515   7527     1
   7516   7529     1
   7517  13334     1
   7517   7523     1
   7517   7524     1
   7518  13334     1
   7518   7523     1
   7518   7524     1
   7522  13333     1
   7523  13330     1
   7524  13330     1
   7525  13356     1
   7526  13353     1
   7527  13353     1
   7530   7544     1
   7530   7545     1
   7530   7547     1
   7530   7548     1
   7530   7541     1
   7530   7542     1
   7531   7535     1
   7531   7536     1
   7531   7538     1
   7531   7539     1
   7531   7556     1
   7531   7557     1
   7532   7534     1
   7532   7537     1
   7532   7559     1
   7532   7555     1
   7532   7544     1
   7532   7545     1
   7533   7534     1
   7533   7537     1
   7533   7559     1
   7533   7555     1
   7533   7544     1
   7533   7545     1
   7534   7538     1
   7534   7539     1
   7534   7553     1
   7534   7554     1
   7535   7537     1
   7535   7559     1
   7535   7552     1
   7535   7547     1
   7535   7548     1
   7536   7537     1
   7536   7559     1
   7536   7552     1
   7536   7547     1
   7536   7548     1
   7537   7550     1
   7537   7551     1
   7538   7559     1
   7538   7549     1
   7538   7541     1
   7538   7542     1
   7539   7559     1
   7539   7549     1
   7539   7541     1
   7539   7542     1
   7540   7559     1
   7541   7558     1
   7541   7550     1
   7541   7551     1
   7542   7558     1
   7542   7550     1
   7542   7551     1
   7543   7559     1
   7544  13403     1
   7544   7556     1
   7544   7557     1
   7545  13403     1
   7545   7556     1
   7545   7557     1
   7546   7559     1
   7547  13380     1
   7547   7553     1
   7547   7554     1
   7548  13380     1
   7548   7553     1
   7548   7554     1
   7552  13379     1
   7553  13376     1
   7554  13376     1
   7555  13402     1
   7556  13399     1
   7557  13399     1
   7560   7574     1
   7560   7575     1
   7560   7577     1
   7560   7578     1
   7560   7571     1
   7560   7572     1
   7561   7565     1
   7561   7566     1
   7561   7568     1
   7561   7569     1
   7561   7586     1
   7561   7587     1
   7562   7564     1
   7562   7567     1
   7562   7589     1
   7562   7585     1
   7562   7574     1
   7562   7575     1
   7563   7564     1
   7563   7567     1
   7563   7589     1
   7563   7585     1
   7563   7574     1
   7563   7575     1
   7564   7568     1
   7564   7569     1
   7564   7583     1
   7564   7584     1
   7565   7567     1
   7565   7589     1
   7565   7582     1
   7565   7577     1
   7565   7578     1
   7566   7567     1
   7566   7589     1
   7566   7582     1
   7566   7577     1
   7566   7578     1
   7567   7580     1
   7567   7581     1
   7568   7589     1
   7568   7579     1
   7568   7571     1
   7568   7572     1
   7569   7589     1
   7569   7579     1
   7569   7571     1
   7569   7572     1
   7570   7589     1
   7571   7588     1
   7571   7580     1
   7571   7581     1
   7572   7588     1
   7572   7580     1
   7572   7581     1
   7573   7589     1
   7574  13449     1
   7574   7586     1
   7574   7587     1
   7575  13449     1
   7575   7586     1
   7575   7587     1
   7576   7589     1
   7577  13426     1
   7577   7583     1
   7577   7584     1
   7578  13426     1
   7578   7583     1
   7578   7584     1
   7582  13425     1
   7583  13422     1
   7584  13422     1
   7585  13448     1
   7586  13445     1
   7587  13445     1
   7590   7604     1
   7590   7605     1
   7590   7607     1
   7590   7608     1
   7590   7601     1
   7590   7602     1
   7591   7595     1
   7591   7596     1
   7591   7598     1
   7591   7599     1
   7591   7616     1
   7591   7617     1
   7592   7594     1
   7592   7597     1
   7592   7619     1
   7592   7615     1
   7592   7604     1
   7592   7605     1
   7593   7594     1
   7593   7597     1
   7593   7619     1
   7593   7615     1
   7593   7604     1
   7593   7605     1
   7594   7598     1
   7594   7599     1
   7594   7613     1
   7594   7614     1
   7595   7597     1
   7595   7619     1
   7595   7612     1
   7595   7607     1
   7595   7608     1
   7596   7597     1
   7596   7619     1
   7596   7612     1
   7596   7607     1
   7596   7608     1
   7597   7610     1
   7597   7611     1
   7598   7619     1
   7598   7609     1
   7598   7601     1
   7598   7602     1
   7599   7619     1
   7599   7609     1
   7599   7601     1
   7599   7602     1
   7600   7619     1
   7601   7618     1
   7601   7610     1
   7601   7611     1
   7602   7618     1
   7602   7610     1
   7602   7611     1
   7603   7619     1
   7604  13495     1
   7604   7616     1
   7604   7617     1
   7605  13495     1
   7605   7616     1
   7605   7617     1
   7606   7619     1
   7607  13472     1
   7607   7613     1
   7607   7614     1
   7608  13472     1
   7608   7613     1
   7608   7614     1
   7612  13471     1
   7613  13468     1
   7614  13468     1
   7615  13494     1
   7616  13491     1
   7617  13491     1
   7620   7628     1
   7620   7636     1
   7620   7641     1
   7620   7629     1
   7621   7638     1
   7621   7639     1
   7621   7627     1
   7621   7635     1
   7622   7624     1
   7622   7633     1
   7622   7623     1
   7622   7640     1
   7622   7638     1
   7622   7639     1
   7622   7626     1
   7623   7634     1
   7623   7642     1
   7623   7625     1
   7623   7632     1
   7623   7628     1
   7623   7636     1
   7624   7636     1
   7624   7629     1
   7624   7637     1
   7625   7635     1
   7626   7628     1
   7626   7637     1
   7627   7632     1
   7627   7628     1
   7627   7630     1
   7627   7642     1
   7627   7629     1
   7627   7637     1
   7628   7633     1
   7628   7631     1
   7628   7635     1
   7629   7631     1
   7638   7642     1
   7638   7641     1
   7639   7642     1
   7639   7641     1
   7643   7651     1
   7643   7659     1
   7643   7664     1
   7643   7652     1
   7644   7650     1
   7644   7658     1
   7644   7661     1
   7644   7662     1
   7645   7647     1
   7645   7656     1
   7645   7646     1
   7645   7663     1
   7645   7661     1
   7645   7662     1
   7645   7649     1
   7646   7648     1
   7646   7655     1
   7646   7651     1
   7646   7659     1
   7646   7657     1
   7646   7665     1
   7647   7652     1
   7647   7660     1
   7647   7659     1
   7648   7658     1
   7649   7660     1
   7649   7651     1
   7650   7653     1
   7650   7665     1
   7650   7652     1
   7650   7660     1
   7650   7655     1
   7650   7651     1
   7651   7654     1
   7651   7658     1
   7651   7656     1
   7652   7654     1
   7661   7664     1
   7661   7665     1
   7662   7664     1
   7662   7665     1
   7666   7674     1
   7666   7682     1
   7666   7687     1
   7666   7675     1
   7667   7684     1
   7667   7685     1
   7667   7673     1
   7667   7681     1
   7668   7670     1
   7668   7679     1
   7668   7669     1
   7668   7686     1
   7668   7684     1
   7668   7685     1
   7668   7672     1
   7669   7680     1
   7669   7688     1
   7669   7671     1
   7669   7678     1
   7669   7674     1
   7669   7682     1
   7670   7682     1
   7670   7675     1
   7670   7683     1
   7671   7681     1
   7672   7674     1
   7672   7683     1
   7673   7678     1
   7673   7674     1
   7673   7676     1
   7673   7688     1
   7673   7675     1
   7673   7683     1
   7674   7679     1
   7674   7677     1
   7674   7681     1
   7675   7677     1
   7684   7688     1
   7684   7687     1
   7685   7688     1
   7685   7687     1
   7689   7697     1
   7689   7705     1
   7689   7710     1
   7689   7698     1
   7690   7696     1
   7690   7704     1
   7690   7707     1
   7690   7708     1
   7691   7693     1
   7691   7702     1
   7691   7692     1
   7691   7709     1
   7691   7707     1
   7691   7708     1
   7691   7695     1
   7692   7694     1
   7692   7701     1
   7692   7697     1
   7692   7705     1
   7692   7703     1
   7692   7711     1
   7693   7698     1
   7693   7706     1
   7693   7705     1
   7694   7704     1
   7695   7706     1
   7695   7697     1
   7696   7699     1
   7696   7711     1
   7696   7698     1
   7696   7706     1
   7696   7701     1
   7696   7697     1
   7697   7700     1
   7697   7704     1
   7697   7702     1
   7698   7700     1
   7707   7710     1
   7707   7711     1
   7708   7710     1
   7708   7711     1
   7712   7720     1
   7712   7728     1
   7712   7733     1
   7712   7721     1
   7713   7730     1
   7713   7731     1
   7713   7719     1
   7713   7727     1
   7714   7716     1
   7714   7725     1
   7714   7715     1
   7714   7732     1
   7714   7730     1
   7714   7731     1
   7714   7718     1
   7715   7726     1
   7715   7734     1
   7715   7717     1
   7715   7724     1
   7715   7720     1
   7715   7728     1
   7716   7728     1
   7716   7721     1
   7716   7729     1
   7717   7727     1
   7718   7720     1
   7718   7729     1
   7719   7724     1
   7719   7720     1
   7719   7722     1
   7719   7734     1
   7719   7721     1
   7719   7729     1
   7720   7725     1
   7720   7723     1
   7720   7727     1
   7721   7723     1
   7730   7734     1
   7730   7733     1
   7731   7734     1
   7731   7733     1
   7735   7743     1
   7735   7751     1
   7735   7756     1
   7735   7744     1
   7736   7742     1
   7736   7750     1
   7736   7753     1
   7736   7754     1
   7737   7739     1
   7737   7748     1
   7737   7738     1
   7737   7755     1
   7737   7753     1
   7737   7754     1
   7737   7741     1
   7738   7740     1
   7738   7747     1
   7738   7743     1
   7738   7751     1
   7738   7749     1
   7738   7757     1
   7739   7744     1
   7739   7752     1
   7739   7751     1
   7740   7750     1
   7741   7752     1
   7741   7743     1
   7742   7745     1
   7742   7757     1
   7742   7744     1
   7742   7752     1
   7742   7747     1
   7742   7743     1
   7743   7746     1
   7743   7750     1
   7743   7748     1
   7744   7746     1
   7753   7756     1
   7753   7757     1
   7754   7756     1
   7754   7757     1
   7758   7766     1
   7758   7774     1
   7758   7779     1
   7758   7767     1
   7759   7776     1
   7759   7777     1
   7759   7765     1
   7759   7773     1
   7760   7762     1
   7760   7771     1
   7760   7761     1
   7760   7778     1
   7760   7776     1
   7760   7777     1
   7760   7764     1
   7761   7772     1
   7761   7780     1
   7761   7763     1
   7761   7770     1
   7761   7766     1
   7761   7774     1
   7762   7774     1
   7762   7767     1
   7762   7775     1
   7763   7773     1
   7764   7766     1
   7764   7775     1
   7765   7770     1
   7765   7766     1
   7765   7768     1
   7765   7780     1
   7765   7767     1
   7765   7775     1
   7766   7771     1
   7766   7769     1
   7766   7773     1
   7767   7769     1
   7776   7780     1
   7776   7779     1
   7777   7780     1
   7777   7779     1
   7781   7789     1
   7781   7797     1
   7781   7802     1
   7781   7790     1
   7782   7788     1
   7782   7796     1
   7782   7799     1
   7782   7800     1
   7783   7785     1
   7783   7794     1
   7783   7784     1
   7783   7801     1
   7783   7799     1
   7783   7800     1
   7783   7787     1
   7784   7786     1
   7784   7793     1
   7784   7789     1
   7784   7797     1
   7784   7795     1
   7784   7803     1
   7785   7790     1
   7785   7798     1
   7785   7797     1
   7786   7796     1
   7787   7798     1
   7787   7789     1
   7788   7791     1
   7788   7803     1
   7788   7790     1
   7788   7798     1
   7788   7793     1
   7788   7789     1
   7789   7792     1
   7789   7796     1
   7789   7794     1
   7790   7792     1
   7799   7802     1
   7799   7803     1
   7800   7802     1
   7800   7803     1
   7804   7812     1
   7804   7820     1
   7804   7825     1
   7804   7813     1
   7805   7822     1
   7805   7823     1
   7805   7811     1
   7805   7819     1
   7806   7808     1
   7806   7817     1
   7806   7807     1
   7806   7824     1
   7806   7822     1
   7806   7823     1
   7806   7810     1
   7807   7818     1
   7807   7826     1
   7807   7809     1
   7807   7816     1
   7807   7812     1
   7807   7820     1
   7808   7820     1
   7808   7813     1
   7808   7821     1
   7809   7819     1
   7810   7812     1
   7810   7821     1
   7811   7816     1
   7811   7812     1
   7811   7814     1
   7811   7826     1
   7811   7813     1
   7811   7821     1
   7812   7817     1
   7812   7815     1
   7812   7819     1
   7813   7815     1
   7822   7826     1
   7822   7825     1
   7823   7826     1
   7823   7825     1
   7827   7835     1
   7827   7843     1
   7827   7848     1
   7827   7836     1
   7828   7834     1
   7828   7842     1
   7828   7845     1
   7828   7846     1
   7829   7831     1
   7829   7840     1
   7829   7830     1
   7829   7847     1
   7829   7845     1
   7829   7846     1
   7829   7833     1
   7830   7832     1
   7830   7839     1
   7830   7835     1
   7830   7843     1
   7830   7841     1
   7830   7849     1
   7831   7836     1
   7831   7844     1
   7831   7843     1
   7832   7842     1
   7833   7844     1
   7833   7835     1
   7834   7837     1
   7834   7849     1
   7834   7836     1
   7834   7844     1
   7834   7839     1
   7834   7835     1
   7835   7838     1
   7835   7842     1
   7835   7840     1
   7836   7838     1
   7845   7848     1
   7845   7849     1
   7846   7848     1
   7846   7849     1
   7850   7858     1
   7850   7866     1
   7850   7871     1
   7850   7859     1
   7851   7868     1
   7851   7869     1
   7851   7857     1
   7851   7865     1
   7852   7854     1
   7852   7863     1
   7852   7853     1
   7852   7870     1
   7852   7868     1
   7852   7869     1
   7852   7856     1
   7853   7864     1
   7853   7872     1
   7853   7855     1
   7853   7862     1
   7853   7858     1
   7853   7866     1
   7854   7866     1
   7854   7859     1
   7854   7867     1
   7855   7865     1
   7856   7858     1
   7856   7867     1
   7857   7862     1
   7857   7858     1
   7857   7860     1
   7857   7872     1
   7857   7859     1
   7857   7867     1
   7858   7863     1
   7858   7861     1
   7858   7865     1
   7859   7861     1
   7868   7872     1
   7868   7871     1
   7869   7872     1
   7869   7871     1
   7873   7881     1
   7873   7889     1
   7873   7894     1
   7873   7882     1
   7874   7880     1
   7874   7888     1
   7874   7891     1
   7874   7892     1
   7875   7877     1
   7875   7886     1
   7875   7876     1
   7875   7893     1
   7875   7891     1
   7875   7892     1
   7875   7879     1
   7876   7878     1
   7876   7885     1
   7876   7881     1
   7876   7889     1
   7876   7887     1
   7876   7895     1
   7877   7882     1
   7877   7890     1
   7877   7889     1
   7878   7888     1
   7879   7890     1
   7879   7881     1
   7880   7883     1
   7880   7895     1
   7880   7882     1
   7880   7890     1
   7880   7885     1
   7880   7881     1
   7881   7884     1
   7881   7888     1
   7881   7886     1
   7882   7884     1
   7891   7894     1
   7891   7895     1
   7892   7894     1
   7892   7895     1
   7896   7904     1
   7896   7912     1
   7896   7917     1
   7896   7905     1
   7897   7914     1
   7897   7915     1
   7897   7903     1
   7897   7911     1
   7898   7900     1
   7898   7909     1
   7898   7899     1
   7898   7916     1
   7898   7914     1
   7898   7915     1
   7898   7902     1
   7899   7910     1
   7899   7918     1
   7899   7901     1
   7899   7908     1
   7899   7904     1
   7899   7912     1
   7900   7912     1
   7900   7905     1
   7900   7913     1
   7901   7911     1
   7902   7904     1
   7902   7913     1
   7903   7908     1
   7903   7904     1
   7903   7906     1
   7903   7918     1
   7903   7905     1
   7903   7913     1
   7904   7909     1
   7904   7907     1
   7904   7911     1
   7905   7907     1
   7914   7918     1
   7914   7917     1
   7915   7918     1
   7915   7917     1
   7919   7927     1
   7919   7935     1
   7919   7940     1
   7919   7928     1
   7920   7926     1
   7920   7934     1
   7920   7937     1
   7920   7938     1
   7921   7923     1
   7921   7932     1
   7921   7922     1
   7921   7939     1
   7921   7937     1
   7921   7938     1
   7921   7925     1
   7922   7924     1
   7922   7931     1
   7922   7927     1
   7922   7935     1
   7922   7933     1
   7922   7941     1
   7923   7928     1
   7923   7936     1
   7923   7935     1
   7924   7934     1
   7925   7936     1
   7925   7927     1
   7926   7929     1
   7926   7941     1
   7926   7928     1
   7926   7936     1
   7926   7931     1
   7926   7927     1
   7927   7930     1
   7927   7934     1
   7927   7932     1
   7928   7930     1
   7937   7940     1
   7937   7941     1
   7938   7940     1
   7938   7941     1
   7942   7950     1
   7942   7958     1
   7942   7963     1
   7942   7951     1
   7943   7960     1
   7943   7961     1
   7943   7949     1
   7943   7957     1
   7944   7946     1
   7944   7955     1
   7944   7945     1
   7944   7962     1
   7944   7960     1
   7944   7961     1
   7944   7948     1
   7945   7956     1
   7945   7964     1
   7945   7947     1
   7945   7954     1
   7945   7950     1
   7945   7958     1
   7946   7958     1
   7946   7951     1
   7946   7959     1
   7947   7957     1
   7948   7950     1
   7948   7959     1
   7949   7954     1
   7949   7950     1
   7949   7952     1
   7949   7964     1
   7949   7951     1
   7949   7959     1
   7950   7955     1
   7950   7953     1
   7950   7957     1
   7951   7953     1
   7960   7964     1
   7960   7963     1
   7961   7964     1
   7961   7963     1
   7965   7973     1
   7965   7981     1
   7965   7986     1
   7965   7974     1
   7966   7972     1
   7966   7980     1
   7966   7983     1
   7966   7984     1
   7967   7969     1
   7967   7978     1
   7967   7968     1
   7967   7985     1
   7967   7983     1
   7967   7984     1
   7967   7971     1
   7968   7970     1
   7968   7977     1
   7968   7973     1
   7968   7981     1
   7968   7979     1
   7968   7987     1
   7969   7974     1
   7969   7982     1
   7969   7981     1
   7970   7980     1
   7971   7982     1
   7971   7973     1
   7972   7975     1
   7972   7987     1
   7972   7974     1
   7972   7982     1
   7972   7977     1
   7972   7973     1
   7973   7976     1
   7973   7980     1
   7973   7978     1
   7974   7976     1
   7983   7986     1
   7983   7987     1
   7984   7986     1
   7984   7987     1
   7988   7996     1
   7988   8004     1
   7988   8009     1
   7988   7997     1
   7989   8006     1
   7989   8007     1
   7989   7995     1
   7989   8003     1
   7990   7992     1
   7990   8001     1
   7990   7991     1
   7990   8008     1
   7990   8006     1
   7990   8007     1
   7990   7994     1
   7991   8002     1
   7991   8010     1
   7991   7993     1
   7991   8000     1
   7991   7996     1
   7991   8004     1
   7992   8004     1
   7992   7997     1
   7992   8005     1
   7993   8003     1
   7994   7996     1
   7994   8005     1
   7995   8000     1
   7995   7996     1
   7995   7998     1
   7995   8010     1
   7995   7997     1
   7995   8005     1
   7996   8001     1
   7996   7999     1
   7996   8003     1
   7997   7999     1
   8006   8010     1
   8006   8009     1
   8007   8010     1
   8007   8009     1
   8011   8019     1
   8011   8027     1
   8011   8032     1
   8011   8020     1
   8012   8018     1
   8012   8026     1
   8012   8029     1
   8012   8030     1
   8013   8015     1
   8013   8024     1
   8013   8014     1
   8013   8031     1
   8013   8029     1
   8013   8030     1
   8013   8017     1
   8014   8016     1
   8014   8023     1
   8014   8019     1
   8014   8027     1
   8014   8025     1
   8014   8033     1
   8015   8020     1
   8015   8028     1
   8015   8027     1
   8016   8026     1
   8017   8028     1
   8017   8019     1
   8018   8021     1
   8018   8033     1
   8018   8020     1
   8018   8028     1
   8018   8023     1
   8018   8019     1
   8019   8022     1
   8019   8026     1
   8019   8024     1
   8020   8022     1
   8029   8032     1
   8029   8033     1
   8030   8032     1
   8030   8033     1
   8034   8042     1
   8034   8050     1
   8034   8055     1
   8034   8043     1
   8035   8052     1
   8035   8053     1
   8035   8041     1
   8035   8049     1
   8036   8038     1
   8036   8047     1
   8036   8037     1
   8036   8054     1
   8036   8052     1
   8036   8053     1
   8036   8040     1
   8037   8048     1
   8037   8056     1
   8037   8039     1
   8037   8046     1
   8037   8042     1
   8037   8050     1
   8038   8050     1
   8038   8043     1
   8038   8051     1
   8039   8049     1
   8040   8042     1
   8040   8051     1
   8041   8046     1
   8041   8042     1
   8041   8044     1
   8041   8056     1
   8041   8043     1
   8041   8051     1
   8042   8047     1
   8042   8045     1
   8042   8049     1
   8043   8045     1
   8052   8056     1
   8052   8055     1
   8053   8056     1
   8053   8055     1
   8057   8065     1
   8057   8073     1
   8057   8078     1
   8057   8066     1
   8058   8064     1
   8058   8072     1
   8058   8075     1
   8058   8076     1
   8059   8061     1
   8059   8070     1
   8059   8060     1
   8059   8077     1
   8059   8075     1
   8059   8076     1
   8059   8063     1
   8060   8062     1
   8060   8069     1
   8060   8065     1
   8060   8073     1
   8060   8071     1
   8060   8079     1
   8061   8066     1
   8061   8074     1
   8061   8073     1
   8062   8072     1
   8063   8074     1
   8063   8065     1
   8064   8067     1
   8064   8079     1
   8064   8066     1
   8064   8074     1
   8064   8069     1
   8064   8065     1
   8065   8068     1
   8065   8072     1
   8065   8070     1
   8066   8068     1
   8075   8078     1
   8075   8079     1
   8076   8078     1
   8076   8079     1
   8080   8088     1
   8080   8096     1
   8080   8101     1
   8080   8089     1
   8081   8098     1
   8081   8099     1
   8081   8087     1
   8081   8095     1
   8082   8084     1
   8082   8093     1
   8082   8083     1
   8082   8100     1
   8082   8098     1
   8082   8099     1
   8082   8086     1
   8083   8094     1
   8083   8102     1
   8083   8085     1
   8083   8092     1
   8083   8088     1
   8083   8096     1
   8084   8096     1
   8084   8089     1
   8084   8097     1
   8085   8095     1
   8086   8088     1
   8086   8097     1
   8087   8092     1
   8087   8088     1
   8087   8090     1
   8087   8102     1
   8087   8089     1
   8087   8097     1
   8088   8093     1
   8088   8091     1
   8088   8095     1
   8089   8091     1
   8098   8102     1
   8098   8101     1
   8099   8102     1
   8099   8101     1
   8103   8111     1
   8103   8119     1
   8103   8124     1
   8103   8112     1
   8104   8110     1
   8104   8118     1
   8104   8121     1
   8104   8122     1
   8105   8107     1
   8105   8116     1
   8105   8106     1
   8105   8123     1
   8105   8121     1
   8105   8122     1
   8105   8109     1
   8106   8108     1
   8106   8115     1
   8106   8111     1
   8106   8119     1
   8106   8117     1
   8106   8125     1
   8107   8112     1
   8107   8120     1
   8107   8119     1
   8108   8118     1
   8109   8120     1
   8109   8111     1
   8110   8113     1
   8110   8125     1
   8110   8112     1
   8110   8120     1
   8110   8115     1
   8110   8111     1
   8111   8114     1
   8111   8118     1
   8111   8116     1
   8112   8114     1
   8121   8124     1
   8121   8125     1
   8122   8124     1
   8122   8125     1
   8126   8134     1
   8126   8142     1
   8126   8147     1
   8126   8135     1
   8127   8144     1
   8127   8145     1
   8127   8133     1
   8127   8141     1
   8128   8130     1
   8128   8139     1
   8128   8129     1
   8128   8146     1
   8128   8144     1
   8128   8145     1
   8128   8132     1
   8129   8140     1
   8129   8148     1
   8129   8131     1
   8129   8138     1
   8129   8134     1
   8129   8142     1
   8130   8142     1
   8130   8135     1
   8130   8143     1
   8131   8141     1
   8132   8134     1
   8132   8143     1
   8133   8138     1
   8133   8134     1
   8133   8136     1
   8133   8148     1
   8133   8135     1
   8133   8143     1
   8134   8139     1
   8134   8137     1
   8134   8141     1
   8135   8137     1
   8144   8148     1
   8144   8147     1
   8145   8148     1
   8145   8147     1
   8149   8157     1
   8149   8165     1
   8149   8170     1
   8149   8158     1
   8150   8156     1
   8150   8164     1
   8150   8167     1
   8150   8168     1
   8151   8153     1
   8151   8162     1
   8151   8152     1
   8151   8169     1
   8151   8167     1
   8151   8168     1
   8151   8155     1
   8152   8154     1
   8152   8161     1
   8152   8157     1
   8152   8165     1
   8152   8163     1
   8152   8171     1
   8153   8158     1
   8153   8166     1
   8153   8165     1
   8154   8164     1
   8155   8166     1
   8155   8157     1
   8156   8159     1
   8156   8171     1
   8156   8158     1
   8156   8166     1
   8156   8161     1
   8156   8157     1
   8157   8160     1
   8157   8164     1
   8157   8162     1
   8158   8160     1
   8167   8170     1
   8167   8171     1
   8168   8170     1
   8168   8171     1
   8172   8180     1
   8172   8188     1
   8172   8193     1
   8172   8181     1
   8173   8190     1
   8173   8191     1
   8173   8179     1
   8173   8187     1
   8174   8176     1
   8174   8185     1
   8174   8175     1
   8174   8192     1
   8174   8190     1
   8174   8191     1
   8174   8178     1
   8175   8186     1
   8175   8194     1
   8175   8177     1
   8175   8184     1
   8175   8180     1
   8175   8188     1
   8176   8188     1
   8176   8181     1
   8176   8189     1
   8177   8187     1
   8178   8180     1
   8178   8189     1
   8179   8184     1
   8179   8180     1
   8179   8182     1
   8179   8194     1
   8179   8181     1
   8179   8189     1
   8180   8185     1
   8180   8183     1
   8180   8187     1
   8181   8183     1
   8190   8194     1
   8190   8193     1
   8191   8194     1
   8191   8193     1
   8195   8203     1
   8195   8211     1
   8195   8216     1
   8195   8204     1
   8196   8202     1
   8196   8210     1
   8196   8213     1
   8196   8214     1
   8197   8199     1
   8197   8208     1
   8197   8198     1
   8197   8215     1
   8197   8213     1
   8197   8214     1
   8197   8201     1
   8198   8200     1
   8198   8207     1
   8198   8203     1
   8198   8211     1
   8198   8209     1
   8198   8217     1
   8199   8204     1
   8199   8212     1
   8199   8211     1
   8200   8210     1
   8201   8212     1
   8201   8203     1
   8202   8205     1
   8202   8217     1
   8202   8204     1
   8202   8212     1
   8202   8207     1
   8202   8203     1
   8203   8206     1
   8203   8210     1
   8203   8208     1
   8204   8206     1
   8213   8216     1
   8213   8217     1
   8214   8216     1
   8214   8217     1
   8218   8226     1
   8218   8234     1
   8218   8239     1
   8218   8227     1
   8219   8236     1
   8219   8237     1
   8219   8225     1
   8219   8233     1
   8220   8222     1
   8220   8231     1
   8220   8221     1
   8220   8238     1
   8220   8236     1
   8220   8237     1
   8220   8224     1
   8221   8232     1
   8221   8240     1
   8221   8223     1
   8221   8230     1
   8221   8226     1
   8221   8234     1
   8222   8234     1
   8222   8227     1
   8222   8235     1
   8223   8233     1
   8224   8226     1
   8224   8235     1
   8225   8230     1
   8225   8226     1
   8225   8228     1
   8225   8240     1
   8225   8227     1
   8225   8235     1
   8226   8231     1
   8226   8229     1
   8226   8233     1
   8227   8229     1
   8236   8240     1
   8236   8239     1
   8237   8240     1
   8237   8239     1
   8241   8249     1
   8241   8257     1
   8241   8262     1
   8241   8250     1
   8242   8248     1
   8242   8256     1
   8242   8259     1
   8242   8260     1
   8243   8245     1
   8243   8254     1
   8243   8244     1
   8243   8261     1
   8243   8259     1
   8243   8260     1
   8243   8247     1
   8244   8246     1
   8244   8253     1
   8244   8249     1
   8244   8257     1
   8244   8255     1
   8244   8263     1
   8245   8250     1
   8245   8258     1
   8245   8257     1
   8246   8256     1
   8247   8258     1
   8247   8249     1
   8248   8251     1
   8248   8263     1
   8248   8250     1
   8248   8258     1
   8248   8253     1
   8248   8249     1
   8249   8252     1
   8249   8256     1
   8249   8254     1
   8250   8252     1
   8259   8262     1
   8259   8263     1
   8260   8262     1
   8260   8263     1
   8264   8272     1
   8264   8280     1
   8264   8285     1
   8264   8273     1
   8265   8282     1
   8265   8283     1
   8265   8271     1
   8265   8279     1
   8266   8268     1
   8266   8277     1
   8266   8267     1
   8266   8284     1
   8266   8282     1
   8266   8283     1
   8266   8270     1
   8267   8278     1
   8267   8286     1
   8267   8269     1
   8267   8276     1
   8267   8272     1
   8267   8280     1
   8268   8280     1
   8268   8273     1
   8268   8281     1
   8269   8279     1
   8270   8272     1
   8270   8281     1
   8271   8276     1
   8271   8272     1
   8271   8274     1
   8271   8286     1
   8271   8273     1
   8271   8281     1
   8272   8277     1
   8272   8275     1
   8272   8279     1
   8273   8275     1
   8282   8286     1
   8282   8285     1
   8283   8286     1
   8283   8285     1
   8287   8295     1
   8287   8303     1
   8287   8308     1
   8287   8296     1
   8288   8294     1
   8288   8302     1
   8288   8305     1
   8288   8306     1
   8289   8291     1
   8289   8300     1
   8289   8290     1
   8289   8307     1
   8289   8305     1
   8289   8306     1
   8289   8293     1
   8290   8292     1
   8290   8299     1
   8290   8295     1
   8290   8303     1
   8290   8301     1
   8290   8309     1
   8291   8296     1
   8291   8304     1
   8291   8303     1
   8292   8302     1
   8293   8304     1
   8293   8295     1
   8294   8297     1
   8294   8309     1
   8294   8296     1
   8294   8304     1
   8294   8299     1
   8294   8295     1
   8295   8298     1
   8295   8302     1
   8295   8300     1
   8296   8298     1
   8305   8308     1
   8305   8309     1
   8306   8308     1
   8306   8309     1
   8310   8318     1
   8310   8326     1
   8310   8331     1
   8310   8319     1
   8311   8328     1
   8311   8329     1
   8311   8317     1
   8311   8325     1
   8312   8314     1
   8312   8323     1
   8312   8313     1
   8312   8330     1
   8312   8328     1
   8312   8329     1
   8312   8316     1
   8313   8324     1
   8313   8332     1
   8313   8315     1
   8313   8322     1
   8313   8318     1
   8313   8326     1
   8314   8326     1
   8314   8319     1
   8314   8327     1
   8315   8325     1
   8316   8318     1
   8316   8327     1
   8317   8322     1
   8317   8318     1
   8317   8320     1
   8317   8332     1
   8317   8319     1
   8317   8327     1
   8318   8323     1
   8318   8321     1
   8318   8325     1
   8319   8321     1
   8328   8332     1
   8328   8331     1
   8329   8332     1
   8329   8331     1
   8333   8341     1
   8333   8349     1
   8333   8354     1
   8333   8342     1
   8334   8340     1
   8334   8348     1
   8334   8351     1
   8334   8352     1
   8335   8337     1
   8335   8346     1
   8335   8336     1
   8335   8353     1
   8335   8351     1
   8335   8352     1
   8335   8339     1
   8336   8338     1
   8336   8345     1
   8336   8341     1
   8336   8349     1
   8336   8347     1
   8336   8355     1
   8337   8342     1
   8337   8350     1
   8337   8349     1
   8338   8348     1
   8339   8350     1
   8339   8341     1
   8340   8343     1
   8340   8355     1
   8340   8342     1
   8340   8350     1
   8340   8345     1
   8340   8341     1
   8341   8344     1
   8341   8348     1
   8341   8346     1
   8342   8344     1
   8351   8354     1
   8351   8355     1
   8352   8354     1
   8352   8355     1
   8356   8364     1
   8356   8372     1
   8356   8377     1
   8356   8365     1
   8357   8374     1
   8357   8375     1
   8357   8363     1
   8357   8371     1
   8358   8360     1
   8358   8369     1
   8358   8359     1
   8358   8376     1
   8358   8374     1
   8358   8375     1
   8358   8362     1
   8359   8370     1
   8359   8378     1
   8359   8361     1
   8359   8368     1
   8359   8364     1
   8359   8372     1
   8360   8372     1
   8360   8365     1
   8360   8373     1
   8361   8371     1
   8362   8364     1
   8362   8373     1
   8363   8368     1
   8363   8364     1
   8363   8366     1
   8363   8378     1
   8363   8365     1
   8363   8373     1
   8364   8369     1
   8364   8367     1
   8364   8371     1
   8365   8367     1
   8374   8378     1
   8374   8377     1
   8375   8378     1
   8375   8377     1
   8379   8387     1
   8379   8395     1
   8379   8400     1
   8379   8388     1
   8380   8386     1
   8380   8394     1
   8380   8397     1
   8380   8398     1
   8381   8383     1
   8381   8392     1
   8381   8382     1
   8381   8399     1
   8381   8397     1
   8381   8398     1
   8381   8385     1
   8382   8384     1
   8382   8391     1
   8382   8387     1
   8382   8395     1
   8382   8393     1
   8382   8401     1
   8383   8388     1
   8383   8396     1
   8383   8395     1
   8384   8394     1
   8385   8396     1
   8385   8387     1
   8386   8389     1
   8386   8401     1
   8386   8388     1
   8386   8396     1
   8386   8391     1
   8386   8387     1
   8387   8390     1
   8387   8394     1
   8387   8392     1
   8388   8390     1
   8397   8400     1
   8397   8401     1
   8398   8400     1
   8398   8401     1
   8402   8410     1
   8402   8418     1
   8402   8423     1
   8402   8411     1
   8403   8420     1
   8403   8421     1
   8403   8409     1
   8403   8417     1
   8404   8406     1
   8404   8415     1
   8404   8405     1
   8404   8422     1
   8404   8420     1
   8404   8421     1
   8404   8408     1
   8405   8416     1
   8405   8424     1
   8405   8407     1
   8405   8414     1
   8405   8410     1
   8405   8418     1
   8406   8418     1
   8406   8411     1
   8406   8419     1
   8407   8417     1
   8408   8410     1
   8408   8419     1
   8409   8414     1
   8409   8410     1
   8409   8412     1
   8409   8424     1
   8409   8411     1
   8409   8419     1
   8410   8415     1
   8410   8413     1
   8410   8417     1
   8411   8413     1
   8420   8424     1
   8420   8423     1
   8421   8424     1
   8421   8423     1
   8425   8433     1
   8425   8441     1
   8425   8446     1
   8425   8434     1
   8426   8432     1
   8426   8440     1
   8426   8443     1
   8426   8444     1
   8427   8429     1
   8427   8438     1
   8427   8428     1
   8427   8445     1
   8427   8443     1
   8427   8444     1
   8427   8431     1
   8428   8430     1
   8428   8437     1
   8428   8433     1
   8428   8441     1
   8428   8439     1
   8428   8447     1
   8429   8434     1
   8429   8442     1
   8429   8441     1
   8430   8440     1
   8431   8442     1
   8431   8433     1
   8432   8435     1
   8432   8447     1
   8432   8434     1
   8432   8442     1
   8432   8437     1
   8432   8433     1
   8433   8436     1
   8433   8440     1
   8433   8438     1
   8434   8436     1
   8443   8446     1
   8443   8447     1
   8444   8446     1
   8444   8447     1
   8448   8456     1
   8448   8464     1
   8448   8469     1
   8448   8457     1
   8449   8466     1
   8449   8467     1
   8449   8455     1
   8449   8463     1
   8450   8452     1
   8450   8461     1
   8450   8451     1
   8450   8468     1
   8450   8466     1
   8450   8467     1
   8450   8454     1
   8451   8462     1
   8451   8470     1
   8451   8453     1
   8451   8460     1
   8451   8456     1
   8451   8464     1
   8452   8464     1
   8452   8457     1
   8452   8465     1
   8453   8463     1
   8454   8456     1
   8454   8465     1
   8455   8460     1
   8455   8456     1
   8455   8458     1
   8455   8470     1
   8455   8457     1
   8455   8465     1
   8456   8461     1
   8456   8459     1
   8456   8463     1
   8457   8459     1
   8466   8470     1
   8466   8469     1
   8467   8470     1
   8467   8469     1
   8471   8479     1
   8471   8487     1
   8471   8492     1
   8471   8480     1
   8472   8478     1
   8472   8486     1
   8472   8489     1
   8472   8490     1
   8473   8475     1
   8473   8484     1
   8473   8474     1
   8473   8491     1
   8473   8489     1
   8473   8490     1
   8473   8477     1
   8474   8476     1
   8474   8483     1
   8474   8479     1
   8474   8487     1
   8474   8485     1
   8474   8493     1
   8475   8480     1
   8475   8488     1
   8475   8487     1
   8476   8486     1
   8477   8488     1
   8477   8479     1
   8478   8481     1
   8478   8493     1
   8478   8480     1
   8478   8488     1
   8478   8483     1
   8478   8479     1
   8479   8482     1
   8479   8486     1
   8479   8484     1
   8480   8482     1
   8489   8492     1
   8489   8493     1
   8490   8492     1
   8490   8493     1
   8494   8502     1
   8494   8510     1
   8494   8515     1
   8494   8503     1
   8495   8512     1
   8495   8513     1
   8495   8501     1
   8495   8509     1
   8496   8498     1
   8496   8507     1
   8496   8497     1
   8496   8514     1
   8496   8512     1
   8496   8513     1
   8496   8500     1
   8497   8508     1
   8497   8516     1
   8497   8499     1
   8497   8506     1
   8497   8502     1
   8497   8510     1
   8498   8510     1
   8498   8503     1
   8498   8511     1
   8499   8509     1
   8500   8502     1
   8500   8511     1
   8501   8506     1
   8501   8502     1
   8501   8504     1
   8501   8516     1
   8501   8503     1
   8501   8511     1
   8502   8507     1
   8502   8505     1
   8502   8509     1
   8503   8505     1
   8512   8516     1
   8512   8515     1
   8513   8516     1
   8513   8515     1
   8517   8525     1
   8517   8533     1
   8517   8538     1
   8517   8526     1
   8518   8524     1
   8518   8532     1
   8518   8535     1
   8518   8536     1
   8519   8521     1
   8519   8530     1
   8519   8520     1
   8519   8537     1
   8519   8535     1
   8519   8536     1
   8519   8523     1
   8520   8522     1
   8520   8529     1
   8520   8525     1
   8520   8533     1
   8520   8531     1
   8520   8539     1
   8521   8526     1
   8521   8534     1
   8521   8533     1
   8522   8532     1
   8523   8534     1
   8523   8525     1
   8524   8527     1
   8524   8539     1
   8524   8526     1
   8524   8534     1
   8524   8529     1
   8524   8525     1
   8525   8528     1
   8525   8532     1
   8525   8530     1
   8526   8528     1
   8535   8538     1
   8535   8539     1
   8536   8538     1
   8536   8539     1
   8540   8548     1
   8540   8556     1
   8540   8561     1
   8540   8549     1
   8541   8558     1
   8541   8559     1
   8541   8547     1
   8541   8555     1
   8542   8544     1
   8542   8553     1
   8542   8543     1
   8542   8560     1
   8542   8558     1
   8542   8559     1
   8542   8546     1
   8543   8554     1
   8543   8562     1
   8543   8545     1
   8543   8552     1
   8543   8548     1
   8543   8556     1
   8544   8556     1
   8544   8549     1
   8544   8557     1
   8545   8555     1
   8546   8548     1
   8546   8557     1
   8547   8552     1
   8547   8548     1
   8547   8550     1
   8547   8562     1
   8547   8549     1
   8547   8557     1
   8548   8553     1
   8548   8551     1
   8548   8555     1
   8549   8551     1
   8558   8562     1
   8558   8561     1
   8559   8562     1
   8559   8561     1
   8563   8571     1
   8563   8579     1
   8563   8584     1
   8563   8572     1
   8564   8570     1
   8564   8578     1
   8564   8581     1
   8564   8582     1
   8565   8567     1
   8565   8576     1
   8565   8566     1
   8565   8583     1
   8565   8581     1
   8565   8582     1
   8565   8569     1
   8566   8568     1
   8566   8575     1
   8566   8571     1
   8566   8579     1
   8566   8577     1
   8566   8585     1
   8567   8572     1
   8567   8580     1
   8567   8579     1
   8568   8578     1
   8569   8580     1
   8569   8571     1
   8570   8573     1
   8570   8585     1
   8570   8572     1
   8570   8580     1
   8570   8575     1
   8570   8571     1
   8571   8574     1
   8571   8578     1
   8571   8576     1
   8572   8574     1
   8581   8584     1
   8581   8585     1
   8582   8584     1
   8582   8585     1
   8586   8594     1
   8586   8602     1
   8586   8607     1
   8586   8595     1
   8587   8604     1
   8587   8605     1
   8587   8593     1
   8587   8601     1
   8588   8590     1
   8588   8599     1
   8588   8589     1
   8588   8606     1
   8588   8604     1
   8588   8605     1
   8588   8592     1
   8589   8600     1
   8589   8608     1
   8589   8591     1
   8589   8598     1
   8589   8594     1
   8589   8602     1
   8590   8602     1
   8590   8595     1
   8590   8603     1
   8591   8601     1
   8592   8594     1
   8592   8603     1
   8593   8598     1
   8593   8594     1
   8593   8596     1
   8593   8608     1
   8593   8595     1
   8593   8603     1
   8594   8599     1
   8594   8597     1
   8594   8601     1
   8595   8597     1
   8604   8608     1
   8604   8607     1
   8605   8608     1
   8605   8607     1
   8609   8617     1
   8609   8625     1
   8609   8630     1
   8609   8618     1
   8610   8616     1
   8610   8624     1
   8610   8627     1
   8610   8628     1
   8611   8613     1
   8611   8622     1
   8611   8612     1
   8611   8629     1
   8611   8627     1
   8611   8628     1
   8611   8615     1
   8612   8614     1
   8612   8621     1
   8612   8617     1
   8612   8625     1
   8612   8623     1
   8612   8631     1
   8613   8618     1
   8613   8626     1
   8613   8625     1
   8614   8624     1
   8615   8626     1
   8615   8617     1
   8616   8619     1
   8616   8631     1
   8616   8618     1
   8616   8626     1
   8616   8621     1
   8616   8617     1
   8617   8620     1
   8617   8624     1
   8617   8622     1
   8618   8620     1
   8627   8630     1
   8627   8631     1
   8628   8630     1
   8628   8631     1
   8632   8640     1
   8632   8648     1
   8632   8653     1
   8632   8641     1
   8633   8650     1
   8633   8651     1
   8633   8639     1
   8633   8647     1
   8634   8636     1
   8634   8645     1
   8634   8635     1
   8634   8652     1
   8634   8650     1
   8634   8651     1
   8634   8638     1
   8635   8646     1
   8635   8654     1
   8635   8637     1
   8635   8644     1
   8635   8640     1
   8635   8648     1
   8636   8648     1
   8636   8641     1
   8636   8649     1
   8637   8647     1
   8638   8640     1
   8638   8649     1
   8639   8644     1
   8639   8640     1
   8639   8642     1
   8639   8654     1
   8639   8641     1
   8639   8649     1
   8640   8645     1
   8640   8643     1
   8640   8647     1
   8641   8643     1
   8650   8654     1
   8650   8653     1
   8651   8654     1
   8651   8653     1
   8655   8663     1
   8655   8671     1
   8655   8676     1
   8655   8664     1
   8656   8662     1
   8656   8670     1
   8656   8673     1
   8656   8674     1
   8657   8659     1
   8657   8668     1
   8657   8658     1
   8657   8675     1
   8657   8673     1
   8657   8674     1
   8657   8661     1
   8658   8660     1
   8658   8667     1
   8658   8663     1
   8658   8671     1
   8658   8669     1
   8658   8677     1
   8659   8664     1
   8659   8672     1
   8659   8671     1
   8660   8670     1
   8661   8672     1
   8661   8663     1
   8662   8665     1
   8662   8677     1
   8662   8664     1
   8662   8672     1
   8662   8667     1
   8662   8663     1
   8663   8666     1
   8663   8670     1
   8663   8668     1
   8664   8666     1
   8673   8676     1
   8673   8677     1
   8674   8676     1
   8674   8677     1
   8678   8686     1
   8678   8694     1
   8678   8699     1
   8678   8687     1
   8679   8696     1
   8679   8697     1
   8679   8685     1
   8679   8693     1
   8680   8682     1
   8680   8691     1
   8680   8681     1
   8680   8698     1
   8680   8696     1
   8680   8697     1
   8680   8684     1
   8681   8692     1
   8681   8700     1
   8681   8683     1
   8681   8690     1
   8681   8686     1
   8681   8694     1
   8682   8694     1
   8682   8687     1
   8682   8695     1
   8683   8693     1
   8684   8686     1
   8684   8695     1
   8685   8690     1
   8685   8686     1
   8685   8688     1
   8685   8700     1
   8685   8687     1
   8685   8695     1
   8686   8691     1
   8686   8689     1
   8686   8693     1
   8687   8689     1
   8696   8700     1
   8696   8699     1
   8697   8700     1
   8697   8699     1
   8701   8709     1
   8701   8717     1
   8701   8722     1
   8701   8710     1
   8702   8708     1
   8702   8716     1
   8702   8719     1
   8702   8720     1
   8703   8705     1
   8703   8714     1
   8703   8704     1
   8703   8721     1
   8703   8719     1
   8703   8720     1
   8703   8707     1
   8704   8706     1
   8704   8713     1
   8704   8709     1
   8704   8717     1
   8704   8715     1
   8704   8723     1
   8705   8710     1
   8705   8718     1
   8705   8717     1
   8706   8716     1
   8707   8718     1
   8707   8709     1
   8708   8711     1
   8708   8723     1
   8708   8710     1
   8708   8718     1
   8708   8713     1
   8708   8709     1
   8709   8712     1
   8709   8716     1
   8709   8714     1
   8710   8712     1
   8719   8722     1
   8719   8723     1
   8720   8722     1
   8720   8723     1
   8724   8732     1
   8724   8740     1
   8724   8745     1
   8724   8733     1
   8725   8742     1
   8725   8743     1
   8725   8731     1
   8725   8739     1
   8726   8728     1
   8726   8737     1
   8726   8727     1
   8726   8744     1
   8726   8742     1
   8726   8743     1
   8726   8730     1
   8727   8738     1
   8727   8746     1
   8727   8729     1
   8727   8736     1
   8727   8732     1
   8727   8740     1
   8728   8740     1
   8728   8733     1
   8728   8741     1
   8729   8739     1
   8730   8732     1
   8730   8741     1
   8731   8736     1
   8731   8732     1
   8731   8734     1
   8731   8746     1
   8731   8733     1
   8731   8741     1
   8732   8737     1
   8732   8735     1
   8732   8739     1
   8733   8735     1
   8742   8746     1
   8742   8745     1
   8743   8746     1
   8743   8745     1
   8747   8755     1
   8747   8763     1
   8747   8768     1
   8747   8756     1
   8748   8754     1
   8748   8762     1
   8748   8765     1
   8748   8766     1
   8749   8751     1
   8749   8760     1
   8749   8750     1
   8749   8767     1
   8749   8765     1
   8749   8766     1
   8749   8753     1
   8750   8752     1
   8750   8759     1
   8750   8755     1
   8750   8763     1
   8750   8761     1
   8750   8769     1
   8751   8756     1
   8751   8764     1
   8751   8763     1
   8752   8762     1
   8753   8764     1
   8753   8755     1
   8754   8757     1
   8754   8769     1
   8754   8756     1
   8754   8764     1
   8754   8759     1
   8754   8755     1
   8755   8758     1
   8755   8762     1
   8755   8760     1
   8756   8758     1
   8765   8768     1
   8765   8769     1
   8766   8768     1
   8766   8769     1
   8770   8778     1
   8770   8786     1
   8770   8791     1
   8770   8779     1
   8771   8788     1
   8771   8789     1
   8771   8777     1
   8771   8785     1
   8772   8774     1
   8772   8783     1
   8772   8773     1
   8772   8790     1
   8772   8788     1
   8772   8789     1
   8772   8776     1
   8773   8784     1
   8773   8792     1
   8773   8775     1
   8773   8782     1
   8773   8778     1
   8773   8786     1
   8774   8786     1
   8774   8779     1
   8774   8787     1
   8775   8785     1
   8776   8778     1
   8776   8787     1
   8777   8782     1
   8777   8778     1
   8777   8780     1
   8777   8792     1
   8777   8779     1
   8777   8787     1
   8778   8783     1
   8778   8781     1
   8778   8785     1
   8779   8781     1
   8788   8792     1
   8788   8791     1
   8789   8792     1
   8789   8791     1
   8793   8801     1
   8793   8809     1
   8793   8814     1
   8793   8802     1
   8794   8800     1
   8794   8808     1
   8794   8811     1
   8794   8812     1
   8795   8797     1
   8795   8806     1
   8795   8796     1
   8795   8813     1
   8795   8811     1
   8795   8812     1
   8795   8799     1
   8796   8798     1
   8796   8805     1
   8796   8801     1
   8796   8809     1
   8796   8807     1
   8796   8815     1
   8797   8802     1
   8797   8810     1
   8797   8809     1
   8798   8808     1
   8799   8810     1
   8799   8801     1
   8800   8803     1
   8800   8815     1
   8800   8802     1
   8800   8810     1
   8800   8805     1
   8800   8801     1
   8801   8804     1
   8801   8808     1
   8801   8806     1
   8802   8804     1
   8811   8814     1
   8811   8815     1
   8812   8814     1
   8812   8815     1
   8816   8824     1
   8816   8832     1
   8816   8837     1
   8816   8825     1
   8817   8834     1
   8817   8835     1
   8817   8823     1
   8817   8831     1
   8818   8820     1
   8818   8829     1
   8818   8819     1
   8818   8836     1
   8818   8834     1
   8818   8835     1
   8818   8822     1
   8819   8830     1
   8819   8838     1
   8819   8821     1
   8819   8828     1
   8819   8824     1
   8819   8832     1
   8820   8832     1
   8820   8825     1
   8820   8833     1
   8821   8831     1
   8822   8824     1
   8822   8833     1
   8823   8828     1
   8823   8824     1
   8823   8826     1
   8823   8838     1
   8823   8825     1
   8823   8833     1
   8824   8829     1
   8824   8827     1
   8824   8831     1
   8825   8827     1
   8834   8838     1
   8834   8837     1
   8835   8838     1
   8835   8837     1
   8839   8847     1
   8839   8855     1
   8839   8860     1
   8839   8848     1
   8840   8846     1
   8840   8854     1
   8840   8857     1
   8840   8858     1
   8841   8843     1
   8841   8852     1
   8841   8842     1
   8841   8859     1
   8841   8857     1
   8841   8858     1
   8841   8845     1
   8842   8844     1
   8842   8851     1
   8842   8847     1
   8842   8855     1
   8842   8853     1
   8842   8861     1
   8843   8848     1
   8843   8856     1
   8843   8855     1
   8844   8854     1
   8845   8856     1
   8845   8847     1
   8846   8849     1
   8846   8861     1
   8846   8848     1
   8846   8856     1
   8846   8851     1
   8846   8847     1
   8847   8850     1
   8847   8854     1
   8847   8852     1
   8848   8850     1
   8857   8860     1
   8857   8861     1
   8858   8860     1
   8858   8861     1
   8862   8870     1
   8862   8878     1
   8862   8883     1
   8862   8871     1
   8863   8880     1
   8863   8881     1
   8863   8869     1
   8863   8877     1
   8864   8866     1
   8864   8875     1
   8864   8865     1
   8864   8882     1
   8864   8880     1
   8864   8881     1
   8864   8868     1
   8865   8876     1
   8865   8884     1
   8865   8867     1
   8865   8874     1
   8865   8870     1
   8865   8878     1
   8866   8878     1
   8866   8871     1
   8866   8879     1
   8867   8877     1
   8868   8870     1
   8868   8879     1
   8869   8874     1
   8869   8870     1
   8869   8872     1
   8869   8884     1
   8869   8871     1
   8869   8879     1
   8870   8875     1
   8870   8873     1
   8870   8877     1
   8871   8873     1
   8880   8884     1
   8880   8883     1
   8881   8884     1
   8881   8883     1
   8885   8893     1
   8885   8901     1
   8885   8906     1
   8885   8894     1
   8886   8892     1
   8886   8900     1
   8886   8903     1
   8886   8904     1
   8887   8889     1
   8887   8898     1
   8887   8888     1
   8887   8905     1
   8887   8903     1
   8887   8904     1
   8887   8891     1
   8888   8890     1
   8888   8897     1
   8888   8893     1
   8888   8901     1
   8888   8899     1
   8888   8907     1
   8889   8894     1
   8889   8902     1
   8889   8901     1
   8890   8900     1
   8891   8902     1
   8891   8893     1
   8892   8895     1
   8892   8907     1
   8892   8894     1
   8892   8902     1
   8892   8897     1
   8892   8893     1
   8893   8896     1
   8893   8900     1
   8893   8898     1
   8894   8896     1
   8903   8906     1
   8903   8907     1
   8904   8906     1
   8904   8907     1
   8908   8916     1
   8908   8924     1
   8908   8929     1
   8908   8917     1
   8909   8926     1
   8909   8927     1
   8909   8915     1
   8909   8923     1
   8910   8912     1
   8910   8921     1
   8910   8911     1
   8910   8928     1
   8910   8926     1
   8910   8927     1
   8910   8914     1
   8911   8922     1
   8911   8930     1
   8911   8913     1
   8911   8920     1
   8911   8916     1
   8911   8924     1
   8912   8924     1
   8912   8917     1
   8912   8925     1
   8913   8923     1
   8914   8916     1
   8914   8925     1
   8915   8920     1
   8915   8916     1
   8915   8918     1
   8915   8930     1
   8915   8917     1
   8915   8925     1
   8916   8921     1
   8916   8919     1
   8916   8923     1
   8917   8919     1
   8926   8930     1
   8926   8929     1
   8927   8930     1
   8927   8929     1
   8931   8939     1
   8931   8947     1
   8931   8952     1
   8931   8940     1
   8932   8938     1
   8932   8946     1
   8932   8949     1
   8932   8950     1
   8933   8935     1
   8933   8944     1
   8933   8934     1
   8933   8951     1
   8933   8949     1
   8933   8950     1
   8933   8937     1
   8934   8936     1
   8934   8943     1
   8934   8939     1
   8934   8947     1
   8934   8945     1
   8934   8953     1
   8935   8940     1
   8935   8948     1
   8935   8947     1
   8936   8946     1
   8937   8948     1
   8937   8939     1
   8938   8941     1
   8938   8953     1
   8938   8940     1
   8938   8948     1
   8938   8943     1
   8938   8939     1
   8939   8942     1
   8939   8946     1
   8939   8944     1
   8940   8942     1
   8949   8952     1
   8949   8953     1
   8950   8952     1
   8950   8953     1
   8954   8962     1
   8954   8970     1
   8954   8975     1
   8954   8963     1
   8955   8972     1
   8955   8973     1
   8955   8961     1
   8955   8969     1
   8956   8958     1
   8956   8967     1
   8956   8957     1
   8956   8974     1
   8956   8972     1
   8956   8973     1
   8956   8960     1
   8957   8968     1
   8957   8976     1
   8957   8959     1
   8957   8966     1
   8957   8962     1
   8957   8970     1
   8958   8970     1
   8958   8963     1
   8958   8971     1
   8959   8969     1
   8960   8962     1
   8960   8971     1
   8961   8966     1
   8961   8962     1
   8961   8964     1
   8961   8976     1
   8961   8963     1
   8961   8971     1
   8962   8967     1
   8962   8965     1
   8962   8969     1
   8963   8965     1
   8972   8976     1
   8972   8975     1
   8973   8976     1
   8973   8975     1
   8977   8985     1
   8977   8993     1
   8977   8998     1
   8977   8986     1
   8978   8984     1
   8978   8992     1
   8978   8995     1
   8978   8996     1
   8979   8981     1
   8979   8990     1
   8979   8980     1
   8979   8997     1
   8979   8995     1
   8979   8996     1
   8979   8983     1
   8980   8982     1
   8980   8989     1
   8980   8985     1
   8980   8993     1
   8980   8991     1
   8980   8999     1
   8981   8986     1
   8981   8994     1
   8981   8993     1
   8982   8992     1
   8983   8994     1
   8983   8985     1
   8984   8987     1
   8984   8999     1
   8984   8986     1
   8984   8994     1
   8984   8989     1
   8984   8985     1
   8985   8988     1
   8985   8992     1
   8985   8990     1
   8986   8988     1
   8995   8998     1
   8995   8999     1
   8996   8998     1
   8996   8999     1
   9000   9008     1
   9000   9016     1
   9000   9021     1
   9000   9009     1
   9001   9018     1
   9001   9019     1
   9001   9007     1
   9001   9015     1
   9002   9004     1
   9002   9013     1
   9002   9003     1
   9002   9020     1
   9002   9018     1
   9002   9019     1
   9002   9006     1
   9003   9014     1
   9003   9022     1
   9003   9005     1
   9003   9012     1
   9003   9008     1
   9003   9016     1
   9004   9016     1
   9004   9009     1
   9004   9017     1
   9005   9015     1
   9006   9008     1
   9006   9017     1
   9007   9012     1
   9007   9008     1
   9007   9010     1
   9007   9022     1
   9007   9009     1
   9007   9017     1
   9008   9013     1
   9008   9011     1
   9008   9015     1
   9009   9011     1
   9018   9022     1
   9018   9021     1
   9019   9022     1
   9019   9021     1
   9023   9031     1
   9023   9039     1
   9023   9044     1
   9023   9032     1
   9024   9030     1
   9024   9038     1
   9024   9041     1
   9024   9042     1
   9025   9027     1
   9025   9036     1
   9025   9026     1
   9025   9043     1
   9025   9041     1
   9025   9042     1
   9025   9029     1
   9026   9028     1
   9026   9035     1
   9026   9031     1
   9026   9039     1
   9026   9037     1
   9026   9045     1
   9027   9032     1
   9027   9040     1
   9027   9039     1
   9028   9038     1
   9029   9040     1
   9029   9031     1
   9030   9033     1
   9030   9045     1
   9030   9032     1
   9030   9040     1
   9030   9035     1
   9030   9031     1
   9031   9034     1
   9031   9038     1
   9031   9036     1
   9032   9034     1
   9041   9044     1
   9041   9045     1
   9042   9044     1
   9042   9045     1
   9046   9054     1
   9046   9062     1
   9046   9067     1
   9046   9055     1
   9047   9064     1
   9047   9065     1
   9047   9053     1
   9047   9061     1
   9048   9050     1
   9048   9059     1
   9048   9049     1
   9048   9066     1
   9048   9064     1
   9048   9065     1
   9048   9052     1
   9049   9060     1
   9049   9068     1
   9049   9051     1
   9049   9058     1
   9049   9054     1
   9049   9062     1
   9050   9062     1
   9050   9055     1
   9050   9063     1
   9051   9061     1
   9052   9054     1
   9052   9063     1
   9053   9058     1
   9053   9054     1
   9053   9056     1
   9053   9068     1
   9053   9055     1
   9053   9063     1
   9054   9059     1
   9054   9057     1
   9054   9061     1
   9055   9057     1
   9064   9068     1
   9064   9067     1
   9065   9068     1
   9065   9067     1
   9069   9077     1
   9069   9085     1
   9069   9090     1
   9069   9078     1
   9070   9076     1
   9070   9084     1
   9070   9087     1
   9070   9088     1
   9071   9073     1
   9071   9082     1
   9071   9072     1
   9071   9089     1
   9071   9087     1
   9071   9088     1
   9071   9075     1
   9072   9074     1
   9072   9081     1
   9072   9077     1
   9072   9085     1
   9072   9083     1
   9072   9091     1
   9073   9078     1
   9073   9086     1
   9073   9085     1
   9074   9084     1
   9075   9086     1
   9075   9077     1
   9076   9079     1
   9076   9091     1
   9076   9078     1
   9076   9086     1
   9076   9081     1
   9076   9077     1
   9077   9080     1
   9077   9084     1
   9077   9082     1
   9078   9080     1
   9087   9090     1
   9087   9091     1
   9088   9090     1
   9088   9091     1
   9092   9100     1
   9092   9108     1
   9092   9113     1
   9092   9101     1
   9093   9110     1
   9093   9111     1
   9093   9099     1
   9093   9107     1
   9094   9096     1
   9094   9105     1
   9094   9095     1
   9094   9112     1
   9094   9110     1
   9094   9111     1
   9094   9098     1
   9095   9106     1
   9095   9114     1
   9095   9097     1
   9095   9104     1
   9095   9100     1
   9095   9108     1
   9096   9108     1
   9096   9101     1
   9096   9109     1
   9097   9107     1
   9098   9100     1
   9098   9109     1
   9099   9104     1
   9099   9100     1
   9099   9102     1
   9099   9114     1
   9099   9101     1
   9099   9109     1
   9100   9105     1
   9100   9103     1
   9100   9107     1
   9101   9103     1
   9110   9114     1
   9110   9113     1
   9111   9114     1
   9111   9113     1
   9115   9123     1
   9115   9131     1
   9115   9136     1
   9115   9124     1
   9116   9122     1
   9116   9130     1
   9116   9133     1
   9116   9134     1
   9117   9119     1
   9117   9128     1
   9117   9118     1
   9117   9135     1
   9117   9133     1
   9117   9134     1
   9117   9121     1
   9118   9120     1
   9118   9127     1
   9118   9123     1
   9118   9131     1
   9118   9129     1
   9118   9137     1
   9119   9124     1
   9119   9132     1
   9119   9131     1
   9120   9130     1
   9121   9132     1
   9121   9123     1
   9122   9125     1
   9122   9137     1
   9122   9124     1
   9122   9132     1
   9122   9127     1
   9122   9123     1
   9123   9126     1
   9123   9130     1
   9123   9128     1
   9124   9126     1
   9133   9136     1
   9133   9137     1
   9134   9136     1
   9134   9137     1
   9138   9146     1
   9138   9154     1
   9138   9159     1
   9138   9147     1
   9139   9156     1
   9139   9157     1
   9139   9145     1
   9139   9153     1
   9140   9142     1
   9140   9151     1
   9140   9141     1
   9140   9158     1
   9140   9156     1
   9140   9157     1
   9140   9144     1
   9141   9152     1
   9141   9160     1
   9141   9143     1
   9141   9150     1
   9141   9146     1
   9141   9154     1
   9142   9154     1
   9142   9147     1
   9142   9155     1
   9143   9153     1
   9144   9146     1
   9144   9155     1
   9145   9150     1
   9145   9146     1
   9145   9148     1
   9145   9160     1
   9145   9147     1
   9145   9155     1
   9146   9151     1
   9146   9149     1
   9146   9153     1
   9147   9149     1
   9156   9160     1
   9156   9159     1
   9157   9160     1
   9157   9159     1
   9161   9169     1
   9161   9177     1
   9161   9182     1
   9161   9170     1
   9162   9168     1
   9162   9176     1
   9162   9179     1
   9162   9180     1
   9163   9165     1
   9163   9174     1
   9163   9164     1
   9163   9181     1
   9163   9179     1
   9163   9180     1
   9163   9167     1
   9164   9166     1
   9164   9173     1
   9164   9169     1
   9164   9177     1
   9164   9175     1
   9164   9183     1
   9165   9170     1
   9165   9178     1
   9165   9177     1
   9166   9176     1
   9167   9178     1
   9167   9169     1
   9168   9171     1
   9168   9183     1
   9168   9170     1
   9168   9178     1
   9168   9173     1
   9168   9169     1
   9169   9172     1
   9169   9176     1
   9169   9174     1
   9170   9172     1
   9179   9182     1
   9179   9183     1
   9180   9182     1
   9180   9183     1
   9184   9192     1
   9184   9200     1
   9184   9205     1
   9184   9193     1
   9185   9202     1
   9185   9203     1
   9185   9191     1
   9185   9199     1
   9186   9188     1
   9186   9197     1
   9186   9187     1
   9186   9204     1
   9186   9202     1
   9186   9203     1
   9186   9190     1
   9187   9198     1
   9187   9206     1
   9187   9189     1
   9187   9196     1
   9187   9192     1
   9187   9200     1
   9188   9200     1
   9188   9193     1
   9188   9201     1
   9189   9199     1
   9190   9192     1
   9190   9201     1
   9191   9196     1
   9191   9192     1
   9191   9194     1
   9191   9206     1
   9191   9193     1
   9191   9201     1
   9192   9197     1
   9192   9195     1
   9192   9199     1
   9193   9195     1
   9202   9206     1
   9202   9205     1
   9203   9206     1
   9203   9205     1
   9207   9215     1
   9207   9223     1
   9207   9228     1
   9207   9216     1
   9208   9214     1
   9208   9222     1
   9208   9225     1
   9208   9226     1
   9209   9211     1
   9209   9220     1
   9209   9210     1
   9209   9227     1
   9209   9225     1
   9209   9226     1
   9209   9213     1
   9210   9212     1
   9210   9219     1
   9210   9215     1
   9210   9223     1
   9210   9221     1
   9210   9229     1
   9211   9216     1
   9211   9224     1
   9211   9223     1
   9212   9222     1
   9213   9224     1
   9213   9215     1
   9214   9217     1
   9214   9229     1
   9214   9216     1
   9214   9224     1
   9214   9219     1
   9214   9215     1
   9215   9218     1
   9215   9222     1
   9215   9220     1
   9216   9218     1
   9225   9228     1
   9225   9229     1
   9226   9228     1
   9226   9229     1
   9230   9238     1
   9230   9246     1
   9230   9251     1
   9230   9239     1
   9231   9248     1
   9231   9249     1
   9231   9237     1
   9231   9245     1
   9232   9234     1
   9232   9243     1
   9232   9233     1
   9232   9250     1
   9232   9248     1
   9232   9249     1
   9232   9236     1
   9233   9244     1
   9233   9252     1
   9233   9235     1
   9233   9242     1
   9233   9238     1
   9233   9246     1
   9234   9246     1
   9234   9239     1
   9234   9247     1
   9235   9245     1
   9236   9238     1
   9236   9247     1
   9237   9242     1
   9237   9238     1
   9237   9240     1
   9237   9252     1
   9237   9239     1
   9237   9247     1
   9238   9243     1
   9238   9241     1
   9238   9245     1
   9239   9241     1
   9248   9252     1
   9248   9251     1
   9249   9252     1
   9249   9251     1
   9253   9261     1
   9253   9269     1
   9253   9274     1
   9253   9262     1
   9254   9260     1
   9254   9268     1
   9254   9271     1
   9254   9272     1
   9255   9257     1
   9255   9266     1
   9255   9256     1
   9255   9273     1
   9255   9271     1
   9255   9272     1
   9255   9259     1
   9256   9258     1
   9256   9265     1
   9256   9261     1
   9256   9269     1
   9256   9267     1
   9256   9275     1
   9257   9262     1
   9257   9270     1
   9257   9269     1
   9258   9268     1
   9259   9270     1
   9259   9261     1
   9260   9263     1
   9260   9275     1
   9260   9262     1
   9260   9270     1
   9260   9265     1
   9260   9261     1
   9261   9264     1
   9261   9268     1
   9261   9266     1
   9262   9264     1
   9271   9274     1
   9271   9275     1
   9272   9274     1
   9272   9275     1
   9276   9284     1
   9276   9292     1
   9276   9297     1
   9276   9285     1
   9277   9294     1
   9277   9295     1
   9277   9283     1
   9277   9291     1
   9278   9280     1
   9278   9289     1
   9278   9279     1
   9278   9296     1
   9278   9294     1
   9278   9295     1
   9278   9282     1
   9279   9290     1
   9279   9298     1
   9279   9281     1
   9279   9288     1
   9279   9284     1
   9279   9292     1
   9280   9292     1
   9280   9285     1
   9280   9293     1
   9281   9291     1
   9282   9284     1
   9282   9293     1
   9283   9288     1
   9283   9284     1
   9283   9286     1
   9283   9298     1
   9283   9285     1
   9283   9293     1
   9284   9289     1
   9284   9287     1
   9284   9291     1
   9285   9287     1
   9294   9298     1
   9294   9297     1
   9295   9298     1
   9295   9297     1
   9299   9307     1
   9299   9315     1
   9299   9320     1
   9299   9308     1
   9300   9306     1
   9300   9314     1
   9300   9317     1
   9300   9318     1
   9301   9303     1
   9301   9312     1
   9301   9302     1
   9301   9319     1
   9301   9317     1
   9301   9318     1
   9301   9305     1
   9302   9304     1
   9302   9311     1
   9302   9307     1
   9302   9315     1
   9302   9313     1
   9302   9321     1
   9303   9308     1
   9303   9316     1
   9303   9315     1
   9304   9314     1
   9305   9316     1
   9305   9307     1
   9306   9309     1
   9306   9321     1
   9306   9308     1
   9306   9316     1
   9306   9311     1
   9306   9307     1
   9307   9310     1
   9307   9314     1
   9307   9312     1
   9308   9310     1
   9317   9320     1
   9317   9321     1
   9318   9320     1
   9318   9321     1
   9322   9330     1
   9322   9338     1
   9322   9343     1
   9322   9331     1
   9323   9340     1
   9323   9341     1
   9323   9329     1
   9323   9337     1
   9324   9326     1
   9324   9335     1
   9324   9325     1
   9324   9342     1
   9324   9340     1
   9324   9341     1
   9324   9328     1
   9325   9336     1
   9325   9344     1
   9325   9327     1
   9325   9334     1
   9325   9330     1
   9325   9338     1
   9326   9338     1
   9326   9331     1
   9326   9339     1
   9327   9337     1
   9328   9330     1
   9328   9339     1
   9329   9334     1
   9329   9330     1
   9329   9332     1
   9329   9344     1
   9329   9331     1
   9329   9339     1
   9330   9335     1
   9330   9333     1
   9330   9337     1
   9331   9333     1
   9340   9344     1
   9340   9343     1
   9341   9344     1
   9341   9343     1
   9345   9353     1
   9345   9361     1
   9345   9366     1
   9345   9354     1
   9346   9352     1
   9346   9360     1
   9346   9363     1
   9346   9364     1
   9347   9349     1
   9347   9358     1
   9347   9348     1
   9347   9365     1
   9347   9363     1
   9347   9364     1
   9347   9351     1
   9348   9350     1
   9348   9357     1
   9348   9353     1
   9348   9361     1
   9348   9359     1
   9348   9367     1
   9349   9354     1
   9349   9362     1
   9349   9361     1
   9350   9360     1
   9351   9362     1
   9351   9353     1
   9352   9355     1
   9352   9367     1
   9352   9354     1
   9352   9362     1
   9352   9357     1
   9352   9353     1
   9353   9356     1
   9353   9360     1
   9353   9358     1
   9354   9356     1
   9363   9366     1
   9363   9367     1
   9364   9366     1
   9364   9367     1
   9368   9376     1
   9368   9384     1
   9368   9389     1
   9368   9377     1
   9369   9386     1
   9369   9387     1
   9369   9375     1
   9369   9383     1
   9370   9372     1
   9370   9381     1
   9370   9371     1
   9370   9388     1
   9370   9386     1
   9370   9387     1
   9370   9374     1
   9371   9382     1
   9371   9390     1
   9371   9373     1
   9371   9380     1
   9371   9376     1
   9371   9384     1
   9372   9384     1
   9372   9377     1
   9372   9385     1
   9373   9383     1
   9374   9376     1
   9374   9385     1
   9375   9380     1
   9375   9376     1
   9375   9378     1
   9375   9390     1
   9375   9377     1
   9375   9385     1
   9376   9381     1
   9376   9379     1
   9376   9383     1
   9377   9379     1
   9386   9390     1
   9386   9389     1
   9387   9390     1
   9387   9389     1
   9391   9399     1
   9391   9407     1
   9391   9412     1
   9391   9400     1
   9392   9398     1
   9392   9406     1
   9392   9409     1
   9392   9410     1
   9393   9395     1
   9393   9404     1
   9393   9394     1
   9393   9411     1
   9393   9409     1
   9393   9410     1
   9393   9397     1
   9394   9396     1
   9394   9403     1
   9394   9399     1
   9394   9407     1
   9394   9405     1
   9394   9413     1
   9395   9400     1
   9395   9408     1
   9395   9407     1
   9396   9406     1
   9397   9408     1
   9397   9399     1
   9398   9401     1
   9398   9413     1
   9398   9400     1
   9398   9408     1
   9398   9403     1
   9398   9399     1
   9399   9402     1
   9399   9406     1
   9399   9404     1
   9400   9402     1
   9409   9412     1
   9409   9413     1
   9410   9412     1
   9410   9413     1
   9414   9422     1
   9414   9430     1
   9414   9435     1
   9414   9423     1
   9415   9432     1
   9415   9433     1
   9415   9421     1
   9415   9429     1
   9416   9418     1
   9416   9427     1
   9416   9417     1
   9416   9434     1
   9416   9432     1
   9416   9433     1
   9416   9420     1
   9417   9428     1
   9417   9436     1
   9417   9419     1
   9417   9426     1
   9417   9422     1
   9417   9430     1
   9418   9430     1
   9418   9423     1
   9418   9431     1
   9419   9429     1
   9420   9422     1
   9420   9431     1
   9421   9426     1
   9421   9422     1
   9421   9424     1
   9421   9436     1
   9421   9423     1
   9421   9431     1
   9422   9427     1
   9422   9425     1
   9422   9429     1
   9423   9425     1
   9432   9436     1
   9432   9435     1
   9433   9436     1
   9433   9435     1
   9437   9445     1
   9437   9453     1
   9437   9458     1
   9437   9446     1
   9438   9444     1
   9438   9452     1
   9438   9455     1
   9438   9456     1
   9439   9441     1
   9439   9450     1
   9439   9440     1
   9439   9457     1
   9439   9455     1
   9439   9456     1
   9439   9443     1
   9440   9442     1
   9440   9449     1
   9440   9445     1
   9440   9453     1
   9440   9451     1
   9440   9459     1
   9441   9446     1
   9441   9454     1
   9441   9453     1
   9442   9452     1
   9443   9454     1
   9443   9445     1
   9444   9447     1
   9444   9459     1
   9444   9446     1
   9444   9454     1
   9444   9449     1
   9444   9445     1
   9445   9448     1
   9445   9452     1
   9445   9450     1
   9446   9448     1
   9455   9458     1
   9455   9459     1
   9456   9458     1
   9456   9459     1
   9460   9468     1
   9460   9476     1
   9460   9481     1
   9460   9469     1
   9461   9478     1
   9461   9479     1
   9461   9467     1
   9461   9475     1
   9462   9464     1
   9462   9473     1
   9462   9463     1
   9462   9480     1
   9462   9478     1
   9462   9479     1
   9462   9466     1
   9463   9474     1
   9463   9482     1
   9463   9465     1
   9463   9472     1
   9463   9468     1
   9463   9476     1
   9464   9476     1
   9464   9469     1
   9464   9477     1
   9465   9475     1
   9466   9468     1
   9466   9477     1
   9467   9472     1
   9467   9468     1
   9467   9470     1
   9467   9482     1
   9467   9469     1
   9467   9477     1
   9468   9473     1
   9468   9471     1
   9468   9475     1
   9469   9471     1
   9478   9482     1
   9478   9481     1
   9479   9482     1
   9479   9481     1
   9483   9491     1
   9483   9499     1
   9483   9504     1
   9483   9492     1
   9484   9490     1
   9484   9498     1
   9484   9501     1
   9484   9502     1
   9485   9487     1
   9485   9496     1
   9485   9486     1
   9485   9503     1
   9485   9501     1
   9485   9502     1
   9485   9489     1
   9486   9488     1
   9486   9495     1
   9486   9491     1
   9486   9499     1
   9486   9497     1
   9486   9505     1
   9487   9492     1
   9487   9500     1
   9487   9499     1
   9488   9498     1
   9489   9500     1
   9489   9491     1
   9490   9493     1
   9490   9505     1
   9490   9492     1
   9490   9500     1
   9490   9495     1
   9490   9491     1
   9491   9494     1
   9491   9498     1
   9491   9496     1
   9492   9494     1
   9501   9504     1
   9501   9505     1
   9502   9504     1
   9502   9505     1
   9506   9514     1
   9506   9522     1
   9506   9527     1
   9506   9515     1
   9507   9524     1
   9507   9525     1
   9507   9513     1
   9507   9521     1
   9508   9510     1
   9508   9519     1
   9508   9509     1
   9508   9526     1
   9508   9524     1
   9508   9525     1
   9508   9512     1
   9509   9520     1
   9509   9528     1
   9509   9511     1
   9509   9518     1
   9509   9514     1
   9509   9522     1
   9510   9522     1
   9510   9515     1
   9510   9523     1
   9511   9521     1
   9512   9514     1
   9512   9523     1
   9513   9518     1
   9513   9514     1
   9513   9516     1
   9513   9528     1
   9513   9515     1
   9513   9523     1
   9514   9519     1
   9514   9517     1
   9514   9521     1
   9515   9517     1
   9524   9528     1
   9524   9527     1
   9525   9528     1
   9525   9527     1
   9529   9537     1
   9529   9545     1
   9529   9550     1
   9529   9538     1
   9530   9536     1
   9530   9544     1
   9530   9547     1
   9530   9548     1
   9531   9533     1
   9531   9542     1
   9531   9532     1
   9531   9549     1
   9531   9547     1
   9531   9548     1
   9531   9535     1
   9532   9534     1
   9532   9541     1
   9532   9537     1
   9532   9545     1
   9532   9543     1
   9532   9551     1
   9533   9538     1
   9533   9546     1
   9533   9545     1
   9534   9544     1
   9535   9546     1
   9535   9537     1
   9536   9539     1
   9536   9551     1
   9536   9538     1
   9536   9546     1
   9536   9541     1
   9536   9537     1
   9537   9540     1
   9537   9544     1
   9537   9542     1
   9538   9540     1
   9547   9550     1
   9547   9551     1
   9548   9550     1
   9548   9551     1
   9552   9560     1
   9552   9568     1
   9552   9573     1
   9552   9561     1
   9553   9570     1
   9553   9571     1
   9553   9559     1
   9553   9567     1
   9554   9556     1
   9554   9565     1
   9554   9555     1
   9554   9572     1
   9554   9570     1
   9554   9571     1
   9554   9558     1
   9555   9566     1
   9555   9574     1
   9555   9557     1
   9555   9564     1
   9555   9560     1
   9555   9568     1
   9556   9568     1
   9556   9561     1
   9556   9569     1
   9557   9567     1
   9558   9560     1
   9558   9569     1
   9559   9564     1
   9559   9560     1
   9559   9562     1
   9559   9574     1
   9559   9561     1
   9559   9569     1
   9560   9565     1
   9560   9563     1
   9560   9567     1
   9561   9563     1
   9570   9574     1
   9570   9573     1
   9571   9574     1
   9571   9573     1
   9575   9583     1
   9575   9591     1
   9575   9596     1
   9575   9584     1
   9576   9582     1
   9576   9590     1
   9576   9593     1
   9576   9594     1
   9577   9579     1
   9577   9588     1
   9577   9578     1
   9577   9595     1
   9577   9593     1
   9577   9594     1
   9577   9581     1
   9578   9580     1
   9578   9587     1
   9578   9583     1
   9578   9591     1
   9578   9589     1
   9578   9597     1
   9579   9584     1
   9579   9592     1
   9579   9591     1
   9580   9590     1
   9581   9592     1
   9581   9583     1
   9582   9585     1
   9582   9597     1
   9582   9584     1
   9582   9592     1
   9582   9587     1
   9582   9583     1
   9583   9586     1
   9583   9590     1
   9583   9588     1
   9584   9586     1
   9593   9596     1
   9593   9597     1
   9594   9596     1
   9594   9597     1
   9598   9606     1
   9598   9614     1
   9598   9619     1
   9598   9607     1
   9599   9616     1
   9599   9617     1
   9599   9605     1
   9599   9613     1
   9600   9602     1
   9600   9611     1
   9600   9601     1
   9600   9618     1
   9600   9616     1
   9600   9617     1
   9600   9604     1
   9601   9612     1
   9601   9620     1
   9601   9603     1
   9601   9610     1
   9601   9606     1
   9601   9614     1
   9602   9614     1
   9602   9607     1
   9602   9615     1
   9603   9613     1
   9604   9606     1
   9604   9615     1
   9605   9610     1
   9605   9606     1
   9605   9608     1
   9605   9620     1
   9605   9607     1
   9605   9615     1
   9606   9611     1
   9606   9609     1
   9606   9613     1
   9607   9609     1
   9616   9620     1
   9616   9619     1
   9617   9620     1
   9617   9619     1
   9621   9629     1
   9621   9637     1
   9621   9642     1
   9621   9630     1
   9622   9628     1
   9622   9636     1
   9622   9639     1
   9622   9640     1
   9623   9625     1
   9623   9634     1
   9623   9624     1
   9623   9641     1
   9623   9639     1
   9623   9640     1
   9623   9627     1
   9624   9626     1
   9624   9633     1
   9624   9629     1
   9624   9637     1
   9624   9635     1
   9624   9643     1
   9625   9630     1
   9625   9638     1
   9625   9637     1
   9626   9636     1
   9627   9638     1
   9627   9629     1
   9628   9631     1
   9628   9643     1
   9628   9630     1
   9628   9638     1
   9628   9633     1
   9628   9629     1
   9629   9632     1
   9629   9636     1
   9629   9634     1
   9630   9632     1
   9639   9642     1
   9639   9643     1
   9640   9642     1
   9640   9643     1
   9644   9652     1
   9644   9660     1
   9644   9665     1
   9644   9653     1
   9645   9662     1
   9645   9663     1
   9645   9651     1
   9645   9659     1
   9646   9648     1
   9646   9657     1
   9646   9647     1
   9646   9664     1
   9646   9662     1
   9646   9663     1
   9646   9650     1
   9647   9658     1
   9647   9666     1
   9647   9649     1
   9647   9656     1
   9647   9652     1
   9647   9660     1
   9648   9660     1
   9648   9653     1
   9648   9661     1
   9649   9659     1
   9650   9652     1
   9650   9661     1
   9651   9656     1
   9651   9652     1
   9651   9654     1
   9651   9666     1
   9651   9653     1
   9651   9661     1
   9652   9657     1
   9652   9655     1
   9652   9659     1
   9653   9655     1
   9662   9666     1
   9662   9665     1
   9663   9666     1
   9663   9665     1
   9667   9675     1
   9667   9683     1
   9667   9688     1
   9667   9676     1
   9668   9674     1
   9668   9682     1
   9668   9685     1
   9668   9686     1
   9669   9671     1
   9669   9680     1
   9669   9670     1
   9669   9687     1
   9669   9685     1
   9669   9686     1
   9669   9673     1
   9670   9672     1
   9670   9679     1
   9670   9675     1
   9670   9683     1
   9670   9681     1
   9670   9689     1
   9671   9676     1
   9671   9684     1
   9671   9683     1
   9672   9682     1
   9673   9684     1
   9673   9675     1
   9674   9677     1
   9674   9689     1
   9674   9676     1
   9674   9684     1
   9674   9679     1
   9674   9675     1
   9675   9678     1
   9675   9682     1
   9675   9680     1
   9676   9678     1
   9685   9688     1
   9685   9689     1
   9686   9688     1
   9686   9689     1
   9690   9698     1
   9690   9706     1
   9690   9711     1
   9690   9699     1
   9691   9708     1
   9691   9709     1
   9691   9697     1
   9691   9705     1
   9692   9694     1
   9692   9703     1
   9692   9693     1
   9692   9710     1
   9692   9708     1
   9692   9709     1
   9692   9696     1
   9693   9704     1
   9693   9712     1
   9693   9695     1
   9693   9702     1
   9693   9698     1
   9693   9706     1
   9694   9706     1
   9694   9699     1
   9694   9707     1
   9695   9705     1
   9696   9698     1
   9696   9707     1
   9697   9702     1
   9697   9698     1
   9697   9700     1
   9697   9712     1
   9697   9699     1
   9697   9707     1
   9698   9703     1
   9698   9701     1
   9698   9705     1
   9699   9701     1
   9708   9712     1
   9708   9711     1
   9709   9712     1
   9709   9711     1
   9713   9721     1
   9713   9729     1
   9713   9734     1
   9713   9722     1
   9714   9720     1
   9714   9728     1
   9714   9731     1
   9714   9732     1
   9715   9717     1
   9715   9726     1
   9715   9716     1
   9715   9733     1
   9715   9731     1
   9715   9732     1
   9715   9719     1
   9716   9718     1
   9716   9725     1
   9716   9721     1
   9716   9729     1
   9716   9727     1
   9716   9735     1
   9717   9722     1
   9717   9730     1
   9717   9729     1
   9718   9728     1
   9719   9730     1
   9719   9721     1
   9720   9723     1
   9720   9735     1
   9720   9722     1
   9720   9730     1
   9720   9725     1
   9720   9721     1
   9721   9724     1
   9721   9728     1
   9721   9726     1
   9722   9724     1
   9731   9734     1
   9731   9735     1
   9732   9734     1
   9732   9735     1
   9736   9744     1
   9736   9752     1
   9736   9757     1
   9736   9745     1
   9737   9754     1
   9737   9755     1
   9737   9743     1
   9737   9751     1
   9738   9740     1
   9738   9749     1
   9738   9739     1
   9738   9756     1
   9738   9754     1
   9738   9755     1
   9738   9742     1
   9739   9750     1
   9739   9758     1
   9739   9741     1
   9739   9748     1
   9739   9744     1
   9739   9752     1
   9740   9752     1
   9740   9745     1
   9740   9753     1
   9741   9751     1
   9742   9744     1
   9742   9753     1
   9743   9748     1
   9743   9744     1
   9743   9746     1
   9743   9758     1
   9743   9745     1
   9743   9753     1
   9744   9749     1
   9744   9747     1
   9744   9751     1
   9745   9747     1
   9754   9758     1
   9754   9757     1
   9755   9758     1
   9755   9757     1
   9759   9767     1
   9759   9775     1
   9759   9780     1
   9759   9768     1
   9760   9766     1
   9760   9774     1
   9760   9777     1
   9760   9778     1
   9761   9763     1
   9761   9772     1
   9761   9762     1
   9761   9779     1
   9761   9777     1
   9761   9778     1
   9761   9765     1
   9762   9764     1
   9762   9771     1
   9762   9767     1
   9762   9775     1
   9762   9773     1
   9762   9781     1
   9763   9768     1
   9763   9776     1
   9763   9775     1
   9764   9774     1
   9765   9776     1
   9765   9767     1
   9766   9769     1
   9766   9781     1
   9766   9768     1
   9766   9776     1
   9766   9771     1
   9766   9767     1
   9767   9770     1
   9767   9774     1
   9767   9772     1
   9768   9770     1
   9777   9780     1
   9777   9781     1
   9778   9780     1
   9778   9781     1
   9782   9790     1
   9782   9798     1
   9782   9803     1
   9782   9791     1
   9783   9800     1
   9783   9801     1
   9783   9789     1
   9783   9797     1
   9784   9786     1
   9784   9795     1
   9784   9785     1
   9784   9802     1
   9784   9800     1
   9784   9801     1
   9784   9788     1
   9785   9796     1
   9785   9804     1
   9785   9787     1
   9785   9794     1
   9785   9790     1
   9785   9798     1
   9786   9798     1
   9786   9791     1
   9786   9799     1
   9787   9797     1
   9788   9790     1
   9788   9799     1
   9789   9794     1
   9789   9790     1
   9789   9792     1
   9789   9804     1
   9789   9791     1
   9789   9799     1
   9790   9795     1
   9790   9793     1
   9790   9797     1
   9791   9793     1
   9800   9804     1
   9800   9803     1
   9801   9804     1
   9801   9803     1
   9805   9813     1
   9805   9821     1
   9805   9826     1
   9805   9814     1
   9806   9812     1
   9806   9820     1
   9806   9823     1
   9806   9824     1
   9807   9809     1
   9807   9818     1
   9807   9808     1
   9807   9825     1
   9807   9823     1
   9807   9824     1
   9807   9811     1
   9808   9810     1
   9808   9817     1
   9808   9813     1
   9808   9821     1
   9808   9819     1
   9808   9827     1
   9809   9814     1
   9809   9822     1
   9809   9821     1
   9810   9820     1
   9811   9822     1
   9811   9813     1
   9812   9815     1
   9812   9827     1
   9812   9814     1
   9812   9822     1
   9812   9817     1
   9812   9813     1
   9813   9816     1
   9813   9820     1
   9813   9818     1
   9814   9816     1
   9823   9826     1
   9823   9827     1
   9824   9826     1
   9824   9827     1
   9828   9836     1
   9828   9844     1
   9828   9849     1
   9828   9837     1
   9829   9846     1
   9829   9847     1
   9829   9835     1
   9829   9843     1
   9830   9832     1
   9830   9841     1
   9830   9831     1
   9830   9848     1
   9830   9846     1
   9830   9847     1
   9830   9834     1
   9831   9842     1
   9831   9850     1
   9831   9833     1
   9831   9840     1
   9831   9836     1
   9831   9844     1
   9832   9844     1
   9832   9837     1
   9832   9845     1
   9833   9843     1
   9834   9836     1
   9834   9845     1
   9835   9840     1
   9835   9836     1
   9835   9838     1
   9835   9850     1
   9835   9837     1
   9835   9845     1
   9836   9841     1
   9836   9839     1
   9836   9843     1
   9837   9839     1
   9846   9850     1
   9846   9849     1
   9847   9850     1
   9847   9849     1
   9851   9859     1
   9851   9867     1
   9851   9872     1
   9851   9860     1
   9852   9858     1
   9852   9866     1
   9852   9869     1
   9852   9870     1
   9853   9855     1
   9853   9864     1
   9853   9854     1
   9853   9871     1
   9853   9869     1
   9853   9870     1
   9853   9857     1
   9854   9856     1
   9854   9863     1
   9854   9859     1
   9854   9867     1
   9854   9865     1
   9854   9873     1
   9855   9860     1
   9855   9868     1
   9855   9867     1
   9856   9866     1
   9857   9868     1
   9857   9859     1
   9858   9861     1
   9858   9873     1
   9858   9860     1
   9858   9868     1
   9858   9863     1
   9858   9859     1
   9859   9862     1
   9859   9866     1
   9859   9864     1
   9860   9862     1
   9869   9872     1
   9869   9873     1
   9870   9872     1
   9870   9873     1
   9874   9882     1
   9874   9890     1
   9874   9895     1
   9874   9883     1
   9875   9892     1
   9875   9893     1
   9875   9881     1
   9875   9889     1
   9876   9878     1
   9876   9887     1
   9876   9877     1
   9876   9894     1
   9876   9892     1
   9876   9893     1
   9876   9880     1
   9877   9888     1
   9877   9896     1
   9877   9879     1
   9877   9886     1
   9877   9882     1
   9877   9890     1
   9878   9890     1
   9878   9883     1
   9878   9891     1
   9879   9889     1
   9880   9882     1
   9880   9891     1
   9881   9886     1
   9881   9882     1
   9881   9884     1
   9881   9896     1
   9881   9883     1
   9881   9891     1
   9882   9887     1
   9882   9885     1
   9882   9889     1
   9883   9885     1
   9892   9896     1
   9892   9895     1
   9893   9896     1
   9893   9895     1
   9897   9905     1
   9897   9913     1
   9897   9918     1
   9897   9906     1
   9898   9904     1
   9898   9912     1
   9898   9915     1
   9898   9916     1
   9899   9901     1
   9899   9910     1
   9899   9900     1
   9899   9917     1
   9899   9915     1
   9899   9916     1
   9899   9903     1
   9900   9902     1
   9900   9909     1
   9900   9905     1
   9900   9913     1
   9900   9911     1
   9900   9919     1
   9901   9906     1
   9901   9914     1
   9901   9913     1
   9902   9912     1
   9903   9914     1
   9903   9905     1
   9904   9907     1
   9904   9919     1
   9904   9906     1
   9904   9914     1
   9904   9909     1
   9904   9905     1
   9905   9908     1
   9905   9912     1
   9905   9910     1
   9906   9908     1
   9915   9918     1
   9915   9919     1
   9916   9918     1
   9916   9919     1
   9920   9928     1
   9920   9936     1
   9920   9941     1
   9920   9929     1
   9921   9938     1
   9921   9939     1
   9921   9927     1
   9921   9935     1
   9922   9924     1
   9922   9933     1
   9922   9923     1
   9922   9940     1
   9922   9938     1
   9922   9939     1
   9922   9926     1
   9923   9934     1
   9923   9942     1
   9923   9925     1
   9923   9932     1
   9923   9928     1
   9923   9936     1
   9924   9936     1
   9924   9929     1
   9924   9937     1
   9925   9935     1
   9926   9928     1
   9926   9937     1
   9927   9932     1
   9927   9928     1
   9927   9930     1
   9927   9942     1
   9927   9929     1
   9927   9937     1
   9928   9933     1
   9928   9931     1
   9928   9935     1
   9929   9931     1
   9938   9942     1
   9938   9941     1
   9939   9942     1
   9939   9941     1
   9943   9951     1
   9943   9959     1
   9943   9964     1
   9943   9952     1
   9944   9950     1
   9944   9958     1
   9944   9961     1
   9944   9962     1
   9945   9947     1
   9945   9956     1
   9945   9946     1
   9945   9963     1
   9945   9961     1
   9945   9962     1
   9945   9949     1
   9946   9948     1
   9946   9955     1
   9946   9951     1
   9946   9959     1
   9946   9957     1
   9946   9965     1
   9947   9952     1
   9947   9960     1
   9947   9959     1
   9948   9958     1
   9949   9960     1
   9949   9951     1
   9950   9953     1
   9950   9965     1
   9950   9952     1
   9950   9960     1
   9950   9955     1
   9950   9951     1
   9951   9954     1
   9951   9958     1
   9951   9956     1
   9952   9954     1
   9961   9964     1
   9961   9965     1
   9962   9964     1
   9962   9965     1
   9966   9974     1
   9966   9982     1
   9966   9987     1
   9966   9975     1
   9967   9984     1
   9967   9985     1
   9967   9973     1
   9967   9981     1
   9968   9970     1
   9968   9979     1
   9968   9969     1
   9968   9986     1
   9968   9984     1
   9968   9985     1
   9968   9972     1
   9969   9980     1
   9969   9988     1
   9969   9971     1
   9969   9978     1
   9969   9974     1
   9969   9982     1
   9970   9982     1
   9970   9975     1
   9970   9983     1
   9971   9981     1
   9972   9974     1
   9972   9983     1
   9973   9978     1
   9973   9974     1
   9973   9976     1
   9973   9988     1
   9973   9975     1
   9973   9983     1
   9974   9979     1
   9974   9977     1
   9974   9981     1
   9975   9977     1
   9984   9988     1
   9984   9987     1
   9985   9988     1
   9985   9987     1
   9989   9997     1
   9989  10005     1
   9989  10010     1
   9989   9998     1
   9990   9996     1
   9990  10004     1
   9990  10007     1
   9990  10008     1
   9991   9993     1
   9991  10002     1
   9991   9992     1
   9991  10009     1
   9991  10007     1
   9991  10008     1
   9991   9995     1
   9992   9994     1
   9992  10001     1
   9992   9997     1
   9992  10005     1
   9992  10003     1
   9992  10011     1
   9993   9998     1
   9993  10006     1
   9993  10005     1
   9994  10004     1
   9995  10006     1
   9995   9997     1
   9996   9999     1
   9996  10011     1
   9996   9998     1
   9996  10006     1
   9996  10001     1
   9996   9997     1
   9997  10000     1
   9997  10004     1
   9997  10002     1
   9998  10000     1
  10007  10010     1
  10007  10011     1
  10008  10010     1
  10008  10011     1
  10012  10020     1
  10012  10028     1
  10012  10033     1
  10012  10021     1
  10013  10030     1
  10013  10031     1
  10013  10019     1
  10013  10027     1
  10014  10016     1
  10014  10025     1
  10014  10015     1
  10014  10032     1
  10014  10030     1
  10014  10031     1
  10014  10018     1
  10015  10026     1
  10015  10034     1
  10015  10017     1
  10015  10024     1
  10015  10020     1
  10015  10028     1
  10016  10028     1
  10016  10021     1
  10016  10029     1
  10017  10027     1
  10018  10020     1
  10018  10029     1
  10019  10024     1
  10019  10020     1
  10019  10022     1
  10019  10034     1
  10019  10021     1
  10019  10029     1
  10020  10025     1
  10020  10023     1
  10020  10027     1
  10021  10023     1
  10030  10034     1
  10030  10033     1
  10031  10034     1
  10031  10033     1
  10035  10043     1
  10035  10051     1
  10035  10056     1
  10035  10044     1
  10036  10042     1
  10036  10050     1
  10036  10053     1
  10036  10054     1
  10037  10039     1
  10037  10048     1
  10037  10038     1
  10037  10055     1
  10037  10053     1
  10037  10054     1
  10037  10041     1
  10038  10040     1
  10038  10047     1
  10038  10043     1
  10038  10051     1
  10038  10049     1
  10038  10057     1
  10039  10044     1
  10039  10052     1
  10039  10051     1
  10040  10050     1
  10041  10052     1
  10041  10043     1
  10042  10045     1
  10042  10057     1
  10042  10044     1
  10042  10052     1
  10042  10047     1
  10042  10043     1
  10043  10046     1
  10043  10050     1
  10043  10048     1
  10044  10046     1
  10053  10056     1
  10053  10057     1
  10054  10056     1
  10054  10057     1
  10058  10066     1
  10058  10074     1
  10058  10079     1
  10058  10067     1
  10059  10076     1
  10059  10077     1
  10059  10065     1
  10059  10073     1
  10060  10062     1
  10060  10071     1
  10060  10061     1
  10060  10078     1
  10060  10076     1
  10060  10077     1
  10060  10064     1
  10061  10072     1
  10061  10080     1
  10061  10063     1
  10061  10070     1
  10061  10066     1
  10061  10074     1
  10062  10074     1
  10062  10067     1
  10062  10075     1
  10063  10073     1
  10064  10066     1
  10064  10075     1
  10065  10070     1
  10065  10066     1
  10065  10068     1
  10065  10080     1
  10065  10067     1
  10065  10075     1
  10066  10071     1
  10066  10069     1
  10066  10073     1
  10067  10069     1
  10076  10080     1
  10076  10079     1
  10077  10080     1
  10077  10079     1
  10081  10089     1
  10081  10097     1
  10081  10102     1
  10081  10090     1
  10082  10088     1
  10082  10096     1
  10082  10099     1
  10082  10100     1
  10083  10085     1
  10083  10094     1
  10083  10084     1
  10083  10101     1
  10083  10099     1
  10083  10100     1
  10083  10087     1
  10084  10086     1
  10084  10093     1
  10084  10089     1
  10084  10097     1
  10084  10095     1
  10084  10103     1
  10085  10090     1
  10085  10098     1
  10085  10097     1
  10086  10096     1
  10087  10098     1
  10087  10089     1
  10088  10091     1
  10088  10103     1
  10088  10090     1
  10088  10098     1
  10088  10093     1
  10088  10089     1
  10089  10092     1
  10089  10096     1
  10089  10094     1
  10090  10092     1
  10099  10102     1
  10099  10103     1
  10100  10102     1
  10100  10103     1
  10104  10112     1
  10104  10120     1
  10104  10125     1
  10104  10113     1
  10105  10122     1
  10105  10123     1
  10105  10111     1
  10105  10119     1
  10106  10108     1
  10106  10117     1
  10106  10107     1
  10106  10124     1
  10106  10122     1
  10106  10123     1
  10106  10110     1
  10107  10118     1
  10107  10126     1
  10107  10109     1
  10107  10116     1
  10107  10112     1
  10107  10120     1
  10108  10120     1
  10108  10113     1
  10108  10121     1
  10109  10119     1
  10110  10112     1
  10110  10121     1
  10111  10116     1
  10111  10112     1
  10111  10114     1
  10111  10126     1
  10111  10113     1
  10111  10121     1
  10112  10117     1
  10112  10115     1
  10112  10119     1
  10113  10115     1
  10122  10126     1
  10122  10125     1
  10123  10126     1
  10123  10125     1
  10127  10135     1
  10127  10143     1
  10127  10148     1
  10127  10136     1
  10128  10134     1
  10128  10142     1
  10128  10145     1
  10128  10146     1
  10129  10131     1
  10129  10140     1
  10129  10130     1
  10129  10147     1
  10129  10145     1
  10129  10146     1
  10129  10133     1
  10130  10132     1
  10130  10139     1
  10130  10135     1
  10130  10143     1
  10130  10141     1
  10130  10149     1
  10131  10136     1
  10131  10144     1
  10131  10143     1
  10132  10142     1
  10133  10144     1
  10133  10135     1
  10134  10137     1
  10134  10149     1
  10134  10136     1
  10134  10144     1
  10134  10139     1
  10134  10135     1
  10135  10138     1
  10135  10142     1
  10135  10140     1
  10136  10138     1
  10145  10148     1
  10145  10149     1
  10146  10148     1
  10146  10149     1
  10150  10158     1
  10150  10166     1
  10150  10171     1
  10150  10159     1
  10151  10168     1
  10151  10169     1
  10151  10157     1
  10151  10165     1
  10152  10154     1
  10152  10163     1
  10152  10153     1
  10152  10170     1
  10152  10168     1
  10152  10169     1
  10152  10156     1
  10153  10164     1
  10153  10172     1
  10153  10155     1
  10153  10162     1
  10153  10158     1
  10153  10166     1
  10154  10166     1
  10154  10159     1
  10154  10167     1
  10155  10165     1
  10156  10158     1
  10156  10167     1
  10157  10162     1
  10157  10158     1
  10157  10160     1
  10157  10172     1
  10157  10159     1
  10157  10167     1
  10158  10163     1
  10158  10161     1
  10158  10165     1
  10159  10161     1
  10168  10172     1
  10168  10171     1
  10169  10172     1
  10169  10171     1
  10173  10181     1
  10173  10189     1
  10173  10194     1
  10173  10182     1
  10174  10180     1
  10174  10188     1
  10174  10191     1
  10174  10192     1
  10175  10177     1
  10175  10186     1
  10175  10176     1
  10175  10193     1
  10175  10191     1
  10175  10192     1
  10175  10179     1
  10176  10178     1
  10176  10185     1
  10176  10181     1
  10176  10189     1
  10176  10187     1
  10176  10195     1
  10177  10182     1
  10177  10190     1
  10177  10189     1
  10178  10188     1
  10179  10190     1
  10179  10181     1
  10180  10183     1
  10180  10195     1
  10180  10182     1
  10180  10190     1
  10180  10185     1
  10180  10181     1
  10181  10184     1
  10181  10188     1
  10181  10186     1
  10182  10184     1
  10191  10194     1
  10191  10195     1
  10192  10194     1
  10192  10195     1
  10196  10204     1
  10196  10212     1
  10196  10217     1
  10196  10205     1
  10197  10214     1
  10197  10215     1
  10197  10203     1
  10197  10211     1
  10198  10200     1
  10198  10209     1
  10198  10199     1
  10198  10216     1
  10198  10214     1
  10198  10215     1
  10198  10202     1
  10199  10210     1
  10199  10218     1
  10199  10201     1
  10199  10208     1
  10199  10204     1
  10199  10212     1
  10200  10212     1
  10200  10205     1
  10200  10213     1
  10201  10211     1
  10202  10204     1
  10202  10213     1
  10203  10208     1
  10203  10204     1
  10203  10206     1
  10203  10218     1
  10203  10205     1
  10203  10213     1
  10204  10209     1
  10204  10207     1
  10204  10211     1
  10205  10207     1
  10214  10218     1
  10214  10217     1
  10215  10218     1
  10215  10217     1
  10219  10227     1
  10219  10235     1
  10219  10240     1
  10219  10228     1
  10220  10226     1
  10220  10234     1
  10220  10237     1
  10220  10238     1
  10221  10223     1
  10221  10232     1
  10221  10222     1
  10221  10239     1
  10221  10237     1
  10221  10238     1
  10221  10225     1
  10222  10224     1
  10222  10231     1
  10222  10227     1
  10222  10235     1
  10222  10233     1
  10222  10241     1
  10223  10228     1
  10223  10236     1
  10223  10235     1
  10224  10234     1
  10225  10236     1
  10225  10227     1
  10226  10229     1
  10226  10241     1
  10226  10228     1
  10226  10236     1
  10226  10231     1
  10226  10227     1
  10227  10230     1
  10227  10234     1
  10227  10232     1
  10228  10230     1
  10237  10240     1
  10237  10241     1
  10238  10240     1
  10238  10241     1
  10242  10250     1
  10242  10258     1
  10242  10263     1
  10242  10251     1
  10243  10260     1
  10243  10261     1
  10243  10249     1
  10243  10257     1
  10244  10246     1
  10244  10255     1
  10244  10245     1
  10244  10262     1
  10244  10260     1
  10244  10261     1
  10244  10248     1
  10245  10256     1
  10245  10264     1
  10245  10247     1
  10245  10254     1
  10245  10250     1
  10245  10258     1
  10246  10258     1
  10246  10251     1
  10246  10259     1
  10247  10257     1
  10248  10250     1
  10248  10259     1
  10249  10254     1
  10249  10250     1
  10249  10252     1
  10249  10264     1
  10249  10251     1
  10249  10259     1
  10250  10255     1
  10250  10253     1
  10250  10257     1
  10251  10253     1
  10260  10264     1
  10260  10263     1
  10261  10264     1
  10261  10263     1
  10265  10273     1
  10265  10281     1
  10265  10286     1
  10265  10274     1
  10266  10272     1
  10266  10280     1
  10266  10283     1
  10266  10284     1
  10267  10269     1
  10267  10278     1
  10267  10268     1
  10267  10285     1
  10267  10283     1
  10267  10284     1
  10267  10271     1
  10268  10270     1
  10268  10277     1
  10268  10273     1
  10268  10281     1
  10268  10279     1
  10268  10287     1
  10269  10274     1
  10269  10282     1
  10269  10281     1
  10270  10280     1
  10271  10282     1
  10271  10273     1
  10272  10275     1
  10272  10287     1
  10272  10274     1
  10272  10282     1
  10272  10277     1
  10272  10273     1
  10273  10276     1
  10273  10280     1
  10273  10278     1
  10274  10276     1
  10283  10286     1
  10283  10287     1
  10284  10286     1
  10284  10287     1
  10288  10296     1
  10288  10304     1
  10288  10309     1
  10288  10297     1
  10289  10306     1
  10289  10307     1
  10289  10295     1
  10289  10303     1
  10290  10292     1
  10290  10301     1
  10290  10291     1
  10290  10308     1
  10290  10306     1
  10290  10307     1
  10290  10294     1
  10291  10302     1
  10291  10310     1
  10291  10293     1
  10291  10300     1
  10291  10296     1
  10291  10304     1
  10292  10304     1
  10292  10297     1
  10292  10305     1
  10293  10303     1
  10294  10296     1
  10294  10305     1
  10295  10300     1
  10295  10296     1
  10295  10298     1
  10295  10310     1
  10295  10297     1
  10295  10305     1
  10296  10301     1
  10296  10299     1
  10296  10303     1
  10297  10299     1
  10306  10310     1
  10306  10309     1
  10307  10310     1
  10307  10309     1
  10311  10319     1
  10311  10327     1
  10311  10332     1
  10311  10320     1
  10312  10318     1
  10312  10326     1
  10312  10329     1
  10312  10330     1
  10313  10315     1
  10313  10324     1
  10313  10314     1
  10313  10331     1
  10313  10329     1
  10313  10330     1
  10313  10317     1
  10314  10316     1
  10314  10323     1
  10314  10319     1
  10314  10327     1
  10314  10325     1
  10314  10333     1
  10315  10320     1
  10315  10328     1
  10315  10327     1
  10316  10326     1
  10317  10328     1
  10317  10319     1
  10318  10321     1
  10318  10333     1
  10318  10320     1
  10318  10328     1
  10318  10323     1
  10318  10319     1
  10319  10322     1
  10319  10326     1
  10319  10324     1
  10320  10322     1
  10329  10332     1
  10329  10333     1
  10330  10332     1
  10330  10333     1
  10334  10342     1
  10334  10350     1
  10334  10355     1
  10334  10343     1
  10335  10352     1
  10335  10353     1
  10335  10341     1
  10335  10349     1
  10336  10338     1
  10336  10347     1
  10336  10337     1
  10336  10354     1
  10336  10352     1
  10336  10353     1
  10336  10340     1
  10337  10348     1
  10337  10356     1
  10337  10339     1
  10337  10346     1
  10337  10342     1
  10337  10350     1
  10338  10350     1
  10338  10343     1
  10338  10351     1
  10339  10349     1
  10340  10342     1
  10340  10351     1
  10341  10346     1
  10341  10342     1
  10341  10344     1
  10341  10356     1
  10341  10343     1
  10341  10351     1
  10342  10347     1
  10342  10345     1
  10342  10349     1
  10343  10345     1
  10352  10356     1
  10352  10355     1
  10353  10356     1
  10353  10355     1
  10357  10365     1
  10357  10373     1
  10357  10378     1
  10357  10366     1
  10358  10364     1
  10358  10372     1
  10358  10375     1
  10358  10376     1
  10359  10361     1
  10359  10370     1
  10359  10360     1
  10359  10377     1
  10359  10375     1
  10359  10376     1
  10359  10363     1
  10360  10362     1
  10360  10369     1
  10360  10365     1
  10360  10373     1
  10360  10371     1
  10360  10379     1
  10361  10366     1
  10361  10374     1
  10361  10373     1
  10362  10372     1
  10363  10374     1
  10363  10365     1
  10364  10367     1
  10364  10379     1
  10364  10366     1
  10364  10374     1
  10364  10369     1
  10364  10365     1
  10365  10368     1
  10365  10372     1
  10365  10370     1
  10366  10368     1
  10375  10378     1
  10375  10379     1
  10376  10378     1
  10376  10379     1
  10380  10388     1
  10380  10396     1
  10380  10401     1
  10380  10389     1
  10381  10398     1
  10381  10399     1
  10381  10387     1
  10381  10395     1
  10382  10384     1
  10382  10393     1
  10382  10383     1
  10382  10400     1
  10382  10398     1
  10382  10399     1
  10382  10386     1
  10383  10394     1
  10383  10402     1
  10383  10385     1
  10383  10392     1
  10383  10388     1
  10383  10396     1
  10384  10396     1
  10384  10389     1
  10384  10397     1
  10385  10395     1
  10386  10388     1
  10386  10397     1
  10387  10392     1
  10387  10388     1
  10387  10390     1
  10387  10402     1
  10387  10389     1
  10387  10397     1
  10388  10393     1
  10388  10391     1
  10388  10395     1
  10389  10391     1
  10398  10402     1
  10398  10401     1
  10399  10402     1
  10399  10401     1
  10403  10411     1
  10403  10419     1
  10403  10424     1
  10403  10412     1
  10404  10410     1
  10404  10418     1
  10404  10421     1
  10404  10422     1
  10405  10407     1
  10405  10416     1
  10405  10406     1
  10405  10423     1
  10405  10421     1
  10405  10422     1
  10405  10409     1
  10406  10408     1
  10406  10415     1
  10406  10411     1
  10406  10419     1
  10406  10417     1
  10406  10425     1
  10407  10412     1
  10407  10420     1
  10407  10419     1
  10408  10418     1
  10409  10420     1
  10409  10411     1
  10410  10413     1
  10410  10425     1
  10410  10412     1
  10410  10420     1
  10410  10415     1
  10410  10411     1
  10411  10414     1
  10411  10418     1
  10411  10416     1
  10412  10414     1
  10421  10424     1
  10421  10425     1
  10422  10424     1
  10422  10425     1
  10426  10434     1
  10426  10442     1
  10426  10447     1
  10426  10435     1
  10427  10444     1
  10427  10445     1
  10427  10433     1
  10427  10441     1
  10428  10430     1
  10428  10439     1
  10428  10429     1
  10428  10446     1
  10428  10444     1
  10428  10445     1
  10428  10432     1
  10429  10440     1
  10429  10448     1
  10429  10431     1
  10429  10438     1
  10429  10434     1
  10429  10442     1
  10430  10442     1
  10430  10435     1
  10430  10443     1
  10431  10441     1
  10432  10434     1
  10432  10443     1
  10433  10438     1
  10433  10434     1
  10433  10436     1
  10433  10448     1
  10433  10435     1
  10433  10443     1
  10434  10439     1
  10434  10437     1
  10434  10441     1
  10435  10437     1
  10444  10448     1
  10444  10447     1
  10445  10448     1
  10445  10447     1
  10449  10457     1
  10449  10465     1
  10449  10470     1
  10449  10458     1
  10450  10456     1
  10450  10464     1
  10450  10467     1
  10450  10468     1
  10451  10453     1
  10451  10462     1
  10451  10452     1
  10451  10469     1
  10451  10467     1
  10451  10468     1
  10451  10455     1
  10452  10454     1
  10452  10461     1
  10452  10457     1
  10452  10465     1
  10452  10463     1
  10452  10471     1
  10453  10458     1
  10453  10466     1
  10453  10465     1
  10454  10464     1
  10455  10466     1
  10455  10457     1
  10456  10459     1
  10456  10471     1
  10456  10458     1
  10456  10466     1
  10456  10461     1
  10456  10457     1
  10457  10460     1
  10457  10464     1
  10457  10462     1
  10458  10460     1
  10467  10470     1
  10467  10471     1
  10468  10470     1
  10468  10471     1
  10472  10480     1
  10472  10488     1
  10472  10493     1
  10472  10481     1
  10473  10490     1
  10473  10491     1
  10473  10479     1
  10473  10487     1
  10474  10476     1
  10474  10485     1
  10474  10475     1
  10474  10492     1
  10474  10490     1
  10474  10491     1
  10474  10478     1
  10475  10486     1
  10475  10494     1
  10475  10477     1
  10475  10484     1
  10475  10480     1
  10475  10488     1
  10476  10488     1
  10476  10481     1
  10476  10489     1
  10477  10487     1
  10478  10480     1
  10478  10489     1
  10479  10484     1
  10479  10480     1
  10479  10482     1
  10479  10494     1
  10479  10481     1
  10479  10489     1
  10480  10485     1
  10480  10483     1
  10480  10487     1
  10481  10483     1
  10490  10494     1
  10490  10493     1
  10491  10494     1
  10491  10493     1
  10495  10503     1
  10495  10511     1
  10495  10516     1
  10495  10504     1
  10496  10502     1
  10496  10510     1
  10496  10513     1
  10496  10514     1
  10497  10499     1
  10497  10508     1
  10497  10498     1
  10497  10515     1
  10497  10513     1
  10497  10514     1
  10497  10501     1
  10498  10500     1
  10498  10507     1
  10498  10503     1
  10498  10511     1
  10498  10509     1
  10498  10517     1
  10499  10504     1
  10499  10512     1
  10499  10511     1
  10500  10510     1
  10501  10512     1
  10501  10503     1
  10502  10505     1
  10502  10517     1
  10502  10504     1
  10502  10512     1
  10502  10507     1
  10502  10503     1
  10503  10506     1
  10503  10510     1
  10503  10508     1
  10504  10506     1
  10513  10516     1
  10513  10517     1
  10514  10516     1
  10514  10517     1
  10518  10526     1
  10518  10534     1
  10518  10539     1
  10518  10527     1
  10519  10536     1
  10519  10537     1
  10519  10525     1
  10519  10533     1
  10520  10522     1
  10520  10531     1
  10520  10521     1
  10520  10538     1
  10520  10536     1
  10520  10537     1
  10520  10524     1
  10521  10532     1
  10521  10540     1
  10521  10523     1
  10521  10530     1
  10521  10526     1
  10521  10534     1
  10522  10534     1
  10522  10527     1
  10522  10535     1
  10523  10533     1
  10524  10526     1
  10524  10535     1
  10525  10530     1
  10525  10526     1
  10525  10528     1
  10525  10540     1
  10525  10527     1
  10525  10535     1
  10526  10531     1
  10526  10529     1
  10526  10533     1
  10527  10529     1
  10536  10540     1
  10536  10539     1
  10537  10540     1
  10537  10539     1
  10541  10549     1
  10541  10557     1
  10541  10562     1
  10541  10550     1
  10542  10548     1
  10542  10556     1
  10542  10559     1
  10542  10560     1
  10543  10545     1
  10543  10554     1
  10543  10544     1
  10543  10561     1
  10543  10559     1
  10543  10560     1
  10543  10547     1
  10544  10546     1
  10544  10553     1
  10544  10549     1
  10544  10557     1
  10544  10555     1
  10544  10563     1
  10545  10550     1
  10545  10558     1
  10545  10557     1
  10546  10556     1
  10547  10558     1
  10547  10549     1
  10548  10551     1
  10548  10563     1
  10548  10550     1
  10548  10558     1
  10548  10553     1
  10548  10549     1
  10549  10552     1
  10549  10556     1
  10549  10554     1
  10550  10552     1
  10559  10562     1
  10559  10563     1
  10560  10562     1
  10560  10563     1
  10564  10572     1
  10564  10580     1
  10564  10585     1
  10564  10573     1
  10565  10582     1
  10565  10583     1
  10565  10571     1
  10565  10579     1
  10566  10568     1
  10566  10577     1
  10566  10567     1
  10566  10584     1
  10566  10582     1
  10566  10583     1
  10566  10570     1
  10567  10578     1
  10567  10586     1
  10567  10569     1
  10567  10576     1
  10567  10572     1
  10567  10580     1
  10568  10580     1
  10568  10573     1
  10568  10581     1
  10569  10579     1
  10570  10572     1
  10570  10581     1
  10571  10576     1
  10571  10572     1
  10571  10574     1
  10571  10586     1
  10571  10573     1
  10571  10581     1
  10572  10577     1
  10572  10575     1
  10572  10579     1
  10573  10575     1
  10582  10586     1
  10582  10585     1
  10583  10586     1
  10583  10585     1
  10587  10595     1
  10587  10603     1
  10587  10608     1
  10587  10596     1
  10588  10594     1
  10588  10602     1
  10588  10605     1
  10588  10606     1
  10589  10591     1
  10589  10600     1
  10589  10590     1
  10589  10607     1
  10589  10605     1
  10589  10606     1
  10589  10593     1
  10590  10592     1
  10590  10599     1
  10590  10595     1
  10590  10603     1
  10590  10601     1
  10590  10609     1
  10591  10596     1
  10591  10604     1
  10591  10603     1
  10592  10602     1
  10593  10604     1
  10593  10595     1
  10594  10597     1
  10594  10609     1
  10594  10596     1
  10594  10604     1
  10594  10599     1
  10594  10595     1
  10595  10598     1
  10595  10602     1
  10595  10600     1
  10596  10598     1
  10605  10608     1
  10605  10609     1
  10606  10608     1
  10606  10609     1
  10610  10618     1
  10610  10626     1
  10610  10631     1
  10610  10619     1
  10611  10628     1
  10611  10629     1
  10611  10617     1
  10611  10625     1
  10612  10614     1
  10612  10623     1
  10612  10613     1
  10612  10630     1
  10612  10628     1
  10612  10629     1
  10612  10616     1
  10613  10624     1
  10613  10632     1
  10613  10615     1
  10613  10622     1
  10613  10618     1
  10613  10626     1
  10614  10626     1
  10614  10619     1
  10614  10627     1
  10615  10625     1
  10616  10618     1
  10616  10627     1
  10617  10622     1
  10617  10618     1
  10617  10620     1
  10617  10632     1
  10617  10619     1
  10617  10627     1
  10618  10623     1
  10618  10621     1
  10618  10625     1
  10619  10621     1
  10628  10632     1
  10628  10631     1
  10629  10632     1
  10629  10631     1
  10633  10641     1
  10633  10649     1
  10633  10654     1
  10633  10642     1
  10634  10640     1
  10634  10648     1
  10634  10651     1
  10634  10652     1
  10635  10637     1
  10635  10646     1
  10635  10636     1
  10635  10653     1
  10635  10651     1
  10635  10652     1
  10635  10639     1
  10636  10638     1
  10636  10645     1
  10636  10641     1
  10636  10649     1
  10636  10647     1
  10636  10655     1
  10637  10642     1
  10637  10650     1
  10637  10649     1
  10638  10648     1
  10639  10650     1
  10639  10641     1
  10640  10643     1
  10640  10655     1
  10640  10642     1
  10640  10650     1
  10640  10645     1
  10640  10641     1
  10641  10644     1
  10641  10648     1
  10641  10646     1
  10642  10644     1
  10651  10654     1
  10651  10655     1
  10652  10654     1
  10652  10655     1
  10656  10664     1
  10656  10672     1
  10656  10677     1
  10656  10665     1
  10657  10674     1
  10657  10675     1
  10657  10663     1
  10657  10671     1
  10658  10660     1
  10658  10669     1
  10658  10659     1
  10658  10676     1
  10658  10674     1
  10658  10675     1
  10658  10662     1
  10659  10670     1
  10659  10678     1
  10659  10661     1
  10659  10668     1
  10659  10664     1
  10659  10672     1
  10660  10672     1
  10660  10665     1
  10660  10673     1
  10661  10671     1
  10662  10664     1
  10662  10673     1
  10663  10668     1
  10663  10664     1
  10663  10666     1
  10663  10678     1
  10663  10665     1
  10663  10673     1
  10664  10669     1
  10664  10667     1
  10664  10671     1
  10665  10667     1
  10674  10678     1
  10674  10677     1
  10675  10678     1
  10675  10677     1
  10679  10687     1
  10679  10695     1
  10679  10700     1
  10679  10688     1
  10680  10686     1
  10680  10694     1
  10680  10697     1
  10680  10698     1
  10681  10683     1
  10681  10692     1
  10681  10682     1
  10681  10699     1
  10681  10697     1
  10681  10698     1
  10681  10685     1
  10682  10684     1
  10682  10691     1
  10682  10687     1
  10682  10695     1
  10682  10693     1
  10682  10701     1
  10683  10688     1
  10683  10696     1
  10683  10695     1
  10684  10694     1
  10685  10696     1
  10685  10687     1
  10686  10689     1
  10686  10701     1
  10686  10688     1
  10686  10696     1
  10686  10691     1
  10686  10687     1
  10687  10690     1
  10687  10694     1
  10687  10692     1
  10688  10690     1
  10697  10700     1
  10697  10701     1
  10698  10700     1
  10698  10701     1
  10702  10710     1
  10702  10718     1
  10702  10723     1
  10702  10711     1
  10703  10720     1
  10703  10721     1
  10703  10709     1
  10703  10717     1
  10704  10706     1
  10704  10715     1
  10704  10705     1
  10704  10722     1
  10704  10720     1
  10704  10721     1
  10704  10708     1
  10705  10716     1
  10705  10724     1
  10705  10707     1
  10705  10714     1
  10705  10710     1
  10705  10718     1
  10706  10718     1
  10706  10711     1
  10706  10719     1
  10707  10717     1
  10708  10710     1
  10708  10719     1
  10709  10714     1
  10709  10710     1
  10709  10712     1
  10709  10724     1
  10709  10711     1
  10709  10719     1
  10710  10715     1
  10710  10713     1
  10710  10717     1
  10711  10713     1
  10720  10724     1
  10720  10723     1
  10721  10724     1
  10721  10723     1
  10725  10733     1
  10725  10741     1
  10725  10746     1
  10725  10734     1
  10726  10732     1
  10726  10740     1
  10726  10743     1
  10726  10744     1
  10727  10729     1
  10727  10738     1
  10727  10728     1
  10727  10745     1
  10727  10743     1
  10727  10744     1
  10727  10731     1
  10728  10730     1
  10728  10737     1
  10728  10733     1
  10728  10741     1
  10728  10739     1
  10728  10747     1
  10729  10734     1
  10729  10742     1
  10729  10741     1
  10730  10740     1
  10731  10742     1
  10731  10733     1
  10732  10735     1
  10732  10747     1
  10732  10734     1
  10732  10742     1
  10732  10737     1
  10732  10733     1
  10733  10736     1
  10733  10740     1
  10733  10738     1
  10734  10736     1
  10743  10746     1
  10743  10747     1
  10744  10746     1
  10744  10747     1
  10748  10756     1
  10748  10764     1
  10748  10769     1
  10748  10757     1
  10749  10766     1
  10749  10767     1
  10749  10755     1
  10749  10763     1
  10750  10752     1
  10750  10761     1
  10750  10751     1
  10750  10768     1
  10750  10766     1
  10750  10767     1
  10750  10754     1
  10751  10762     1
  10751  10770     1
  10751  10753     1
  10751  10760     1
  10751  10756     1
  10751  10764     1
  10752  10764     1
  10752  10757     1
  10752  10765     1
  10753  10763     1
  10754  10756     1
  10754  10765     1
  10755  10760     1
  10755  10756     1
  10755  10758     1
  10755  10770     1
  10755  10757     1
  10755  10765     1
  10756  10761     1
  10756  10759     1
  10756  10763     1
  10757  10759     1
  10766  10770     1
  10766  10769     1
  10767  10770     1
  10767  10769     1
  10771  10779     1
  10771  10787     1
  10771  10792     1
  10771  10780     1
  10772  10778     1
  10772  10786     1
  10772  10789     1
  10772  10790     1
  10773  10775     1
  10773  10784     1
  10773  10774     1
  10773  10791     1
  10773  10789     1
  10773  10790     1
  10773  10777     1
  10774  10776     1
  10774  10783     1
  10774  10779     1
  10774  10787     1
  10774  10785     1
  10774  10793     1
  10775  10780     1
  10775  10788     1
  10775  10787     1
  10776  10786     1
  10777  10788     1
  10777  10779     1
  10778  10781     1
  10778  10793     1
  10778  10780     1
  10778  10788     1
  10778  10783     1
  10778  10779     1
  10779  10782     1
  10779  10786     1
  10779  10784     1
  10780  10782     1
  10789  10792     1
  10789  10793     1
  10790  10792     1
  10790  10793     1
  10794  10802     1
  10794  10810     1
  10794  10815     1
  10794  10803     1
  10795  10812     1
  10795  10813     1
  10795  10801     1
  10795  10809     1
  10796  10798     1
  10796  10807     1
  10796  10797     1
  10796  10814     1
  10796  10812     1
  10796  10813     1
  10796  10800     1
  10797  10808     1
  10797  10816     1
  10797  10799     1
  10797  10806     1
  10797  10802     1
  10797  10810     1
  10798  10810     1
  10798  10803     1
  10798  10811     1
  10799  10809     1
  10800  10802     1
  10800  10811     1
  10801  10806     1
  10801  10802     1
  10801  10804     1
  10801  10816     1
  10801  10803     1
  10801  10811     1
  10802  10807     1
  10802  10805     1
  10802  10809     1
  10803  10805     1
  10812  10816     1
  10812  10815     1
  10813  10816     1
  10813  10815     1
  10817  10825     1
  10817  10833     1
  10817  10838     1
  10817  10826     1
  10818  10824     1
  10818  10832     1
  10818  10835     1
  10818  10836     1
  10819  10821     1
  10819  10830     1
  10819  10820     1
  10819  10837     1
  10819  10835     1
  10819  10836     1
  10819  10823     1
  10820  10822     1
  10820  10829     1
  10820  10825     1
  10820  10833     1
  10820  10831     1
  10820  10839     1
  10821  10826     1
  10821  10834     1
  10821  10833     1
  10822  10832     1
  10823  10834     1
  10823  10825     1
  10824  10827     1
  10824  10839     1
  10824  10826     1
  10824  10834     1
  10824  10829     1
  10824  10825     1
  10825  10828     1
  10825  10832     1
  10825  10830     1
  10826  10828     1
  10835  10838     1
  10835  10839     1
  10836  10838     1
  10836  10839     1
  10840  10848     1
  10840  10856     1
  10840  10861     1
  10840  10849     1
  10841  10858     1
  10841  10859     1
  10841  10847     1
  10841  10855     1
  10842  10844     1
  10842  10853     1
  10842  10843     1
  10842  10860     1
  10842  10858     1
  10842  10859     1
  10842  10846     1
  10843  10854     1
  10843  10862     1
  10843  10845     1
  10843  10852     1
  10843  10848     1
  10843  10856     1
  10844  10856     1
  10844  10849     1
  10844  10857     1
  10845  10855     1
  10846  10848     1
  10846  10857     1
  10847  10852     1
  10847  10848     1
  10847  10850     1
  10847  10862     1
  10847  10849     1
  10847  10857     1
  10848  10853     1
  10848  10851     1
  10848  10855     1
  10849  10851     1
  10858  10862     1
  10858  10861     1
  10859  10862     1
  10859  10861     1
  10863  10871     1
  10863  10879     1
  10863  10884     1
  10863  10872     1
  10864  10870     1
  10864  10878     1
  10864  10881     1
  10864  10882     1
  10865  10867     1
  10865  10876     1
  10865  10866     1
  10865  10883     1
  10865  10881     1
  10865  10882     1
  10865  10869     1
  10866  10868     1
  10866  10875     1
  10866  10871     1
  10866  10879     1
  10866  10877     1
  10866  10885     1
  10867  10872     1
  10867  10880     1
  10867  10879     1
  10868  10878     1
  10869  10880     1
  10869  10871     1
  10870  10873     1
  10870  10885     1
  10870  10872     1
  10870  10880     1
  10870  10875     1
  10870  10871     1
  10871  10874     1
  10871  10878     1
  10871  10876     1
  10872  10874     1
  10881  10884     1
  10881  10885     1
  10882  10884     1
  10882  10885     1
  10886  10894     1
  10886  10902     1
  10886  10907     1
  10886  10895     1
  10887  10904     1
  10887  10905     1
  10887  10893     1
  10887  10901     1
  10888  10890     1
  10888  10899     1
  10888  10889     1
  10888  10906     1
  10888  10904     1
  10888  10905     1
  10888  10892     1
  10889  10900     1
  10889  10908     1
  10889  10891     1
  10889  10898     1
  10889  10894     1
  10889  10902     1
  10890  10902     1
  10890  10895     1
  10890  10903     1
  10891  10901     1
  10892  10894     1
  10892  10903     1
  10893  10898     1
  10893  10894     1
  10893  10896     1
  10893  10908     1
  10893  10895     1
  10893  10903     1
  10894  10899     1
  10894  10897     1
  10894  10901     1
  10895  10897     1
  10904  10908     1
  10904  10907     1
  10905  10908     1
  10905  10907     1
  10909  10917     1
  10909  10925     1
  10909  10930     1
  10909  10918     1
  10910  10916     1
  10910  10924     1
  10910  10927     1
  10910  10928     1
  10911  10913     1
  10911  10922     1
  10911  10912     1
  10911  10929     1
  10911  10927     1
  10911  10928     1
  10911  10915     1
  10912  10914     1
  10912  10921     1
  10912  10917     1
  10912  10925     1
  10912  10923     1
  10912  10931     1
  10913  10918     1
  10913  10926     1
  10913  10925     1
  10914  10924     1
  10915  10926     1
  10915  10917     1
  10916  10919     1
  10916  10931     1
  10916  10918     1
  10916  10926     1
  10916  10921     1
  10916  10917     1
  10917  10920     1
  10917  10924     1
  10917  10922     1
  10918  10920     1
  10927  10930     1
  10927  10931     1
  10928  10930     1
  10928  10931     1
  10932  10940     1
  10932  10948     1
  10932  10953     1
  10932  10941     1
  10933  10950     1
  10933  10951     1
  10933  10939     1
  10933  10947     1
  10934  10936     1
  10934  10945     1
  10934  10935     1
  10934  10952     1
  10934  10950     1
  10934  10951     1
  10934  10938     1
  10935  10946     1
  10935  10954     1
  10935  10937     1
  10935  10944     1
  10935  10940     1
  10935  10948     1
  10936  10948     1
  10936  10941     1
  10936  10949     1
  10937  10947     1
  10938  10940     1
  10938  10949     1
  10939  10944     1
  10939  10940     1
  10939  10942     1
  10939  10954     1
  10939  10941     1
  10939  10949     1
  10940  10945     1
  10940  10943     1
  10940  10947     1
  10941  10943     1
  10950  10954     1
  10950  10953     1
  10951  10954     1
  10951  10953     1
  10955  10963     1
  10955  10971     1
  10955  10976     1
  10955  10964     1
  10956  10962     1
  10956  10970     1
  10956  10973     1
  10956  10974     1
  10957  10959     1
  10957  10968     1
  10957  10958     1
  10957  10975     1
  10957  10973     1
  10957  10974     1
  10957  10961     1
  10958  10960     1
  10958  10967     1
  10958  10963     1
  10958  10971     1
  10958  10969     1
  10958  10977     1
  10959  10964     1
  10959  10972     1
  10959  10971     1
  10960  10970     1
  10961  10972     1
  10961  10963     1
  10962  10965     1
  10962  10977     1
  10962  10964     1
  10962  10972     1
  10962  10967     1
  10962  10963     1
  10963  10966     1
  10963  10970     1
  10963  10968     1
  10964  10966     1
  10973  10976     1
  10973  10977     1
  10974  10976     1
  10974  10977     1
  10978  10986     1
  10978  10994     1
  10978  10999     1
  10978  10987     1
  10979  10996     1
  10979  10997     1
  10979  10985     1
  10979  10993     1
  10980  10982     1
  10980  10991     1
  10980  10981     1
  10980  10998     1
  10980  10996     1
  10980  10997     1
  10980  10984     1
  10981  10992     1
  10981  11000     1
  10981  10983     1
  10981  10990     1
  10981  10986     1
  10981  10994     1
  10982  10994     1
  10982  10987     1
  10982  10995     1
  10983  10993     1
  10984  10986     1
  10984  10995     1
  10985  10990     1
  10985  10986     1
  10985  10988     1
  10985  11000     1
  10985  10987     1
  10985  10995     1
  10986  10991     1
  10986  10989     1
  10986  10993     1
  10987  10989     1
  10996  11000     1
  10996  10999     1
  10997  11000     1
  10997  10999     1
  11001  11009     1
  11001  11017     1
  11001  11022     1
  11001  11010     1
  11002  11008     1
  11002  11016     1
  11002  11019     1
  11002  11020     1
  11003  11005     1
  11003  11014     1
  11003  11004     1
  11003  11021     1
  11003  11019     1
  11003  11020     1
  11003  11007     1
  11004  11006     1
  11004  11013     1
  11004  11009     1
  11004  11017     1
  11004  11015     1
  11004  11023     1
  11005  11010     1
  11005  11018     1
  11005  11017     1
  11006  11016     1
  11007  11018     1
  11007  11009     1
  11008  11011     1
  11008  11023     1
  11008  11010     1
  11008  11018     1
  11008  11013     1
  11008  11009     1
  11009  11012     1
  11009  11016     1
  11009  11014     1
  11010  11012     1
  11019  11022     1
  11019  11023     1
  11020  11022     1
  11020  11023     1
  11024  11032     1
  11024  11040     1
  11024  11045     1
  11024  11033     1
  11025  11042     1
  11025  11043     1
  11025  11031     1
  11025  11039     1
  11026  11028     1
  11026  11037     1
  11026  11027     1
  11026  11044     1
  11026  11042     1
  11026  11043     1
  11026  11030     1
  11027  11038     1
  11027  11046     1
  11027  11029     1
  11027  11036     1
  11027  11032     1
  11027  11040     1
  11028  11040     1
  11028  11033     1
  11028  11041     1
  11029  11039     1
  11030  11032     1
  11030  11041     1
  11031  11036     1
  11031  11032     1
  11031  11034     1
  11031  11046     1
  11031  11033     1
  11031  11041     1
  11032  11037     1
  11032  11035     1
  11032  11039     1
  11033  11035     1
  11042  11046     1
  11042  11045     1
  11043  11046     1
  11043  11045     1
  11047  11055     1
  11047  11063     1
  11047  11068     1
  11047  11056     1
  11048  11054     1
  11048  11062     1
  11048  11065     1
  11048  11066     1
  11049  11051     1
  11049  11060     1
  11049  11050     1
  11049  11067     1
  11049  11065     1
  11049  11066     1
  11049  11053     1
  11050  11052     1
  11050  11059     1
  11050  11055     1
  11050  11063     1
  11050  11061     1
  11050  11069     1
  11051  11056     1
  11051  11064     1
  11051  11063     1
  11052  11062     1
  11053  11064     1
  11053  11055     1
  11054  11057     1
  11054  11069     1
  11054  11056     1
  11054  11064     1
  11054  11059     1
  11054  11055     1
  11055  11058     1
  11055  11062     1
  11055  11060     1
  11056  11058     1
  11065  11068     1
  11065  11069     1
  11066  11068     1
  11066  11069     1
  11070  11078     1
  11070  11086     1
  11070  11091     1
  11070  11079     1
  11071  11088     1
  11071  11089     1
  11071  11077     1
  11071  11085     1
  11072  11074     1
  11072  11083     1
  11072  11073     1
  11072  11090     1
  11072  11088     1
  11072  11089     1
  11072  11076     1
  11073  11084     1
  11073  11092     1
  11073  11075     1
  11073  11082     1
  11073  11078     1
  11073  11086     1
  11074  11086     1
  11074  11079     1
  11074  11087     1
  11075  11085     1
  11076  11078     1
  11076  11087     1
  11077  11082     1
  11077  11078     1
  11077  11080     1
  11077  11092     1
  11077  11079     1
  11077  11087     1
  11078  11083     1
  11078  11081     1
  11078  11085     1
  11079  11081     1
  11088  11092     1
  11088  11091     1
  11089  11092     1
  11089  11091     1
  11093  11101     1
  11093  11109     1
  11093  11114     1
  11093  11102     1
  11094  11100     1
  11094  11108     1
  11094  11111     1
  11094  11112     1
  11095  11097     1
  11095  11106     1
  11095  11096     1
  11095  11113     1
  11095  11111     1
  11095  11112     1
  11095  11099     1
  11096  11098     1
  11096  11105     1
  11096  11101     1
  11096  11109     1
  11096  11107     1
  11096  11115     1
  11097  11102     1
  11097  11110     1
  11097  11109     1
  11098  11108     1
  11099  11110     1
  11099  11101     1
  11100  11103     1
  11100  11115     1
  11100  11102     1
  11100  11110     1
  11100  11105     1
  11100  11101     1
  11101  11104     1
  11101  11108     1
  11101  11106     1
  11102  11104     1
  11111  11114     1
  11111  11115     1
  11112  11114     1
  11112  11115     1
  11116  11124     1
  11116  11132     1
  11116  11137     1
  11116  11125     1
  11117  11134     1
  11117  11135     1
  11117  11123     1
  11117  11131     1
  11118  11120     1
  11118  11129     1
  11118  11119     1
  11118  11136     1
  11118  11134     1
  11118  11135     1
  11118  11122     1
  11119  11130     1
  11119  11138     1
  11119  11121     1
  11119  11128     1
  11119  11124     1
  11119  11132     1
  11120  11132     1
  11120  11125     1
  11120  11133     1
  11121  11131     1
  11122  11124     1
  11122  11133     1
  11123  11128     1
  11123  11124     1
  11123  11126     1
  11123  11138     1
  11123  11125     1
  11123  11133     1
  11124  11129     1
  11124  11127     1
  11124  11131     1
  11125  11127     1
  11134  11138     1
  11134  11137     1
  11135  11138     1
  11135  11137     1
  11139  11147     1
  11139  11155     1
  11139  11160     1
  11139  11148     1
  11140  11146     1
  11140  11154     1
  11140  11157     1
  11140  11158     1
  11141  11143     1
  11141  11152     1
  11141  11142     1
  11141  11159     1
  11141  11157     1
  11141  11158     1
  11141  11145     1
  11142  11144     1
  11142  11151     1
  11142  11147     1
  11142  11155     1
  11142  11153     1
  11142  11161     1
  11143  11148     1
  11143  11156     1
  11143  11155     1
  11144  11154     1
  11145  11156     1
  11145  11147     1
  11146  11149     1
  11146  11161     1
  11146  11148     1
  11146  11156     1
  11146  11151     1
  11146  11147     1
  11147  11150     1
  11147  11154     1
  11147  11152     1
  11148  11150     1
  11157  11160     1
  11157  11161     1
  11158  11160     1
  11158  11161     1
  11162  11170     1
  11162  11178     1
  11162  11183     1
  11162  11171     1
  11163  11180     1
  11163  11181     1
  11163  11169     1
  11163  11177     1
  11164  11166     1
  11164  11175     1
  11164  11165     1
  11164  11182     1
  11164  11180     1
  11164  11181     1
  11164  11168     1
  11165  11176     1
  11165  11184     1
  11165  11167     1
  11165  11174     1
  11165  11170     1
  11165  11178     1
  11166  11178     1
  11166  11171     1
  11166  11179     1
  11167  11177     1
  11168  11170     1
  11168  11179     1
  11169  11174     1
  11169  11170     1
  11169  11172     1
  11169  11184     1
  11169  11171     1
  11169  11179     1
  11170  11175     1
  11170  11173     1
  11170  11177     1
  11171  11173     1
  11180  11184     1
  11180  11183     1
  11181  11184     1
  11181  11183     1
  11185  11193     1
  11185  11201     1
  11185  11206     1
  11185  11194     1
  11186  11192     1
  11186  11200     1
  11186  11203     1
  11186  11204     1
  11187  11189     1
  11187  11198     1
  11187  11188     1
  11187  11205     1
  11187  11203     1
  11187  11204     1
  11187  11191     1
  11188  11190     1
  11188  11197     1
  11188  11193     1
  11188  11201     1
  11188  11199     1
  11188  11207     1
  11189  11194     1
  11189  11202     1
  11189  11201     1
  11190  11200     1
  11191  11202     1
  11191  11193     1
  11192  11195     1
  11192  11207     1
  11192  11194     1
  11192  11202     1
  11192  11197     1
  11192  11193     1
  11193  11196     1
  11193  11200     1
  11193  11198     1
  11194  11196     1
  11203  11206     1
  11203  11207     1
  11204  11206     1
  11204  11207     1
  11208  11216     1
  11208  11224     1
  11208  11229     1
  11208  11217     1
  11209  11226     1
  11209  11227     1
  11209  11215     1
  11209  11223     1
  11210  11212     1
  11210  11221     1
  11210  11211     1
  11210  11228     1
  11210  11226     1
  11210  11227     1
  11210  11214     1
  11211  11222     1
  11211  11230     1
  11211  11213     1
  11211  11220     1
  11211  11216     1
  11211  11224     1
  11212  11224     1
  11212  11217     1
  11212  11225     1
  11213  11223     1
  11214  11216     1
  11214  11225     1
  11215  11220     1
  11215  11216     1
  11215  11218     1
  11215  11230     1
  11215  11217     1
  11215  11225     1
  11216  11221     1
  11216  11219     1
  11216  11223     1
  11217  11219     1
  11226  11230     1
  11226  11229     1
  11227  11230     1
  11227  11229     1
  11231  11239     1
  11231  11247     1
  11231  11252     1
  11231  11240     1
  11232  11238     1
  11232  11246     1
  11232  11249     1
  11232  11250     1
  11233  11235     1
  11233  11244     1
  11233  11234     1
  11233  11251     1
  11233  11249     1
  11233  11250     1
  11233  11237     1
  11234  11236     1
  11234  11243     1
  11234  11239     1
  11234  11247     1
  11234  11245     1
  11234  11253     1
  11235  11240     1
  11235  11248     1
  11235  11247     1
  11236  11246     1
  11237  11248     1
  11237  11239     1
  11238  11241     1
  11238  11253     1
  11238  11240     1
  11238  11248     1
  11238  11243     1
  11238  11239     1
  11239  11242     1
  11239  11246     1
  11239  11244     1
  11240  11242     1
  11249  11252     1
  11249  11253     1
  11250  11252     1
  11250  11253     1
  11254  11262     1
  11254  11270     1
  11254  11275     1
  11254  11263     1
  11255  11272     1
  11255  11273     1
  11255  11261     1
  11255  11269     1
  11256  11258     1
  11256  11267     1
  11256  11257     1
  11256  11274     1
  11256  11272     1
  11256  11273     1
  11256  11260     1
  11257  11268     1
  11257  11276     1
  11257  11259     1
  11257  11266     1
  11257  11262     1
  11257  11270     1
  11258  11270     1
  11258  11263     1
  11258  11271     1
  11259  11269     1
  11260  11262     1
  11260  11271     1
  11261  11266     1
  11261  11262     1
  11261  11264     1
  11261  11276     1
  11261  11263     1
  11261  11271     1
  11262  11267     1
  11262  11265     1
  11262  11269     1
  11263  11265     1
  11272  11276     1
  11272  11275     1
  11273  11276     1
  11273  11275     1
  11277  11285     1
  11277  11293     1
  11277  11298     1
  11277  11286     1
  11278  11284     1
  11278  11292     1
  11278  11295     1
  11278  11296     1
  11279  11281     1
  11279  11290     1
  11279  11280     1
  11279  11297     1
  11279  11295     1
  11279  11296     1
  11279  11283     1
  11280  11282     1
  11280  11289     1
  11280  11285     1
  11280  11293     1
  11280  11291     1
  11280  11299     1
  11281  11286     1
  11281  11294     1
  11281  11293     1
  11282  11292     1
  11283  11294     1
  11283  11285     1
  11284  11287     1
  11284  11299     1
  11284  11286     1
  11284  11294     1
  11284  11289     1
  11284  11285     1
  11285  11288     1
  11285  11292     1
  11285  11290     1
  11286  11288     1
  11295  11298     1
  11295  11299     1
  11296  11298     1
  11296  11299     1
  11300  11308     1
  11300  11316     1
  11300  11321     1
  11300  11309     1
  11301  11318     1
  11301  11319     1
  11301  11307     1
  11301  11315     1
  11302  11304     1
  11302  11313     1
  11302  11303     1
  11302  11320     1
  11302  11318     1
  11302  11319     1
  11302  11306     1
  11303  11314     1
  11303  11322     1
  11303  11305     1
  11303  11312     1
  11303  11308     1
  11303  11316     1
  11304  11316     1
  11304  11309     1
  11304  11317     1
  11305  11315     1
  11306  11308     1
  11306  11317     1
  11307  11312     1
  11307  11308     1
  11307  11310     1
  11307  11322     1
  11307  11309     1
  11307  11317     1
  11308  11313     1
  11308  11311     1
  11308  11315     1
  11309  11311     1
  11318  11322     1
  11318  11321     1
  11319  11322     1
  11319  11321     1
  11323  11331     1
  11323  11339     1
  11323  11344     1
  11323  11332     1
  11324  11330     1
  11324  11338     1
  11324  11341     1
  11324  11342     1
  11325  11327     1
  11325  11336     1
  11325  11326     1
  11325  11343     1
  11325  11341     1
  11325  11342     1
  11325  11329     1
  11326  11328     1
  11326  11335     1
  11326  11331     1
  11326  11339     1
  11326  11337     1
  11326  11345     1
  11327  11332     1
  11327  11340     1
  11327  11339     1
  11328  11338     1
  11329  11340     1
  11329  11331     1
  11330  11333     1
  11330  11345     1
  11330  11332     1
  11330  11340     1
  11330  11335     1
  11330  11331     1
  11331  11334     1
  11331  11338     1
  11331  11336     1
  11332  11334     1
  11341  11344     1
  11341  11345     1
  11342  11344     1
  11342  11345     1
  11346  11354     1
  11346  11362     1
  11346  11367     1
  11346  11355     1
  11347  11364     1
  11347  11365     1
  11347  11353     1
  11347  11361     1
  11348  11350     1
  11348  11359     1
  11348  11349     1
  11348  11366     1
  11348  11364     1
  11348  11365     1
  11348  11352     1
  11349  11360     1
  11349  11368     1
  11349  11351     1
  11349  11358     1
  11349  11354     1
  11349  11362     1
  11350  11362     1
  11350  11355     1
  11350  11363     1
  11351  11361     1
  11352  11354     1
  11352  11363     1
  11353  11358     1
  11353  11354     1
  11353  11356     1
  11353  11368     1
  11353  11355     1
  11353  11363     1
  11354  11359     1
  11354  11357     1
  11354  11361     1
  11355  11357     1
  11364  11368     1
  11364  11367     1
  11365  11368     1
  11365  11367     1
  11369  11377     1
  11369  11385     1
  11369  11390     1
  11369  11378     1
  11370  11376     1
  11370  11384     1
  11370  11387     1
  11370  11388     1
  11371  11373     1
  11371  11382     1
  11371  11372     1
  11371  11389     1
  11371  11387     1
  11371  11388     1
  11371  11375     1
  11372  11374     1
  11372  11381     1
  11372  11377     1
  11372  11385     1
  11372  11383     1
  11372  11391     1
  11373  11378     1
  11373  11386     1
  11373  11385     1
  11374  11384     1
  11375  11386     1
  11375  11377     1
  11376  11379     1
  11376  11391     1
  11376  11378     1
  11376  11386     1
  11376  11381     1
  11376  11377     1
  11377  11380     1
  11377  11384     1
  11377  11382     1
  11378  11380     1
  11387  11390     1
  11387  11391     1
  11388  11390     1
  11388  11391     1
  11392  11400     1
  11392  11408     1
  11392  11413     1
  11392  11401     1
  11393  11410     1
  11393  11411     1
  11393  11399     1
  11393  11407     1
  11394  11396     1
  11394  11405     1
  11394  11395     1
  11394  11412     1
  11394  11410     1
  11394  11411     1
  11394  11398     1
  11395  11406     1
  11395  11414     1
  11395  11397     1
  11395  11404     1
  11395  11400     1
  11395  11408     1
  11396  11408     1
  11396  11401     1
  11396  11409     1
  11397  11407     1
  11398  11400     1
  11398  11409     1
  11399  11404     1
  11399  11400     1
  11399  11402     1
  11399  11414     1
  11399  11401     1
  11399  11409     1
  11400  11405     1
  11400  11403     1
  11400  11407     1
  11401  11403     1
  11410  11414     1
  11410  11413     1
  11411  11414     1
  11411  11413     1
  11415  11423     1
  11415  11431     1
  11415  11436     1
  11415  11424     1
  11416  11422     1
  11416  11430     1
  11416  11433     1
  11416  11434     1
  11417  11419     1
  11417  11428     1
  11417  11418     1
  11417  11435     1
  11417  11433     1
  11417  11434     1
  11417  11421     1
  11418  11420     1
  11418  11427     1
  11418  11423     1
  11418  11431     1
  11418  11429     1
  11418  11437     1
  11419  11424     1
  11419  11432     1
  11419  11431     1
  11420  11430     1
  11421  11432     1
  11421  11423     1
  11422  11425     1
  11422  11437     1
  11422  11424     1
  11422  11432     1
  11422  11427     1
  11422  11423     1
  11423  11426     1
  11423  11430     1
  11423  11428     1
  11424  11426     1
  11433  11436     1
  11433  11437     1
  11434  11436     1
  11434  11437     1
  11438  11446     1
  11438  11454     1
  11438  11459     1
  11438  11447     1
  11439  11456     1
  11439  11457     1
  11439  11445     1
  11439  11453     1
  11440  11442     1
  11440  11451     1
  11440  11441     1
  11440  11458     1
  11440  11456     1
  11440  11457     1
  11440  11444     1
  11441  11452     1
  11441  11460     1
  11441  11443     1
  11441  11450     1
  11441  11446     1
  11441  11454     1
  11442  11454     1
  11442  11447     1
  11442  11455     1
  11443  11453     1
  11444  11446     1
  11444  11455     1
  11445  11450     1
  11445  11446     1
  11445  11448     1
  11445  11460     1
  11445  11447     1
  11445  11455     1
  11446  11451     1
  11446  11449     1
  11446  11453     1
  11447  11449     1
  11456  11460     1
  11456  11459     1
  11457  11460     1
  11457  11459     1
  11461  11469     1
  11461  11477     1
  11461  11482     1
  11461  11470     1
  11462  11468     1
  11462  11476     1
  11462  11479     1
  11462  11480     1
  11463  11465     1
  11463  11474     1
  11463  11464     1
  11463  11481     1
  11463  11479     1
  11463  11480     1
  11463  11467     1
  11464  11466     1
  11464  11473     1
  11464  11469     1
  11464  11477     1
  11464  11475     1
  11464  11483     1
  11465  11470     1
  11465  11478     1
  11465  11477     1
  11466  11476     1
  11467  11478     1
  11467  11469     1
  11468  11471     1
  11468  11483     1
  11468  11470     1
  11468  11478     1
  11468  11473     1
  11468  11469     1
  11469  11472     1
  11469  11476     1
  11469  11474     1
  11470  11472     1
  11479  11482     1
  11479  11483     1
  11480  11482     1
  11480  11483     1
  11484  11492     1
  11484  11500     1
  11484  11505     1
  11484  11493     1
  11485  11502     1
  11485  11503     1
  11485  11491     1
  11485  11499     1
  11486  11488     1
  11486  11497     1
  11486  11487     1
  11486  11504     1
  11486  11502     1
  11486  11503     1
  11486  11490     1
  11487  11498     1
  11487  11506     1
  11487  11489     1
  11487  11496     1
  11487  11492     1
  11487  11500     1
  11488  11500     1
  11488  11493     1
  11488  11501     1
  11489  11499     1
  11490  11492     1
  11490  11501     1
  11491  11496     1
  11491  11492     1
  11491  11494     1
  11491  11506     1
  11491  11493     1
  11491  11501     1
  11492  11497     1
  11492  11495     1
  11492  11499     1
  11493  11495     1
  11502  11506     1
  11502  11505     1
  11503  11506     1
  11503  11505     1
  11507  11515     1
  11507  11523     1
  11507  11528     1
  11507  11516     1
  11508  11514     1
  11508  11522     1
  11508  11525     1
  11508  11526     1
  11509  11511     1
  11509  11520     1
  11509  11510     1
  11509  11527     1
  11509  11525     1
  11509  11526     1
  11509  11513     1
  11510  11512     1
  11510  11519     1
  11510  11515     1
  11510  11523     1
  11510  11521     1
  11510  11529     1
  11511  11516     1
  11511  11524     1
  11511  11523     1
  11512  11522     1
  11513  11524     1
  11513  11515     1
  11514  11517     1
  11514  11529     1
  11514  11516     1
  11514  11524     1
  11514  11519     1
  11514  11515     1
  11515  11518     1
  11515  11522     1
  11515  11520     1
  11516  11518     1
  11525  11528     1
  11525  11529     1
  11526  11528     1
  11526  11529     1
  11530  11538     1
  11530  11546     1
  11530  11551     1
  11530  11539     1
  11531  11548     1
  11531  11549     1
  11531  11537     1
  11531  11545     1
  11532  11534     1
  11532  11543     1
  11532  11533     1
  11532  11550     1
  11532  11548     1
  11532  11549     1
  11532  11536     1
  11533  11544     1
  11533  11552     1
  11533  11535     1
  11533  11542     1
  11533  11538     1
  11533  11546     1
  11534  11546     1
  11534  11539     1
  11534  11547     1
  11535  11545     1
  11536  11538     1
  11536  11547     1
  11537  11542     1
  11537  11538     1
  11537  11540     1
  11537  11552     1
  11537  11539     1
  11537  11547     1
  11538  11543     1
  11538  11541     1
  11538  11545     1
  11539  11541     1
  11548  11552     1
  11548  11551     1
  11549  11552     1
  11549  11551     1
  11553  11561     1
  11553  11569     1
  11553  11574     1
  11553  11562     1
  11554  11560     1
  11554  11568     1
  11554  11571     1
  11554  11572     1
  11555  11557     1
  11555  11566     1
  11555  11556     1
  11555  11573     1
  11555  11571     1
  11555  11572     1
  11555  11559     1
  11556  11558     1
  11556  11565     1
  11556  11561     1
  11556  11569     1
  11556  11567     1
  11556  11575     1
  11557  11562     1
  11557  11570     1
  11557  11569     1
  11558  11568     1
  11559  11570     1
  11559  11561     1
  11560  11563     1
  11560  11575     1
  11560  11562     1
  11560  11570     1
  11560  11565     1
  11560  11561     1
  11561  11564     1
  11561  11568     1
  11561  11566     1
  11562  11564     1
  11571  11574     1
  11571  11575     1
  11572  11574     1
  11572  11575     1
  11576  11584     1
  11576  11592     1
  11576  11597     1
  11576  11585     1
  11577  11594     1
  11577  11595     1
  11577  11583     1
  11577  11591     1
  11578  11580     1
  11578  11589     1
  11578  11579     1
  11578  11596     1
  11578  11594     1
  11578  11595     1
  11578  11582     1
  11579  11590     1
  11579  11598     1
  11579  11581     1
  11579  11588     1
  11579  11584     1
  11579  11592     1
  11580  11592     1
  11580  11585     1
  11580  11593     1
  11581  11591     1
  11582  11584     1
  11582  11593     1
  11583  11588     1
  11583  11584     1
  11583  11586     1
  11583  11598     1
  11583  11585     1
  11583  11593     1
  11584  11589     1
  11584  11587     1
  11584  11591     1
  11585  11587     1
  11594  11598     1
  11594  11597     1
  11595  11598     1
  11595  11597     1
  11599  11607     1
  11599  11615     1
  11599  11620     1
  11599  11608     1
  11600  11606     1
  11600  11614     1
  11600  11617     1
  11600  11618     1
  11601  11603     1
  11601  11612     1
  11601  11602     1
  11601  11619     1
  11601  11617     1
  11601  11618     1
  11601  11605     1
  11602  11604     1
  11602  11611     1
  11602  11607     1
  11602  11615     1
  11602  11613     1
  11602  11621     1
  11603  11608     1
  11603  11616     1
  11603  11615     1
  11604  11614     1
  11605  11616     1
  11605  11607     1
  11606  11609     1
  11606  11621     1
  11606  11608     1
  11606  11616     1
  11606  11611     1
  11606  11607     1
  11607  11610     1
  11607  11614     1
  11607  11612     1
  11608  11610     1
  11617  11620     1
  11617  11621     1
  11618  11620     1
  11618  11621     1
  11622  11630     1
  11622  11638     1
  11622  11643     1
  11622  11631     1
  11623  11640     1
  11623  11641     1
  11623  11629     1
  11623  11637     1
  11624  11626     1
  11624  11635     1
  11624  11625     1
  11624  11642     1
  11624  11640     1
  11624  11641     1
  11624  11628     1
  11625  11636     1
  11625  11644     1
  11625  11627     1
  11625  11634     1
  11625  11630     1
  11625  11638     1
  11626  11638     1
  11626  11631     1
  11626  11639     1
  11627  11637     1
  11628  11630     1
  11628  11639     1
  11629  11634     1
  11629  11630     1
  11629  11632     1
  11629  11644     1
  11629  11631     1
  11629  11639     1
  11630  11635     1
  11630  11633     1
  11630  11637     1
  11631  11633     1
  11640  11644     1
  11640  11643     1
  11641  11644     1
  11641  11643     1
  11645  11653     1
  11645  11661     1
  11645  11666     1
  11645  11654     1
  11646  11652     1
  11646  11660     1
  11646  11663     1
  11646  11664     1
  11647  11649     1
  11647  11658     1
  11647  11648     1
  11647  11665     1
  11647  11663     1
  11647  11664     1
  11647  11651     1
  11648  11650     1
  11648  11657     1
  11648  11653     1
  11648  11661     1
  11648  11659     1
  11648  11667     1
  11649  11654     1
  11649  11662     1
  11649  11661     1
  11650  11660     1
  11651  11662     1
  11651  11653     1
  11652  11655     1
  11652  11667     1
  11652  11654     1
  11652  11662     1
  11652  11657     1
  11652  11653     1
  11653  11656     1
  11653  11660     1
  11653  11658     1
  11654  11656     1
  11663  11666     1
  11663  11667     1
  11664  11666     1
  11664  11667     1
  11668  11676     1
  11668  11684     1
  11668  11689     1
  11668  11677     1
  11669  11686     1
  11669  11687     1
  11669  11675     1
  11669  11683     1
  11670  11672     1
  11670  11681     1
  11670  11671     1
  11670  11688     1
  11670  11686     1
  11670  11687     1
  11670  11674     1
  11671  11682     1
  11671  11690     1
  11671  11673     1
  11671  11680     1
  11671  11676     1
  11671  11684     1
  11672  11684     1
  11672  11677     1
  11672  11685     1
  11673  11683     1
  11674  11676     1
  11674  11685     1
  11675  11680     1
  11675  11676     1
  11675  11678     1
  11675  11690     1
  11675  11677     1
  11675  11685     1
  11676  11681     1
  11676  11679     1
  11676  11683     1
  11677  11679     1
  11686  11690     1
  11686  11689     1
  11687  11690     1
  11687  11689     1
  11691  11699     1
  11691  11707     1
  11691  11712     1
  11691  11700     1
  11692  11698     1
  11692  11706     1
  11692  11709     1
  11692  11710     1
  11693  11695     1
  11693  11704     1
  11693  11694     1
  11693  11711     1
  11693  11709     1
  11693  11710     1
  11693  11697     1
  11694  11696     1
  11694  11703     1
  11694  11699     1
  11694  11707     1
  11694  11705     1
  11694  11713     1
  11695  11700     1
  11695  11708     1
  11695  11707     1
  11696  11706     1
  11697  11708     1
  11697  11699     1
  11698  11701     1
  11698  11713     1
  11698  11700     1
  11698  11708     1
  11698  11703     1
  11698  11699     1
  11699  11702     1
  11699  11706     1
  11699  11704     1
  11700  11702     1
  11709  11712     1
  11709  11713     1
  11710  11712     1
  11710  11713     1
  11714  11722     1
  11714  11730     1
  11714  11735     1
  11714  11723     1
  11715  11732     1
  11715  11733     1
  11715  11721     1
  11715  11729     1
  11716  11718     1
  11716  11727     1
  11716  11717     1
  11716  11734     1
  11716  11732     1
  11716  11733     1
  11716  11720     1
  11717  11728     1
  11717  11736     1
  11717  11719     1
  11717  11726     1
  11717  11722     1
  11717  11730     1
  11718  11730     1
  11718  11723     1
  11718  11731     1
  11719  11729     1
  11720  11722     1
  11720  11731     1
  11721  11726     1
  11721  11722     1
  11721  11724     1
  11721  11736     1
  11721  11723     1
  11721  11731     1
  11722  11727     1
  11722  11725     1
  11722  11729     1
  11723  11725     1
  11732  11736     1
  11732  11735     1
  11733  11736     1
  11733  11735     1
  11737  11745     1
  11737  11753     1
  11737  11758     1
  11737  11746     1
  11738  11744     1
  11738  11752     1
  11738  11755     1
  11738  11756     1
  11739  11741     1
  11739  11750     1
  11739  11740     1
  11739  11757     1
  11739  11755     1
  11739  11756     1
  11739  11743     1
  11740  11742     1
  11740  11749     1
  11740  11745     1
  11740  11753     1
  11740  11751     1
  11740  11759     1
  11741  11746     1
  11741  11754     1
  11741  11753     1
  11742  11752     1
  11743  11754     1
  11743  11745     1
  11744  11747     1
  11744  11759     1
  11744  11746     1
  11744  11754     1
  11744  11749     1
  11744  11745     1
  11745  11748     1
  11745  11752     1
  11745  11750     1
  11746  11748     1
  11755  11758     1
  11755  11759     1
  11756  11758     1
  11756  11759     1
  11760  11768     1
  11760  11776     1
  11760  11781     1
  11760  11769     1
  11761  11778     1
  11761  11779     1
  11761  11767     1
  11761  11775     1
  11762  11764     1
  11762  11773     1
  11762  11763     1
  11762  11780     1
  11762  11778     1
  11762  11779     1
  11762  11766     1
  11763  11774     1
  11763  11782     1
  11763  11765     1
  11763  11772     1
  11763  11768     1
  11763  11776     1
  11764  11776     1
  11764  11769     1
  11764  11777     1
  11765  11775     1
  11766  11768     1
  11766  11777     1
  11767  11772     1
  11767  11768     1
  11767  11770     1
  11767  11782     1
  11767  11769     1
  11767  11777     1
  11768  11773     1
  11768  11771     1
  11768  11775     1
  11769  11771     1
  11778  11782     1
  11778  11781     1
  11779  11782     1
  11779  11781     1
  11783  11791     1
  11783  11799     1
  11783  11804     1
  11783  11792     1
  11784  11790     1
  11784  11798     1
  11784  11801     1
  11784  11802     1
  11785  11787     1
  11785  11796     1
  11785  11786     1
  11785  11803     1
  11785  11801     1
  11785  11802     1
  11785  11789     1
  11786  11788     1
  11786  11795     1
  11786  11791     1
  11786  11799     1
  11786  11797     1
  11786  11805     1
  11787  11792     1
  11787  11800     1
  11787  11799     1
  11788  11798     1
  11789  11800     1
  11789  11791     1
  11790  11793     1
  11790  11805     1
  11790  11792     1
  11790  11800     1
  11790  11795     1
  11790  11791     1
  11791  11794     1
  11791  11798     1
  11791  11796     1
  11792  11794     1
  11801  11804     1
  11801  11805     1
  11802  11804     1
  11802  11805     1
  11806  11814     1
  11806  11822     1
  11806  11827     1
  11806  11815     1
  11807  11824     1
  11807  11825     1
  11807  11813     1
  11807  11821     1
  11808  11810     1
  11808  11819     1
  11808  11809     1
  11808  11826     1
  11808  11824     1
  11808  11825     1
  11808  11812     1
  11809  11820     1
  11809  11828     1
  11809  11811     1
  11809  11818     1
  11809  11814     1
  11809  11822     1
  11810  11822     1
  11810  11815     1
  11810  11823     1
  11811  11821     1
  11812  11814     1
  11812  11823     1
  11813  11818     1
  11813  11814     1
  11813  11816     1
  11813  11828     1
  11813  11815     1
  11813  11823     1
  11814  11819     1
  11814  11817     1
  11814  11821     1
  11815  11817     1
  11824  11828     1
  11824  11827     1
  11825  11828     1
  11825  11827     1
  11829  11837     1
  11829  11845     1
  11829  11850     1
  11829  11838     1
  11830  11836     1
  11830  11844     1
  11830  11847     1
  11830  11848     1
  11831  11833     1
  11831  11842     1
  11831  11832     1
  11831  11849     1
  11831  11847     1
  11831  11848     1
  11831  11835     1
  11832  11834     1
  11832  11841     1
  11832  11837     1
  11832  11845     1
  11832  11843     1
  11832  11851     1
  11833  11838     1
  11833  11846     1
  11833  11845     1
  11834  11844     1
  11835  11846     1
  11835  11837     1
  11836  11839     1
  11836  11851     1
  11836  11838     1
  11836  11846     1
  11836  11841     1
  11836  11837     1
  11837  11840     1
  11837  11844     1
  11837  11842     1
  11838  11840     1
  11847  11850     1
  11847  11851     1
  11848  11850     1
  11848  11851     1
  11852  11860     1
  11852  11868     1
  11852  11873     1
  11852  11861     1
  11853  11870     1
  11853  11871     1
  11853  11859     1
  11853  11867     1
  11854  11856     1
  11854  11865     1
  11854  11855     1
  11854  11872     1
  11854  11870     1
  11854  11871     1
  11854  11858     1
  11855  11866     1
  11855  11874     1
  11855  11857     1
  11855  11864     1
  11855  11860     1
  11855  11868     1
  11856  11868     1
  11856  11861     1
  11856  11869     1
  11857  11867     1
  11858  11860     1
  11858  11869     1
  11859  11864     1
  11859  11860     1
  11859  11862     1
  11859  11874     1
  11859  11861     1
  11859  11869     1
  11860  11865     1
  11860  11863     1
  11860  11867     1
  11861  11863     1
  11870  11874     1
  11870  11873     1
  11871  11874     1
  11871  11873     1
  11875  11883     1
  11875  11891     1
  11875  11896     1
  11875  11884     1
  11876  11882     1
  11876  11890     1
  11876  11893     1
  11876  11894     1
  11877  11879     1
  11877  11888     1
  11877  11878     1
  11877  11895     1
  11877  11893     1
  11877  11894     1
  11877  11881     1
  11878  11880     1
  11878  11887     1
  11878  11883     1
  11878  11891     1
  11878  11889     1
  11878  11897     1
  11879  11884     1
  11879  11892     1
  11879  11891     1
  11880  11890     1
  11881  11892     1
  11881  11883     1
  11882  11885     1
  11882  11897     1
  11882  11884     1
  11882  11892     1
  11882  11887     1
  11882  11883     1
  11883  11886     1
  11883  11890     1
  11883  11888     1
  11884  11886     1
  11893  11896     1
  11893  11897     1
  11894  11896     1
  11894  11897     1
  11898  11906     1
  11898  11914     1
  11898  11919     1
  11898  11907     1
  11899  11916     1
  11899  11917     1
  11899  11905     1
  11899  11913     1
  11900  11902     1
  11900  11911     1
  11900  11901     1
  11900  11918     1
  11900  11916     1
  11900  11917     1
  11900  11904     1
  11901  11912     1
  11901  11920     1
  11901  11903     1
  11901  11910     1
  11901  11906     1
  11901  11914     1
  11902  11914     1
  11902  11907     1
  11902  11915     1
  11903  11913     1
  11904  11906     1
  11904  11915     1
  11905  11910     1
  11905  11906     1
  11905  11908     1
  11905  11920     1
  11905  11907     1
  11905  11915     1
  11906  11911     1
  11906  11909     1
  11906  11913     1
  11907  11909     1
  11916  11920     1
  11916  11919     1
  11917  11920     1
  11917  11919     1
  11921  11929     1
  11921  11937     1
  11921  11942     1
  11921  11930     1
  11922  11928     1
  11922  11936     1
  11922  11939     1
  11922  11940     1
  11923  11925     1
  11923  11934     1
  11923  11924     1
  11923  11941     1
  11923  11939     1
  11923  11940     1
  11923  11927     1
  11924  11926     1
  11924  11933     1
  11924  11929     1
  11924  11937     1
  11924  11935     1
  11924  11943     1
  11925  11930     1
  11925  11938     1
  11925  11937     1
  11926  11936     1
  11927  11938     1
  11927  11929     1
  11928  11931     1
  11928  11943     1
  11928  11930     1
  11928  11938     1
  11928  11933     1
  11928  11929     1
  11929  11932     1
  11929  11936     1
  11929  11934     1
  11930  11932     1
  11939  11942     1
  11939  11943     1
  11940  11942     1
  11940  11943     1
  11944  11952     1
  11944  11960     1
  11944  11965     1
  11944  11953     1
  11945  11962     1
  11945  11963     1
  11945  11951     1
  11945  11959     1
  11946  11948     1
  11946  11957     1
  11946  11947     1
  11946  11964     1
  11946  11962     1
  11946  11963     1
  11946  11950     1
  11947  11958     1
  11947  11966     1
  11947  11949     1
  11947  11956     1
  11947  11952     1
  11947  11960     1
  11948  11960     1
  11948  11953     1
  11948  11961     1
  11949  11959     1
  11950  11952     1
  11950  11961     1
  11951  11956     1
  11951  11952     1
  11951  11954     1
  11951  11966     1
  11951  11953     1
  11951  11961     1
  11952  11957     1
  11952  11955     1
  11952  11959     1
  11953  11955     1
  11962  11966     1
  11962  11965     1
  11963  11966     1
  11963  11965     1
  11967  11975     1
  11967  11983     1
  11967  11988     1
  11967  11976     1
  11968  11974     1
  11968  11982     1
  11968  11985     1
  11968  11986     1
  11969  11971     1
  11969  11980     1
  11969  11970     1
  11969  11987     1
  11969  11985     1
  11969  11986     1
  11969  11973     1
  11970  11972     1
  11970  11979     1
  11970  11975     1
  11970  11983     1
  11970  11981     1
  11970  11989     1
  11971  11976     1
  11971  11984     1
  11971  11983     1
  11972  11982     1
  11973  11984     1
  11973  11975     1
  11974  11977     1
  11974  11989     1
  11974  11976     1
  11974  11984     1
  11974  11979     1
  11974  11975     1
  11975  11978     1
  11975  11982     1
  11975  11980     1
  11976  11978     1
  11985  11988     1
  11985  11989     1
  11986  11988     1
  11986  11989     1
  11990  11998     1
  11990  12006     1
  11990  12011     1
  11990  11999     1
  11991  12008     1
  11991  12009     1
  11991  11997     1
  11991  12005     1
  11992  11994     1
  11992  12003     1
  11992  11993     1
  11992  12010     1
  11992  12008     1
  11992  12009     1
  11992  11996     1
  11993  12004     1
  11993  12012     1
  11993  11995     1
  11993  12002     1
  11993  11998     1
  11993  12006     1
  11994  12006     1
  11994  11999     1
  11994  12007     1
  11995  12005     1
  11996  11998     1
  11996  12007     1
  11997  12002     1
  11997  11998     1
  11997  12000     1
  11997  12012     1
  11997  11999     1
  11997  12007     1
  11998  12003     1
  11998  12001     1
  11998  12005     1
  11999  12001     1
  12008  12012     1
  12008  12011     1
  12009  12012     1
  12009  12011     1
  12013  12021     1
  12013  12029     1
  12013  12034     1
  12013  12022     1
  12014  12020     1
  12014  12028     1
  12014  12031     1
  12014  12032     1
  12015  12017     1
  12015  12026     1
  12015  12016     1
  12015  12033     1
  12015  12031     1
  12015  12032     1
  12015  12019     1
  12016  12018     1
  12016  12025     1
  12016  12021     1
  12016  12029     1
  12016  12027     1
  12016  12035     1
  12017  12022     1
  12017  12030     1
  12017  12029     1
  12018  12028     1
  12019  12030     1
  12019  12021     1
  12020  12023     1
  12020  12035     1
  12020  12022     1
  12020  12030     1
  12020  12025     1
  12020  12021     1
  12021  12024     1
  12021  12028     1
  12021  12026     1
  12022  12024     1
  12031  12034     1
  12031  12035     1
  12032  12034     1
  12032  12035     1
  12036  12044     1
  12036  12052     1
  12036  12057     1
  12036  12045     1
  12037  12054     1
  12037  12055     1
  12037  12043     1
  12037  12051     1
  12038  12040     1
  12038  12049     1
  12038  12039     1
  12038  12056     1
  12038  12054     1
  12038  12055     1
  12038  12042     1
  12039  12050     1
  12039  12058     1
  12039  12041     1
  12039  12048     1
  12039  12044     1
  12039  12052     1
  12040  12052     1
  12040  12045     1
  12040  12053     1
  12041  12051     1
  12042  12044     1
  12042  12053     1
  12043  12048     1
  12043  12044     1
  12043  12046     1
  12043  12058     1
  12043  12045     1
  12043  12053     1
  12044  12049     1
  12044  12047     1
  12044  12051     1
  12045  12047     1
  12054  12058     1
  12054  12057     1
  12055  12058     1
  12055  12057     1
  12059  12067     1
  12059  12075     1
  12059  12080     1
  12059  12068     1
  12060  12066     1
  12060  12074     1
  12060  12077     1
  12060  12078     1
  12061  12063     1
  12061  12072     1
  12061  12062     1
  12061  12079     1
  12061  12077     1
  12061  12078     1
  12061  12065     1
  12062  12064     1
  12062  12071     1
  12062  12067     1
  12062  12075     1
  12062  12073     1
  12062  12081     1
  12063  12068     1
  12063  12076     1
  12063  12075     1
  12064  12074     1
  12065  12076     1
  12065  12067     1
  12066  12069     1
  12066  12081     1
  12066  12068     1
  12066  12076     1
  12066  12071     1
  12066  12067     1
  12067  12070     1
  12067  12074     1
  12067  12072     1
  12068  12070     1
  12077  12080     1
  12077  12081     1
  12078  12080     1
  12078  12081     1
  12082  12090     1
  12082  12098     1
  12082  12103     1
  12082  12091     1
  12083  12100     1
  12083  12101     1
  12083  12089     1
  12083  12097     1
  12084  12086     1
  12084  12095     1
  12084  12085     1
  12084  12102     1
  12084  12100     1
  12084  12101     1
  12084  12088     1
  12085  12096     1
  12085  12104     1
  12085  12087     1
  12085  12094     1
  12085  12090     1
  12085  12098     1
  12086  12098     1
  12086  12091     1
  12086  12099     1
  12087  12097     1
  12088  12090     1
  12088  12099     1
  12089  12094     1
  12089  12090     1
  12089  12092     1
  12089  12104     1
  12089  12091     1
  12089  12099     1
  12090  12095     1
  12090  12093     1
  12090  12097     1
  12091  12093     1
  12100  12104     1
  12100  12103     1
  12101  12104     1
  12101  12103     1
  12105  12113     1
  12105  12121     1
  12105  12126     1
  12105  12114     1
  12106  12112     1
  12106  12120     1
  12106  12123     1
  12106  12124     1
  12107  12109     1
  12107  12118     1
  12107  12108     1
  12107  12125     1
  12107  12123     1
  12107  12124     1
  12107  12111     1
  12108  12110     1
  12108  12117     1
  12108  12113     1
  12108  12121     1
  12108  12119     1
  12108  12127     1
  12109  12114     1
  12109  12122     1
  12109  12121     1
  12110  12120     1
  12111  12122     1
  12111  12113     1
  12112  12115     1
  12112  12127     1
  12112  12114     1
  12112  12122     1
  12112  12117     1
  12112  12113     1
  12113  12116     1
  12113  12120     1
  12113  12118     1
  12114  12116     1
  12123  12126     1
  12123  12127     1
  12124  12126     1
  12124  12127     1
  12128  12136     1
  12128  12144     1
  12128  12149     1
  12128  12137     1
  12129  12146     1
  12129  12147     1
  12129  12135     1
  12129  12143     1
  12130  12132     1
  12130  12141     1
  12130  12131     1
  12130  12148     1
  12130  12146     1
  12130  12147     1
  12130  12134     1
  12131  12142     1
  12131  12150     1
  12131  12133     1
  12131  12140     1
  12131  12136     1
  12131  12144     1
  12132  12144     1
  12132  12137     1
  12132  12145     1
  12133  12143     1
  12134  12136     1
  12134  12145     1
  12135  12140     1
  12135  12136     1
  12135  12138     1
  12135  12150     1
  12135  12137     1
  12135  12145     1
  12136  12141     1
  12136  12139     1
  12136  12143     1
  12137  12139     1
  12146  12150     1
  12146  12149     1
  12147  12150     1
  12147  12149     1
  12151  12159     1
  12151  12167     1
  12151  12172     1
  12151  12160     1
  12152  12158     1
  12152  12166     1
  12152  12169     1
  12152  12170     1
  12153  12155     1
  12153  12164     1
  12153  12154     1
  12153  12171     1
  12153  12169     1
  12153  12170     1
  12153  12157     1
  12154  12156     1
  12154  12163     1
  12154  12159     1
  12154  12167     1
  12154  12165     1
  12154  12173     1
  12155  12160     1
  12155  12168     1
  12155  12167     1
  12156  12166     1
  12157  12168     1
  12157  12159     1
  12158  12161     1
  12158  12173     1
  12158  12160     1
  12158  12168     1
  12158  12163     1
  12158  12159     1
  12159  12162     1
  12159  12166     1
  12159  12164     1
  12160  12162     1
  12169  12172     1
  12169  12173     1
  12170  12172     1
  12170  12173     1
  12174  12182     1
  12174  12190     1
  12174  12195     1
  12174  12183     1
  12175  12192     1
  12175  12193     1
  12175  12181     1
  12175  12189     1
  12176  12178     1
  12176  12187     1
  12176  12177     1
  12176  12194     1
  12176  12192     1
  12176  12193     1
  12176  12180     1
  12177  12188     1
  12177  12196     1
  12177  12179     1
  12177  12186     1
  12177  12182     1
  12177  12190     1
  12178  12190     1
  12178  12183     1
  12178  12191     1
  12179  12189     1
  12180  12182     1
  12180  12191     1
  12181  12186     1
  12181  12182     1
  12181  12184     1
  12181  12196     1
  12181  12183     1
  12181  12191     1
  12182  12187     1
  12182  12185     1
  12182  12189     1
  12183  12185     1
  12192  12196     1
  12192  12195     1
  12193  12196     1
  12193  12195     1
  12197  12205     1
  12197  12213     1
  12197  12218     1
  12197  12206     1
  12198  12204     1
  12198  12212     1
  12198  12215     1
  12198  12216     1
  12199  12201     1
  12199  12210     1
  12199  12200     1
  12199  12217     1
  12199  12215     1
  12199  12216     1
  12199  12203     1
  12200  12202     1
  12200  12209     1
  12200  12205     1
  12200  12213     1
  12200  12211     1
  12200  12219     1
  12201  12206     1
  12201  12214     1
  12201  12213     1
  12202  12212     1
  12203  12214     1
  12203  12205     1
  12204  12207     1
  12204  12219     1
  12204  12206     1
  12204  12214     1
  12204  12209     1
  12204  12205     1
  12205  12208     1
  12205  12212     1
  12205  12210     1
  12206  12208     1
  12215  12218     1
  12215  12219     1
  12216  12218     1
  12216  12219     1
  12220  12228     1
  12220  12236     1
  12220  12241     1
  12220  12229     1
  12221  12238     1
  12221  12239     1
  12221  12227     1
  12221  12235     1
  12222  12224     1
  12222  12233     1
  12222  12223     1
  12222  12240     1
  12222  12238     1
  12222  12239     1
  12222  12226     1
  12223  12234     1
  12223  12242     1
  12223  12225     1
  12223  12232     1
  12223  12228     1
  12223  12236     1
  12224  12236     1
  12224  12229     1
  12224  12237     1
  12225  12235     1
  12226  12228     1
  12226  12237     1
  12227  12232     1
  12227  12228     1
  12227  12230     1
  12227  12242     1
  12227  12229     1
  12227  12237     1
  12228  12233     1
  12228  12231     1
  12228  12235     1
  12229  12231     1
  12238  12242     1
  12238  12241     1
  12239  12242     1
  12239  12241     1
  12243  12251     1
  12243  12259     1
  12243  12264     1
  12243  12252     1
  12244  12250     1
  12244  12258     1
  12244  12261     1
  12244  12262     1
  12245  12247     1
  12245  12256     1
  12245  12246     1
  12245  12263     1
  12245  12261     1
  12245  12262     1
  12245  12249     1
  12246  12248     1
  12246  12255     1
  12246  12251     1
  12246  12259     1
  12246  12257     1
  12246  12265     1
  12247  12252     1
  12247  12260     1
  12247  12259     1
  12248  12258     1
  12249  12260     1
  12249  12251     1
  12250  12253     1
  12250  12265     1
  12250  12252     1
  12250  12260     1
  12250  12255     1
  12250  12251     1
  12251  12254     1
  12251  12258     1
  12251  12256     1
  12252  12254     1
  12261  12264     1
  12261  12265     1
  12262  12264     1
  12262  12265     1
  12266  12274     1
  12266  12282     1
  12266  12287     1
  12266  12275     1
  12267  12284     1
  12267  12285     1
  12267  12273     1
  12267  12281     1
  12268  12270     1
  12268  12279     1
  12268  12269     1
  12268  12286     1
  12268  12284     1
  12268  12285     1
  12268  12272     1
  12269  12280     1
  12269  12288     1
  12269  12271     1
  12269  12278     1
  12269  12274     1
  12269  12282     1
  12270  12282     1
  12270  12275     1
  12270  12283     1
  12271  12281     1
  12272  12274     1
  12272  12283     1
  12273  12278     1
  12273  12274     1
  12273  12276     1
  12273  12288     1
  12273  12275     1
  12273  12283     1
  12274  12279     1
  12274  12277     1
  12274  12281     1
  12275  12277     1
  12284  12288     1
  12284  12287     1
  12285  12288     1
  12285  12287     1
  12289  12297     1
  12289  12305     1
  12289  12310     1
  12289  12298     1
  12290  12296     1
  12290  12304     1
  12290  12307     1
  12290  12308     1
  12291  12293     1
  12291  12302     1
  12291  12292     1
  12291  12309     1
  12291  12307     1
  12291  12308     1
  12291  12295     1
  12292  12294     1
  12292  12301     1
  12292  12297     1
  12292  12305     1
  12292  12303     1
  12292  12311     1
  12293  12298     1
  12293  12306     1
  12293  12305     1
  12294  12304     1
  12295  12306     1
  12295  12297     1
  12296  12299     1
  12296  12311     1
  12296  12298     1
  12296  12306     1
  12296  12301     1
  12296  12297     1
  12297  12300     1
  12297  12304     1
  12297  12302     1
  12298  12300     1
  12307  12310     1
  12307  12311     1
  12308  12310     1
  12308  12311     1
  12312  12320     1
  12312  12328     1
  12312  12333     1
  12312  12321     1
  12313  12330     1
  12313  12331     1
  12313  12319     1
  12313  12327     1
  12314  12316     1
  12314  12325     1
  12314  12315     1
  12314  12332     1
  12314  12330     1
  12314  12331     1
  12314  12318     1
  12315  12326     1
  12315  12334     1
  12315  12317     1
  12315  12324     1
  12315  12320     1
  12315  12328     1
  12316  12328     1
  12316  12321     1
  12316  12329     1
  12317  12327     1
  12318  12320     1
  12318  12329     1
  12319  12324     1
  12319  12320     1
  12319  12322     1
  12319  12334     1
  12319  12321     1
  12319  12329     1
  12320  12325     1
  12320  12323     1
  12320  12327     1
  12321  12323     1
  12330  12334     1
  12330  12333     1
  12331  12334     1
  12331  12333     1
  12335  12343     1
  12335  12351     1
  12335  12356     1
  12335  12344     1
  12336  12342     1
  12336  12350     1
  12336  12353     1
  12336  12354     1
  12337  12339     1
  12337  12348     1
  12337  12338     1
  12337  12355     1
  12337  12353     1
  12337  12354     1
  12337  12341     1
  12338  12340     1
  12338  12347     1
  12338  12343     1
  12338  12351     1
  12338  12349     1
  12338  12357     1
  12339  12344     1
  12339  12352     1
  12339  12351     1
  12340  12350     1
  12341  12352     1
  12341  12343     1
  12342  12345     1
  12342  12357     1
  12342  12344     1
  12342  12352     1
  12342  12347     1
  12342  12343     1
  12343  12346     1
  12343  12350     1
  12343  12348     1
  12344  12346     1
  12353  12356     1
  12353  12357     1
  12354  12356     1
  12354  12357     1
  12358  12366     1
  12358  12374     1
  12358  12379     1
  12358  12367     1
  12359  12376     1
  12359  12377     1
  12359  12365     1
  12359  12373     1
  12360  12362     1
  12360  12371     1
  12360  12361     1
  12360  12378     1
  12360  12376     1
  12360  12377     1
  12360  12364     1
  12361  12372     1
  12361  12380     1
  12361  12363     1
  12361  12370     1
  12361  12366     1
  12361  12374     1
  12362  12374     1
  12362  12367     1
  12362  12375     1
  12363  12373     1
  12364  12366     1
  12364  12375     1
  12365  12370     1
  12365  12366     1
  12365  12368     1
  12365  12380     1
  12365  12367     1
  12365  12375     1
  12366  12371     1
  12366  12369     1
  12366  12373     1
  12367  12369     1
  12376  12380     1
  12376  12379     1
  12377  12380     1
  12377  12379     1
  12381  12389     1
  12381  12397     1
  12381  12402     1
  12381  12390     1
  12382  12388     1
  12382  12396     1
  12382  12399     1
  12382  12400     1
  12383  12385     1
  12383  12394     1
  12383  12384     1
  12383  12401     1
  12383  12399     1
  12383  12400     1
  12383  12387     1
  12384  12386     1
  12384  12393     1
  12384  12389     1
  12384  12397     1
  12384  12395     1
  12384  12403     1
  12385  12390     1
  12385  12398     1
  12385  12397     1
  12386  12396     1
  12387  12398     1
  12387  12389     1
  12388  12391     1
  12388  12403     1
  12388  12390     1
  12388  12398     1
  12388  12393     1
  12388  12389     1
  12389  12392     1
  12389  12396     1
  12389  12394     1
  12390  12392     1
  12399  12402     1
  12399  12403     1
  12400  12402     1
  12400  12403     1
  12404  12412     1
  12404  12420     1
  12404  12425     1
  12404  12413     1
  12405  12422     1
  12405  12423     1
  12405  12411     1
  12405  12419     1
  12406  12408     1
  12406  12417     1
  12406  12407     1
  12406  12424     1
  12406  12422     1
  12406  12423     1
  12406  12410     1
  12407  12418     1
  12407  12426     1
  12407  12409     1
  12407  12416     1
  12407  12412     1
  12407  12420     1
  12408  12420     1
  12408  12413     1
  12408  12421     1
  12409  12419     1
  12410  12412     1
  12410  12421     1
  12411  12416     1
  12411  12412     1
  12411  12414     1
  12411  12426     1
  12411  12413     1
  12411  12421     1
  12412  12417     1
  12412  12415     1
  12412  12419     1
  12413  12415     1
  12422  12426     1
  12422  12425     1
  12423  12426     1
  12423  12425     1
  12427  12435     1
  12427  12443     1
  12427  12448     1
  12427  12436     1
  12428  12434     1
  12428  12442     1
  12428  12445     1
  12428  12446     1
  12429  12431     1
  12429  12440     1
  12429  12430     1
  12429  12447     1
  12429  12445     1
  12429  12446     1
  12429  12433     1
  12430  12432     1
  12430  12439     1
  12430  12435     1
  12430  12443     1
  12430  12441     1
  12430  12449     1
  12431  12436     1
  12431  12444     1
  12431  12443     1
  12432  12442     1
  12433  12444     1
  12433  12435     1
  12434  12437     1
  12434  12449     1
  12434  12436     1
  12434  12444     1
  12434  12439     1
  12434  12435     1
  12435  12438     1
  12435  12442     1
  12435  12440     1
  12436  12438     1
  12445  12448     1
  12445  12449     1
  12446  12448     1
  12446  12449     1
  12450  12458     1
  12450  12466     1
  12450  12471     1
  12450  12459     1
  12451  12468     1
  12451  12469     1
  12451  12457     1
  12451  12465     1
  12452  12454     1
  12452  12463     1
  12452  12453     1
  12452  12470     1
  12452  12468     1
  12452  12469     1
  12452  12456     1
  12453  12464     1
  12453  12472     1
  12453  12455     1
  12453  12462     1
  12453  12458     1
  12453  12466     1
  12454  12466     1
  12454  12459     1
  12454  12467     1
  12455  12465     1
  12456  12458     1
  12456  12467     1
  12457  12462     1
  12457  12458     1
  12457  12460     1
  12457  12472     1
  12457  12459     1
  12457  12467     1
  12458  12463     1
  12458  12461     1
  12458  12465     1
  12459  12461     1
  12468  12472     1
  12468  12471     1
  12469  12472     1
  12469  12471     1
  12473  12481     1
  12473  12489     1
  12473  12494     1
  12473  12482     1
  12474  12480     1
  12474  12488     1
  12474  12491     1
  12474  12492     1
  12475  12477     1
  12475  12486     1
  12475  12476     1
  12475  12493     1
  12475  12491     1
  12475  12492     1
  12475  12479     1
  12476  12478     1
  12476  12485     1
  12476  12481     1
  12476  12489     1
  12476  12487     1
  12476  12495     1
  12477  12482     1
  12477  12490     1
  12477  12489     1
  12478  12488     1
  12479  12490     1
  12479  12481     1
  12480  12483     1
  12480  12495     1
  12480  12482     1
  12480  12490     1
  12480  12485     1
  12480  12481     1
  12481  12484     1
  12481  12488     1
  12481  12486     1
  12482  12484     1
  12491  12494     1
  12491  12495     1
  12492  12494     1
  12492  12495     1
  12496  12504     1
  12496  12512     1
  12496  12517     1
  12496  12505     1
  12497  12514     1
  12497  12515     1
  12497  12503     1
  12497  12511     1
  12498  12500     1
  12498  12509     1
  12498  12499     1
  12498  12516     1
  12498  12514     1
  12498  12515     1
  12498  12502     1
  12499  12510     1
  12499  12518     1
  12499  12501     1
  12499  12508     1
  12499  12504     1
  12499  12512     1
  12500  12512     1
  12500  12505     1
  12500  12513     1
  12501  12511     1
  12502  12504     1
  12502  12513     1
  12503  12508     1
  12503  12504     1
  12503  12506     1
  12503  12518     1
  12503  12505     1
  12503  12513     1
  12504  12509     1
  12504  12507     1
  12504  12511     1
  12505  12507     1
  12514  12518     1
  12514  12517     1
  12515  12518     1
  12515  12517     1
  12519  12527     1
  12519  12535     1
  12519  12540     1
  12519  12528     1
  12520  12526     1
  12520  12534     1
  12520  12537     1
  12520  12538     1
  12521  12523     1
  12521  12532     1
  12521  12522     1
  12521  12539     1
  12521  12537     1
  12521  12538     1
  12521  12525     1
  12522  12524     1
  12522  12531     1
  12522  12527     1
  12522  12535     1
  12522  12533     1
  12522  12541     1
  12523  12528     1
  12523  12536     1
  12523  12535     1
  12524  12534     1
  12525  12536     1
  12525  12527     1
  12526  12529     1
  12526  12541     1
  12526  12528     1
  12526  12536     1
  12526  12531     1
  12526  12527     1
  12527  12530     1
  12527  12534     1
  12527  12532     1
  12528  12530     1
  12537  12540     1
  12537  12541     1
  12538  12540     1
  12538  12541     1
  12542  12550     1
  12542  12558     1
  12542  12563     1
  12542  12551     1
  12543  12560     1
  12543  12561     1
  12543  12549     1
  12543  12557     1
  12544  12546     1
  12544  12555     1
  12544  12545     1
  12544  12562     1
  12544  12560     1
  12544  12561     1
  12544  12548     1
  12545  12556     1
  12545  12564     1
  12545  12547     1
  12545  12554     1
  12545  12550     1
  12545  12558     1
  12546  12558     1
  12546  12551     1
  12546  12559     1
  12547  12557     1
  12548  12550     1
  12548  12559     1
  12549  12554     1
  12549  12550     1
  12549  12552     1
  12549  12564     1
  12549  12551     1
  12549  12559     1
  12550  12555     1
  12550  12553     1
  12550  12557     1
  12551  12553     1
  12560  12564     1
  12560  12563     1
  12561  12564     1
  12561  12563     1
  12565  12573     1
  12565  12581     1
  12565  12586     1
  12565  12574     1
  12566  12572     1
  12566  12580     1
  12566  12583     1
  12566  12584     1
  12567  12569     1
  12567  12578     1
  12567  12568     1
  12567  12585     1
  12567  12583     1
  12567  12584     1
  12567  12571     1
  12568  12570     1
  12568  12577     1
  12568  12573     1
  12568  12581     1
  12568  12579     1
  12568  12587     1
  12569  12574     1
  12569  12582     1
  12569  12581     1
  12570  12580     1
  12571  12582     1
  12571  12573     1
  12572  12575     1
  12572  12587     1
  12572  12574     1
  12572  12582     1
  12572  12577     1
  12572  12573     1
  12573  12576     1
  12573  12580     1
  12573  12578     1
  12574  12576     1
  12583  12586     1
  12583  12587     1
  12584  12586     1
  12584  12587     1
  12588  12596     1
  12588  12604     1
  12588  12609     1
  12588  12597     1
  12589  12606     1
  12589  12607     1
  12589  12595     1
  12589  12603     1
  12590  12592     1
  12590  12601     1
  12590  12591     1
  12590  12608     1
  12590  12606     1
  12590  12607     1
  12590  12594     1
  12591  12602     1
  12591  12610     1
  12591  12593     1
  12591  12600     1
  12591  12596     1
  12591  12604     1
  12592  12604     1
  12592  12597     1
  12592  12605     1
  12593  12603     1
  12594  12596     1
  12594  12605     1
  12595  12600     1
  12595  12596     1
  12595  12598     1
  12595  12610     1
  12595  12597     1
  12595  12605     1
  12596  12601     1
  12596  12599     1
  12596  12603     1
  12597  12599     1
  12606  12610     1
  12606  12609     1
  12607  12610     1
  12607  12609     1
  12611  12619     1
  12611  12627     1
  12611  12632     1
  12611  12620     1
  12612  12618     1
  12612  12626     1
  12612  12629     1
  12612  12630     1
  12613  12615     1
  12613  12624     1
  12613  12614     1
  12613  12631     1
  12613  12629     1
  12613  12630     1
  12613  12617     1
  12614  12616     1
  12614  12623     1
  12614  12619     1
  12614  12627     1
  12614  12625     1
  12614  12633     1
  12615  12620     1
  12615  12628     1
  12615  12627     1
  12616  12626     1
  12617  12628     1
  12617  12619     1
  12618  12621     1
  12618  12633     1
  12618  12620     1
  12618  12628     1
  12618  12623     1
  12618  12619     1
  12619  12622     1
  12619  12626     1
  12619  12624     1
  12620  12622     1
  12629  12632     1
  12629  12633     1
  12630  12632     1
  12630  12633     1
  12634  12642     1
  12634  12650     1
  12634  12655     1
  12634  12643     1
  12635  12652     1
  12635  12653     1
  12635  12641     1
  12635  12649     1
  12636  12638     1
  12636  12647     1
  12636  12637     1
  12636  12654     1
  12636  12652     1
  12636  12653     1
  12636  12640     1
  12637  12648     1
  12637  12656     1
  12637  12639     1
  12637  12646     1
  12637  12642     1
  12637  12650     1
  12638  12650     1
  12638  12643     1
  12638  12651     1
  12639  12649     1
  12640  12642     1
  12640  12651     1
  12641  12646     1
  12641  12642     1
  12641  12644     1
  12641  12656     1
  12641  12643     1
  12641  12651     1
  12642  12647     1
  12642  12645     1
  12642  12649     1
  12643  12645     1
  12652  12656     1
  12652  12655     1
  12653  12656     1
  12653  12655     1
  12657  12665     1
  12657  12673     1
  12657  12678     1
  12657  12666     1
  12658  12664     1
  12658  12672     1
  12658  12675     1
  12658  12676     1
  12659  12661     1
  12659  12670     1
  12659  12660     1
  12659  12677     1
  12659  12675     1
  12659  12676     1
  12659  12663     1
  12660  12662     1
  12660  12669     1
  12660  12665     1
  12660  12673     1
  12660  12671     1
  12660  12679     1
  12661  12666     1
  12661  12674     1
  12661  12673     1
  12662  12672     1
  12663  12674     1
  12663  12665     1
  12664  12667     1
  12664  12679     1
  12664  12666     1
  12664  12674     1
  12664  12669     1
  12664  12665     1
  12665  12668     1
  12665  12672     1
  12665  12670     1
  12666  12668     1
  12675  12678     1
  12675  12679     1
  12676  12678     1
  12676  12679     1
  12680  12688     1
  12680  12696     1
  12680  12701     1
  12680  12689     1
  12681  12698     1
  12681  12699     1
  12681  12687     1
  12681  12695     1
  12682  12684     1
  12682  12693     1
  12682  12683     1
  12682  12700     1
  12682  12698     1
  12682  12699     1
  12682  12686     1
  12683  12694     1
  12683  12702     1
  12683  12685     1
  12683  12692     1
  12683  12688     1
  12683  12696     1
  12684  12696     1
  12684  12689     1
  12684  12697     1
  12685  12695     1
  12686  12688     1
  12686  12697     1
  12687  12692     1
  12687  12688     1
  12687  12690     1
  12687  12702     1
  12687  12689     1
  12687  12697     1
  12688  12693     1
  12688  12691     1
  12688  12695     1
  12689  12691     1
  12698  12702     1
  12698  12701     1
  12699  12702     1
  12699  12701     1
  12703  12711     1
  12703  12719     1
  12703  12724     1
  12703  12712     1
  12704  12710     1
  12704  12718     1
  12704  12721     1
  12704  12722     1
  12705  12707     1
  12705  12716     1
  12705  12706     1
  12705  12723     1
  12705  12721     1
  12705  12722     1
  12705  12709     1
  12706  12708     1
  12706  12715     1
  12706  12711     1
  12706  12719     1
  12706  12717     1
  12706  12725     1
  12707  12712     1
  12707  12720     1
  12707  12719     1
  12708  12718     1
  12709  12720     1
  12709  12711     1
  12710  12713     1
  12710  12725     1
  12710  12712     1
  12710  12720     1
  12710  12715     1
  12710  12711     1
  12711  12714     1
  12711  12718     1
  12711  12716     1
  12712  12714     1
  12721  12724     1
  12721  12725     1
  12722  12724     1
  12722  12725     1
  12726  12734     1
  12726  12742     1
  12726  12747     1
  12726  12735     1
  12727  12744     1
  12727  12745     1
  12727  12733     1
  12727  12741     1
  12728  12730     1
  12728  12739     1
  12728  12729     1
  12728  12746     1
  12728  12744     1
  12728  12745     1
  12728  12732     1
  12729  12740     1
  12729  12748     1
  12729  12731     1
  12729  12738     1
  12729  12734     1
  12729  12742     1
  12730  12742     1
  12730  12735     1
  12730  12743     1
  12731  12741     1
  12732  12734     1
  12732  12743     1
  12733  12738     1
  12733  12734     1
  12733  12736     1
  12733  12748     1
  12733  12735     1
  12733  12743     1
  12734  12739     1
  12734  12737     1
  12734  12741     1
  12735  12737     1
  12744  12748     1
  12744  12747     1
  12745  12748     1
  12745  12747     1
  12749  12757     1
  12749  12765     1
  12749  12770     1
  12749  12758     1
  12750  12756     1
  12750  12764     1
  12750  12767     1
  12750  12768     1
  12751  12753     1
  12751  12762     1
  12751  12752     1
  12751  12769     1
  12751  12767     1
  12751  12768     1
  12751  12755     1
  12752  12754     1
  12752  12761     1
  12752  12757     1
  12752  12765     1
  12752  12763     1
  12752  12771     1
  12753  12758     1
  12753  12766     1
  12753  12765     1
  12754  12764     1
  12755  12766     1
  12755  12757     1
  12756  12759     1
  12756  12771     1
  12756  12758     1
  12756  12766     1
  12756  12761     1
  12756  12757     1
  12757  12760     1
  12757  12764     1
  12757  12762     1
  12758  12760     1
  12767  12770     1
  12767  12771     1
  12768  12770     1
  12768  12771     1
  12772  12780     1
  12772  12788     1
  12772  12793     1
  12772  12781     1
  12773  12790     1
  12773  12791     1
  12773  12779     1
  12773  12787     1
  12774  12776     1
  12774  12785     1
  12774  12775     1
  12774  12792     1
  12774  12790     1
  12774  12791     1
  12774  12778     1
  12775  12786     1
  12775  12794     1
  12775  12777     1
  12775  12784     1
  12775  12780     1
  12775  12788     1
  12776  12788     1
  12776  12781     1
  12776  12789     1
  12777  12787     1
  12778  12780     1
  12778  12789     1
  12779  12784     1
  12779  12780     1
  12779  12782     1
  12779  12794     1
  12779  12781     1
  12779  12789     1
  12780  12785     1
  12780  12783     1
  12780  12787     1
  12781  12783     1
  12790  12794     1
  12790  12793     1
  12791  12794     1
  12791  12793     1
  12795  12803     1
  12795  12811     1
  12795  12816     1
  12795  12804     1
  12796  12802     1
  12796  12810     1
  12796  12813     1
  12796  12814     1
  12797  12799     1
  12797  12808     1
  12797  12798     1
  12797  12815     1
  12797  12813     1
  12797  12814     1
  12797  12801     1
  12798  12800     1
  12798  12807     1
  12798  12803     1
  12798  12811     1
  12798  12809     1
  12798  12817     1
  12799  12804     1
  12799  12812     1
  12799  12811     1
  12800  12810     1
  12801  12812     1
  12801  12803     1
  12802  12805     1
  12802  12817     1
  12802  12804     1
  12802  12812     1
  12802  12807     1
  12802  12803     1
  12803  12806     1
  12803  12810     1
  12803  12808     1
  12804  12806     1
  12813  12816     1
  12813  12817     1
  12814  12816     1
  12814  12817     1
  12818  12826     1
  12818  12834     1
  12818  12839     1
  12818  12827     1
  12819  12836     1
  12819  12837     1
  12819  12825     1
  12819  12833     1
  12820  12822     1
  12820  12831     1
  12820  12821     1
  12820  12838     1
  12820  12836     1
  12820  12837     1
  12820  12824     1
  12821  12832     1
  12821  12840     1
  12821  12823     1
  12821  12830     1
  12821  12826     1
  12821  12834     1
  12822  12834     1
  12822  12827     1
  12822  12835     1
  12823  12833     1
  12824  12826     1
  12824  12835     1
  12825  12830     1
  12825  12826     1
  12825  12828     1
  12825  12840     1
  12825  12827     1
  12825  12835     1
  12826  12831     1
  12826  12829     1
  12826  12833     1
  12827  12829     1
  12836  12840     1
  12836  12839     1
  12837  12840     1
  12837  12839     1
  12841  12849     1
  12841  12857     1
  12841  12862     1
  12841  12850     1
  12842  12848     1
  12842  12856     1
  12842  12859     1
  12842  12860     1
  12843  12845     1
  12843  12854     1
  12843  12844     1
  12843  12861     1
  12843  12859     1
  12843  12860     1
  12843  12847     1
  12844  12846     1
  12844  12853     1
  12844  12849     1
  12844  12857     1
  12844  12855     1
  12844  12863     1
  12845  12850     1
  12845  12858     1
  12845  12857     1
  12846  12856     1
  12847  12858     1
  12847  12849     1
  12848  12851     1
  12848  12863     1
  12848  12850     1
  12848  12858     1
  12848  12853     1
  12848  12849     1
  12849  12852     1
  12849  12856     1
  12849  12854     1
  12850  12852     1
  12859  12862     1
  12859  12863     1
  12860  12862     1
  12860  12863     1
  12864  12872     1
  12864  12880     1
  12864  12885     1
  12864  12873     1
  12865  12882     1
  12865  12883     1
  12865  12871     1
  12865  12879     1
  12866  12868     1
  12866  12877     1
  12866  12867     1
  12866  12884     1
  12866  12882     1
  12866  12883     1
  12866  12870     1
  12867  12878     1
  12867  12886     1
  12867  12869     1
  12867  12876     1
  12867  12872     1
  12867  12880     1
  12868  12880     1
  12868  12873     1
  12868  12881     1
  12869  12879     1
  12870  12872     1
  12870  12881     1
  12871  12876     1
  12871  12872     1
  12871  12874     1
  12871  12886     1
  12871  12873     1
  12871  12881     1
  12872  12877     1
  12872  12875     1
  12872  12879     1
  12873  12875     1
  12882  12886     1
  12882  12885     1
  12883  12886     1
  12883  12885     1
  12887  12895     1
  12887  12903     1
  12887  12908     1
  12887  12896     1
  12888  12894     1
  12888  12902     1
  12888  12905     1
  12888  12906     1
  12889  12891     1
  12889  12900     1
  12889  12890     1
  12889  12907     1
  12889  12905     1
  12889  12906     1
  12889  12893     1
  12890  12892     1
  12890  12899     1
  12890  12895     1
  12890  12903     1
  12890  12901     1
  12890  12909     1
  12891  12896     1
  12891  12904     1
  12891  12903     1
  12892  12902     1
  12893  12904     1
  12893  12895     1
  12894  12897     1
  12894  12909     1
  12894  12896     1
  12894  12904     1
  12894  12899     1
  12894  12895     1
  12895  12898     1
  12895  12902     1
  12895  12900     1
  12896  12898     1
  12905  12908     1
  12905  12909     1
  12906  12908     1
  12906  12909     1
  12910  12918     1
  12910  12926     1
  12910  12931     1
  12910  12919     1
  12911  12928     1
  12911  12929     1
  12911  12917     1
  12911  12925     1
  12912  12914     1
  12912  12923     1
  12912  12913     1
  12912  12930     1
  12912  12928     1
  12912  12929     1
  12912  12916     1
  12913  12924     1
  12913  12932     1
  12913  12915     1
  12913  12922     1
  12913  12918     1
  12913  12926     1
  12914  12926     1
  12914  12919     1
  12914  12927     1
  12915  12925     1
  12916  12918     1
  12916  12927     1
  12917  12922     1
  12917  12918     1
  12917  12920     1
  12917  12932     1
  12917  12919     1
  12917  12927     1
  12918  12923     1
  12918  12921     1
  12918  12925     1
  12919  12921     1
  12928  12932     1
  12928  12931     1
  12929  12932     1
  12929  12931     1
  12933  12941     1
  12933  12949     1
  12933  12954     1
  12933  12942     1
  12934  12940     1
  12934  12948     1
  12934  12951     1
  12934  12952     1
  12935  12937     1
  12935  12946     1
  12935  12936     1
  12935  12953     1
  12935  12951     1
  12935  12952     1
  12935  12939     1
  12936  12938     1
  12936  12945     1
  12936  12941     1
  12936  12949     1
  12936  12947     1
  12936  12955     1
  12937  12942     1
  12937  12950     1
  12937  12949     1
  12938  12948     1
  12939  12950     1
  12939  12941     1
  12940  12943     1
  12940  12955     1
  12940  12942     1
  12940  12950     1
  12940  12945     1
  12940  12941     1
  12941  12944     1
  12941  12948     1
  12941  12946     1
  12942  12944     1
  12951  12954     1
  12951  12955     1
  12952  12954     1
  12952  12955     1
  12956  12964     1
  12956  12972     1
  12956  12977     1
  12956  12965     1
  12957  12974     1
  12957  12975     1
  12957  12963     1
  12957  12971     1
  12958  12960     1
  12958  12969     1
  12958  12959     1
  12958  12976     1
  12958  12974     1
  12958  12975     1
  12958  12962     1
  12959  12970     1
  12959  12978     1
  12959  12961     1
  12959  12968     1
  12959  12964     1
  12959  12972     1
  12960  12972     1
  12960  12965     1
  12960  12973     1
  12961  12971     1
  12962  12964     1
  12962  12973     1
  12963  12968     1
  12963  12964     1
  12963  12966     1
  12963  12978     1
  12963  12965     1
  12963  12973     1
  12964  12969     1
  12964  12967     1
  12964  12971     1
  12965  12967     1
  12974  12978     1
  12974  12977     1
  12975  12978     1
  12975  12977     1
  12979  12987     1
  12979  12995     1
  12979  13000     1
  12979  12988     1
  12980  12986     1
  12980  12994     1
  12980  12997     1
  12980  12998     1
  12981  12983     1
  12981  12992     1
  12981  12982     1
  12981  12999     1
  12981  12997     1
  12981  12998     1
  12981  12985     1
  12982  12984     1
  12982  12991     1
  12982  12987     1
  12982  12995     1
  12982  12993     1
  12982  13001     1
  12983  12988     1
  12983  12996     1
  12983  12995     1
  12984  12994     1
  12985  12996     1
  12985  12987     1
  12986  12989     1
  12986  13001     1
  12986  12988     1
  12986  12996     1
  12986  12991     1
  12986  12987     1
  12987  12990     1
  12987  12994     1
  12987  12992     1
  12988  12990     1
  12997  13000     1
  12997  13001     1
  12998  13000     1
  12998  13001     1
  13002  13010     1
  13002  13018     1
  13002  13023     1
  13002  13011     1
  13003  13020     1
  13003  13021     1
  13003  13009     1
  13003  13017     1
  13004  13006     1
  13004  13015     1
  13004  13005     1
  13004  13022     1
  13004  13020     1
  13004  13021     1
  13004  13008     1
  13005  13016     1
  13005  13024     1
  13005  13007     1
  13005  13014     1
  13005  13010     1
  13005  13018     1
  13006  13018     1
  13006  13011     1
  13006  13019     1
  13007  13017     1
  13008  13010     1
  13008  13019     1
  13009  13014     1
  13009  13010     1
  13009  13012     1
  13009  13024     1
  13009  13011     1
  13009  13019     1
  13010  13015     1
  13010  13013     1
  13010  13017     1
  13011  13013     1
  13020  13024     1
  13020  13023     1
  13021  13024     1
  13021  13023     1
  13025  13033     1
  13025  13041     1
  13025  13046     1
  13025  13034     1
  13026  13032     1
  13026  13040     1
  13026  13043     1
  13026  13044     1
  13027  13029     1
  13027  13038     1
  13027  13028     1
  13027  13045     1
  13027  13043     1
  13027  13044     1
  13027  13031     1
  13028  13030     1
  13028  13037     1
  13028  13033     1
  13028  13041     1
  13028  13039     1
  13028  13047     1
  13029  13034     1
  13029  13042     1
  13029  13041     1
  13030  13040     1
  13031  13042     1
  13031  13033     1
  13032  13035     1
  13032  13047     1
  13032  13034     1
  13032  13042     1
  13032  13037     1
  13032  13033     1
  13033  13036     1
  13033  13040     1
  13033  13038     1
  13034  13036     1
  13043  13046     1
  13043  13047     1
  13044  13046     1
  13044  13047     1
  13048  13056     1
  13048  13064     1
  13048  13069     1
  13048  13057     1
  13049  13066     1
  13049  13067     1
  13049  13055     1
  13049  13063     1
  13050  13052     1
  13050  13061     1
  13050  13051     1
  13050  13068     1
  13050  13066     1
  13050  13067     1
  13050  13054     1
  13051  13062     1
  13051  13070     1
  13051  13053     1
  13051  13060     1
  13051  13056     1
  13051  13064     1
  13052  13064     1
  13052  13057     1
  13052  13065     1
  13053  13063     1
  13054  13056     1
  13054  13065     1
  13055  13060     1
  13055  13056     1
  13055  13058     1
  13055  13070     1
  13055  13057     1
  13055  13065     1
  13056  13061     1
  13056  13059     1
  13056  13063     1
  13057  13059     1
  13066  13070     1
  13066  13069     1
  13067  13070     1
  13067  13069     1
  13071  13079     1
  13071  13087     1
  13071  13092     1
  13071  13080     1
  13072  13078     1
  13072  13086     1
  13072  13089     1
  13072  13090     1
  13073  13075     1
  13073  13084     1
  13073  13074     1
  13073  13091     1
  13073  13089     1
  13073  13090     1
  13073  13077     1
  13074  13076     1
  13074  13083     1
  13074  13079     1
  13074  13087     1
  13074  13085     1
  13074  13093     1
  13075  13080     1
  13075  13088     1
  13075  13087     1
  13076  13086     1
  13077  13088     1
  13077  13079     1
  13078  13081     1
  13078  13093     1
  13078  13080     1
  13078  13088     1
  13078  13083     1
  13078  13079     1
  13079  13082     1
  13079  13086     1
  13079  13084     1
  13080  13082     1
  13089  13092     1
  13089  13093     1
  13090  13092     1
  13090  13093     1
  13094  13102     1
  13094  13110     1
  13094  13115     1
  13094  13103     1
  13095  13112     1
  13095  13113     1
  13095  13101     1
  13095  13109     1
  13096  13098     1
  13096  13107     1
  13096  13097     1
  13096  13114     1
  13096  13112     1
  13096  13113     1
  13096  13100     1
  13097  13108     1
  13097  13116     1
  13097  13099     1
  13097  13106     1
  13097  13102     1
  13097  13110     1
  13098  13110     1
  13098  13103     1
  13098  13111     1
  13099  13109     1
  13100  13102     1
  13100  13111     1
  13101  13106     1
  13101  13102     1
  13101  13104     1
  13101  13116     1
  13101  13103     1
  13101  13111     1
  13102  13107     1
  13102  13105     1
  13102  13109     1
  13103  13105     1
  13112  13116     1
  13112  13115     1
  13113  13116     1
  13113  13115     1
  13117  13125     1
  13117  13133     1
  13117  13138     1
  13117  13126     1
  13118  13124     1
  13118  13132     1
  13118  13135     1
  13118  13136     1
  13119  13121     1
  13119  13130     1
  13119  13120     1
  13119  13137     1
  13119  13135     1
  13119  13136     1
  13119  13123     1
  13120  13122     1
  13120  13129     1
  13120  13125     1
  13120  13133     1
  13120  13131     1
  13120  13139     1
  13121  13126     1
  13121  13134     1
  13121  13133     1
  13122  13132     1
  13123  13134     1
  13123  13125     1
  13124  13127     1
  13124  13139     1
  13124  13126     1
  13124  13134     1
  13124  13129     1
  13124  13125     1
  13125  13128     1
  13125  13132     1
  13125  13130     1
  13126  13128     1
  13135  13138     1
  13135  13139     1
  13136  13138     1
  13136  13139     1
  13140  13148     1
  13140  13156     1
  13140  13161     1
  13140  13149     1
  13141  13158     1
  13141  13159     1
  13141  13147     1
  13141  13155     1
  13142  13144     1
  13142  13153     1
  13142  13143     1
  13142  13160     1
  13142  13158     1
  13142  13159     1
  13142  13146     1
  13143  13154     1
  13143  13162     1
  13143  13145     1
  13143  13152     1
  13143  13148     1
  13143  13156     1
  13144  13156     1
  13144  13149     1
  13144  13157     1
  13145  13155     1
  13146  13148     1
  13146  13157     1
  13147  13152     1
  13147  13148     1
  13147  13150     1
  13147  13162     1
  13147  13149     1
  13147  13157     1
  13148  13153     1
  13148  13151     1
  13148  13155     1
  13149  13151     1
  13158  13162     1
  13158  13161     1
  13159  13162     1
  13159  13161     1
  13163  13171     1
  13163  13179     1
  13163  13184     1
  13163  13172     1
  13164  13170     1
  13164  13178     1
  13164  13181     1
  13164  13182     1
  13165  13167     1
  13165  13176     1
  13165  13166     1
  13165  13183     1
  13165  13181     1
  13165  13182     1
  13165  13169     1
  13166  13168     1
  13166  13175     1
  13166  13171     1
  13166  13179     1
  13166  13177     1
  13166  13185     1
  13167  13172     1
  13167  13180     1
  13167  13179     1
  13168  13178     1
  13169  13180     1
  13169  13171     1
  13170  13173     1
  13170  13185     1
  13170  13172     1
  13170  13180     1
  13170  13175     1
  13170  13171     1
  13171  13174     1
  13171  13178     1
  13171  13176     1
  13172  13174     1
  13181  13184     1
  13181  13185     1
  13182  13184     1
  13182  13185     1
  13186  13194     1
  13186  13202     1
  13186  13207     1
  13186  13195     1
  13187  13204     1
  13187  13205     1
  13187  13193     1
  13187  13201     1
  13188  13190     1
  13188  13199     1
  13188  13189     1
  13188  13206     1
  13188  13204     1
  13188  13205     1
  13188  13192     1
  13189  13200     1
  13189  13208     1
  13189  13191     1
  13189  13198     1
  13189  13194     1
  13189  13202     1
  13190  13202     1
  13190  13195     1
  13190  13203     1
  13191  13201     1
  13192  13194     1
  13192  13203     1
  13193  13198     1
  13193  13194     1
  13193  13196     1
  13193  13208     1
  13193  13195     1
  13193  13203     1
  13194  13199     1
  13194  13197     1
  13194  13201     1
  13195  13197     1
  13204  13208     1
  13204  13207     1
  13205  13208     1
  13205  13207     1
  13209  13217     1
  13209  13225     1
  13209  13230     1
  13209  13218     1
  13210  13216     1
  13210  13224     1
  13210  13227     1
  13210  13228     1
  13211  13213     1
  13211  13222     1
  13211  13212     1
  13211  13229     1
  13211  13227     1
  13211  13228     1
  13211  13215     1
  13212  13214     1
  13212  13221     1
  13212  13217     1
  13212  13225     1
  13212  13223     1
  13212  13231     1
  13213  13218     1
  13213  13226     1
  13213  13225     1
  13214  13224     1
  13215  13226     1
  13215  13217     1
  13216  13219     1
  13216  13231     1
  13216  13218     1
  13216  13226     1
  13216  13221     1
  13216  13217     1
  13217  13220     1
  13217  13224     1
  13217  13222     1
  13218  13220     1
  13227  13230     1
  13227  13231     1
  13228  13230     1
  13228  13231     1
  13232  13240     1
  13232  13248     1
  13232  13253     1
  13232  13241     1
  13233  13250     1
  13233  13251     1
  13233  13239     1
  13233  13247     1
  13234  13236     1
  13234  13245     1
  13234  13235     1
  13234  13252     1
  13234  13250     1
  13234  13251     1
  13234  13238     1
  13235  13246     1
  13235  13254     1
  13235  13237     1
  13235  13244     1
  13235  13240     1
  13235  13248     1
  13236  13248     1
  13236  13241     1
  13236  13249     1
  13237  13247     1
  13238  13240     1
  13238  13249     1
  13239  13244     1
  13239  13240     1
  13239  13242     1
  13239  13254     1
  13239  13241     1
  13239  13249     1
  13240  13245     1
  13240  13243     1
  13240  13247     1
  13241  13243     1
  13250  13254     1
  13250  13253     1
  13251  13254     1
  13251  13253     1
  13255  13263     1
  13255  13271     1
  13255  13276     1
  13255  13264     1
  13256  13262     1
  13256  13270     1
  13256  13273     1
  13256  13274     1
  13257  13259     1
  13257  13268     1
  13257  13258     1
  13257  13275     1
  13257  13273     1
  13257  13274     1
  13257  13261     1
  13258  13260     1
  13258  13267     1
  13258  13263     1
  13258  13271     1
  13258  13269     1
  13258  13277     1
  13259  13264     1
  13259  13272     1
  13259  13271     1
  13260  13270     1
  13261  13272     1
  13261  13263     1
  13262  13265     1
  13262  13277     1
  13262  13264     1
  13262  13272     1
  13262  13267     1
  13262  13263     1
  13263  13266     1
  13263  13270     1
  13263  13268     1
  13264  13266     1
  13273  13276     1
  13273  13277     1
  13274  13276     1
  13274  13277     1
  13278  13286     1
  13278  13294     1
  13278  13299     1
  13278  13287     1
  13279  13296     1
  13279  13297     1
  13279  13285     1
  13279  13293     1
  13280  13282     1
  13280  13291     1
  13280  13281     1
  13280  13298     1
  13280  13296     1
  13280  13297     1
  13280  13284     1
  13281  13292     1
  13281  13300     1
  13281  13283     1
  13281  13290     1
  13281  13286     1
  13281  13294     1
  13282  13294     1
  13282  13287     1
  13282  13295     1
  13283  13293     1
  13284  13286     1
  13284  13295     1
  13285  13290     1
  13285  13286     1
  13285  13288     1
  13285  13300     1
  13285  13287     1
  13285  13295     1
  13286  13291     1
  13286  13289     1
  13286  13293     1
  13287  13289     1
  13296  13300     1
  13296  13299     1
  13297  13300     1
  13297  13299     1
  13301  13309     1
  13301  13317     1
  13301  13322     1
  13301  13310     1
  13302  13308     1
  13302  13316     1
  13302  13319     1
  13302  13320     1
  13303  13305     1
  13303  13314     1
  13303  13304     1
  13303  13321     1
  13303  13319     1
  13303  13320     1
  13303  13307     1
  13304  13306     1
  13304  13313     1
  13304  13309     1
  13304  13317     1
  13304  13315     1
  13304  13323     1
  13305  13310     1
  13305  13318     1
  13305  13317     1
  13306  13316     1
  13307  13318     1
  13307  13309     1
  13308  13311     1
  13308  13323     1
  13308  13310     1
  13308  13318     1
  13308  13313     1
  13308  13309     1
  13309  13312     1
  13309  13316     1
  13309  13314     1
  13310  13312     1
  13319  13322     1
  13319  13323     1
  13320  13322     1
  13320  13323     1
  13324  13332     1
  13324  13340     1
  13324  13345     1
  13324  13333     1
  13325  13342     1
  13325  13343     1
  13325  13331     1
  13325  13339     1
  13326  13328     1
  13326  13337     1
  13326  13327     1
  13326  13344     1
  13326  13342     1
  13326  13343     1
  13326  13330     1
  13327  13338     1
  13327  13346     1
  13327  13329     1
  13327  13336     1
  13327  13332     1
  13327  13340     1
  13328  13340     1
  13328  13333     1
  13328  13341     1
  13329  13339     1
  13330  13332     1
  13330  13341     1
  13331  13336     1
  13331  13332     1
  13331  13334     1
  13331  13346     1
  13331  13333     1
  13331  13341     1
  13332  13337     1
  13332  13335     1
  13332  13339     1
  13333  13335     1
  13342  13346     1
  13342  13345     1
  13343  13346     1
  13343  13345     1
  13347  13355     1
  13347  13363     1
  13347  13368     1
  13347  13356     1
  13348  13354     1
  13348  13362     1
  13348  13365     1
  13348  13366     1
  13349  13351     1
  13349  13360     1
  13349  13350     1
  13349  13367     1
  13349  13365     1
  13349  13366     1
  13349  13353     1
  13350  13352     1
  13350  13359     1
  13350  13355     1
  13350  13363     1
  13350  13361     1
  13350  13369     1
  13351  13356     1
  13351  13364     1
  13351  13363     1
  13352  13362     1
  13353  13364     1
  13353  13355     1
  13354  13357     1
  13354  13369     1
  13354  13356     1
  13354  13364     1
  13354  13359     1
  13354  13355     1
  13355  13358     1
  13355  13362     1
  13355  13360     1
  13356  13358     1
  13365  13368     1
  13365  13369     1
  13366  13368     1
  13366  13369     1
  13370  13378     1
  13370  13386     1
  13370  13391     1
  13370  13379     1
  13371  13388     1
  13371  13389     1
  13371  13377     1
  13371  13385     1
  13372  13374     1
  13372  13383     1
  13372  13373     1
  13372  13390     1
  13372  13388     1
  13372  13389     1
  13372  13376     1
  13373  13384     1
  13373  13392     1
  13373  13375     1
  13373  13382     1
  13373  13378     1
  13373  13386     1
  13374  13386     1
  13374  13379     1
  13374  13387     1
  13375  13385     1
  13376  13378     1
  13376  13387     1
  13377  13382     1
  13377  13378     1
  13377  13380     1
  13377  13392     1
  13377  13379     1
  13377  13387     1
  13378  13383     1
  13378  13381     1
  13378  13385     1
  13379  13381     1
  13388  13392     1
  13388  13391     1
  13389  13392     1
  13389  13391     1
  13393  13401     1
  13393  13409     1
  13393  13414     1
  13393  13402     1
  13394  13400     1
  13394  13408     1
  13394  13411     1
  13394  13412     1
  13395  13397     1
  13395  13406     1
  13395  13396     1
  13395  13413     1
  13395  13411     1
  13395  13412     1
  13395  13399     1
  13396  13398     1
  13396  13405     1
  13396  13401     1
  13396  13409     1
  13396  13407     1
  13396  13415     1
  13397  13402     1
  13397  13410     1
  13397  13409     1
  13398  13408     1
  13399  13410     1
  13399  13401     1
  13400  13403     1
  13400  13415     1
  13400  13402     1
  13400  13410     1
  13400  13405     1
  13400  13401     1
  13401  13404     1
  13401  13408     1
  13401  13406     1
  13402  13404     1
  13411  13414     1
  13411  13415     1
  13412  13414     1
  13412  13415     1
  13416  13424     1
  13416  13432     1
  13416  13437     1
  13416  13425     1
  13417  13434     1
  13417  13435     1
  13417  13423     1
  13417  13431     1
  13418  13420     1
  13418  13429     1
  13418  13419     1
  13418  13436     1
  13418  13434     1
  13418  13435     1
  13418  13422     1
  13419  13430     1
  13419  13438     1
  13419  13421     1
  13419  13428     1
  13419  13424     1
  13419  13432     1
  13420  13432     1
  13420  13425     1
  13420  13433     1
  13421  13431     1
  13422  13424     1
  13422  13433     1
  13423  13428     1
  13423  13424     1
  13423  13426     1
  13423  13438     1
  13423  13425     1
  13423  13433     1
  13424  13429     1
  13424  13427     1
  13424  13431     1
  13425  13427     1
  13434  13438     1
  13434  13437     1
  13435  13438     1
  13435  13437     1
  13439  13447     1
  13439  13455     1
  13439  13460     1
  13439  13448     1
  13440  13446     1
  13440  13454     1
  13440  13457     1
  13440  13458     1
  13441  13443     1
  13441  13452     1
  13441  13442     1
  13441  13459     1
  13441  13457     1
  13441  13458     1
  13441  13445     1
  13442  13444     1
  13442  13451     1
  13442  13447     1
  13442  13455     1
  13442  13453     1
  13442  13461     1
  13443  13448     1
  13443  13456     1
  13443  13455     1
  13444  13454     1
  13445  13456     1
  13445  13447     1
  13446  13449     1
  13446  13461     1
  13446  13448     1
  13446  13456     1
  13446  13451     1
  13446  13447     1
  13447  13450     1
  13447  13454     1
  13447  13452     1
  13448  13450     1
  13457  13460     1
  13457  13461     1
  13458  13460     1
  13458  13461     1
  13462  13470     1
  13462  13478     1
  13462  13483     1
  13462  13471     1
  13463  13480     1
  13463  13481     1
  13463  13469     1
  13463  13477     1
  13464  13466     1
  13464  13475     1
  13464  13465     1
  13464  13482     1
  13464  13480     1
  13464  13481     1
  13464  13468     1
  13465  13476     1
  13465  13484     1
  13465  13467     1
  13465  13474     1
  13465  13470     1
  13465  13478     1
  13466  13478     1
  13466  13471     1
  13466  13479     1
  13467  13477     1
  13468  13470     1
  13468  13479     1
  13469  13474     1
  13469  13470     1
  13469  13472     1
  13469  13484     1
  13469  13471     1
  13469  13479     1
  13470  13475     1
  13470  13473     1
  13470  13477     1
  13471  13473     1
  13480  13484     1
  13480  13483     1
  13481  13484     1
  13481  13483     1
  13485  13493     1
  13485  13501     1
  13485  13506     1
  13485  13494     1
  13486  13492     1
  13486  13500     1
  13486  13503     1
  13486  13504     1
  13487  13489     1
  13487  13498     1
  13487  13488     1
  13487  13505     1
  13487  13503     1
  13487  13504     1
  13487  13491     1
  13488  13490     1
  13488  13497     1
  13488  13493     1
  13488  13501     1
  13488  13499     1
  13488  13507     1
  13489  13494     1
  13489  13502     1
  13489  13501     1
  13490  13500     1
  13491  13502     1
  13491  13493     1
  13492  13495     1
  13492  13507     1
  13492  13494     1
  13492  13502     1
  13492  13497     1
  13492  13493     1
  13493  13496     1
  13493  13500     1
  13493  13498     1
  13494  13496     1
  13503  13506     1
  13503  13507     1
  13504  13506     1
  13504  13507     1

[ angles ]
;    ai     aj     ak funct         c0         c1         c2         c3
      1      2      8     1   107.9700462 569.024000
      1      5     11     1   107.9700462 569.024000
      2      1      5     1   112.4800480 524.673600
      2      8     14     1   111.5100476 526.347200
      5     11     17     1   111.5100476 526.347200
      8     14     20     1   114.2100488 537.225600
     11     17     21     1   114.2100488 537.225600
     14     20     28     1   109.6600471 523.836800
     14     20     31     1   109.6600471 523.836800
     17     21     22     1   109.6600471 523.836800
     17     21     25     1   109.6600471 523.836800
     20     28     40     1   114.2100488 537.225600
     20     31     43     1   114.2100488 537.225600
     21     22     34     1   114.2100488 537.225600
     21     25     37     1   114.2100488 537.225600
     22     21     25     1   109.6600471 523.836800
     22     34     55     1   111.5100476 526.347200
     25     37     52     1   111.5100476 526.347200
     28     20     31     1   109.6600471 523.836800
     28     40     49     1   111.5100476 526.347200
     31     43     46     1   111.5100476 526.347200
     34     55    178     1   107.9700462 569.024000
     37     52    148     1   107.9700462 569.024000
     40     49    118     1   107.9700462 569.024000
     43     46     88     1   107.9700462 569.024000
     46     88     79     1   112.4800480 524.673600
     49    118    109     1   112.4800480 524.673600
     52    148    139     1   112.4800480 524.673600
     55    178    169     1   112.4800480 524.673600
     60     61     73     1   114.2100488 537.225600
     60     64     76     1   114.2100488 537.225600
     60     67     70     1   114.2100488 537.225600
     61     60     64     1   109.6600471 523.836800
     61     60     67     1   109.6600471 523.836800
     61     73     85     1   111.5100476 526.347200
     64     60     67     1   109.6600471 523.836800
     64     76     82     1   111.5100476 526.347200
     67     70     79     1   111.5100476 526.347200
     70     79     88     1   107.9700462 569.024000
     73     85    238     1   107.9700462 569.024000
     76     82    208     1   107.9700462 569.024000
     82    208    199     1   112.4800480 524.673600
     85    238    229     1   112.4800480 524.673600
     90     91    103     1   114.2100488 537.225600
     90     94    106     1   114.2100488 537.225600
     90     97    100     1   114.2100488 537.225600
     91     90     94     1   109.6600471 523.836800
     91     90     97     1   109.6600471 523.836800
     91    103    115     1   111.5100476 526.347200
     94     90     97     1   109.6600471 523.836800
     94    106    112     1   111.5100476 526.347200
     97    100    109     1   111.5100476 526.347200
    100    109    118     1   107.9700462 569.024000
    103    115    298     1   107.9700462 569.024000
    106    112    268     1   107.9700462 569.024000
    112    268    259     1   112.4800480 524.673600
    115    298    289     1   112.4800480 524.673600
    120    121    133     1   114.2100488 537.225600
    120    124    136     1   114.2100488 537.225600
    120    127    130     1   114.2100488 537.225600
    121    120    124     1   109.6600471 523.836800
    121    120    127     1   109.6600471 523.836800
    121    133    145     1   111.5100476 526.347200
    124    120    127     1   109.6600471 523.836800
    124    136    142     1   111.5100476 526.347200
    127    130    139     1   111.5100476 526.347200
    130    139    148     1   107.9700462 569.024000
    133    145    358     1   107.9700462 569.024000
    136    142    328     1   107.9700462 569.024000
    142    328    319     1   112.4800480 524.673600
    145    358    349     1   112.4800480 524.673600
    150    151    163     1   114.2100488 537.225600
    150    154    166     1   114.2100488 537.225600
    150    157    160     1   114.2100488 537.225600
    151    150    154     1   109.6600471 523.836800
    151    150    157     1   109.6600471 523.836800
    151    163    175     1   111.5100476 526.347200
    154    150    157     1   109.6600471 523.836800
    154    166    172     1   111.5100476 526.347200
    157    160    169     1   111.5100476 526.347200
    160    169    178     1   107.9700462 569.024000
    163    175    418     1   107.9700462 569.024000
    166    172    388     1   107.9700462 569.024000
    172    388    379     1   112.4800480 524.673600
    175    418    409     1   112.4800480 524.673600
    180    181    193     1   114.2100488 537.225600
    180    184    196     1   114.2100488 537.225600
    180    187    190     1   114.2100488 537.225600
    181    180    184     1   109.6600471 523.836800
    181    180    187     1   109.6600471 523.836800
    181    193    205     1   111.5100476 526.347200
    184    180    187     1   109.6600471 523.836800
    184    196    202     1   111.5100476 526.347200
    187    190    199     1   111.5100476 526.347200
    190    199    208     1   107.9700462 569.024000
    193    205    478     1   107.9700462 569.024000
    196    202    448     1   107.9700462 569.024000
    202    448    439     1   112.4800480 524.673600
    205    478    469     1   112.4800480 524.673600
    210    211    223     1   114.2100488 537.225600
    210    214    226     1   114.2100488 537.225600
    210    217    220     1   114.2100488 537.225600
    211    210    214     1   109.6600471 523.836800
    211    210    217     1   109.6600471 523.836800
    211    223    235     1   111.5100476 526.347200
    214    210    217     1   109.6600471 523.836800
    214    226    232     1   111.5100476 526.347200
    217    220    229     1   111.5100476 526.347200
    220    229    238     1   107.9700462 569.024000
    223    235    538     1   107.9700462 569.024000
    226    232    508     1   107.9700462 569.024000
    232    508    499     1   112.4800480 524.673600
    235    538    529     1   112.4800480 524.673600
    240    241    253     1   114.2100488 537.225600
    240    244    256     1   114.2100488 537.225600
    240    247    250     1   114.2100488 537.225600
    241    240    244     1   109.6600471 523.836800
    241    240    247     1   109.6600471 523.836800
    241    253    265     1   111.5100476 526.347200
    244    240    247     1   109.6600471 523.836800
    244    256    262     1   111.5100476 526.347200
    247    250    259     1   111.5100476 526.347200
    250    259    268     1   107.9700462 569.024000
    253    265    598     1   107.9700462 569.024000
    256    262    568     1   107.9700462 569.024000
    262    568    559     1   112.4800480 524.673600
    265    598    589     1   112.4800480 524.673600
    270    271    283     1   114.2100488 537.225600
    270    274    286     1   114.2100488 537.225600
    270    277    280     1   114.2100488 537.225600
    271    270    274     1   109.6600471 523.836800
    271    270    277     1   109.6600471 523.836800
    271    283    295     1   111.5100476 526.347200
    274    270    277     1   109.6600471 523.836800
    274    286    292     1   111.5100476 526.347200
    277    280    289     1   111.5100476 526.347200
    280    289    298     1   107.9700462 569.024000
    283    295    658     1   107.9700462 569.024000
    286    292    628     1   107.9700462 569.024000
    292    628    619     1   112.4800480 524.673600
    295    658    649     1   112.4800480 524.673600
    300    301    313     1   114.2100488 537.225600
    300    304    316     1   114.2100488 537.225600
    300    307    310     1   114.2100488 537.225600
    301    300    304     1   109.6600471 523.836800
    301    300    307     1   109.6600471 523.836800
    301    313    325     1   111.5100476 526.347200
    304    300    307     1   109.6600471 523.836800
    304    316    322     1   111.5100476 526.347200
    307    310    319     1   111.5100476 526.347200
    310    319    328     1   107.9700462 569.024000
    313    325    718     1   107.9700462 569.024000
    316    322    688     1   107.9700462 569.024000
    322    688    679     1   112.4800480 524.673600
    325    718    709     1   112.4800480 524.673600
    330    331    343     1   114.2100488 537.225600
    330    334    346     1   114.2100488 537.225600
    330    337    340     1   114.2100488 537.225600
    331    330    334     1   109.6600471 523.836800
    331    330    337     1   109.6600471 523.836800
    331    343    355     1   111.5100476 526.347200
    334    330    337     1   109.6600471 523.836800
    334    346    352     1   111.5100476 526.347200
    337    340    349     1   111.5100476 526.347200
    340    349    358     1   107.9700462 569.024000
    343    355    778     1   107.9700462 569.024000
    346    352    748     1   107.9700462 569.024000
    352    748    739     1   112.4800480 524.673600
    355    778    769     1   112.4800480 524.673600
    360    361    373     1   114.2100488 537.225600
    360    364    376     1   114.2100488 537.225600
    360    367    370     1   114.2100488 537.225600
    361    360    364     1   109.6600471 523.836800
    361    360    367     1   109.6600471 523.836800
    361    373    385     1   111.5100476 526.347200
    364    360    367     1   109.6600471 523.836800
    364    376    382     1   111.5100476 526.347200
    367    370    379     1   111.5100476 526.347200
    370    379    388     1   107.9700462 569.024000
    373    385    838     1   107.9700462 569.024000
    376    382    808     1   107.9700462 569.024000
    382    808    799     1   112.4800480 524.673600
    385    838    829     1   112.4800480 524.673600
    390    391    403     1   114.2100488 537.225600
    390    394    406     1   114.2100488 537.225600
    390    397    400     1   114.2100488 537.225600
    391    390    394     1   109.6600471 523.836800
    391    390    397     1   109.6600471 523.836800
    391    403    415     1   111.5100476 526.347200
    394    390    397     1   109.6600471 523.836800
    394    406    412     1   111.5100476 526.347200
    397    400    409     1   111.5100476 526.347200
    400    409    418     1   107.9700462 569.024000
    403    415    898     1   107.9700462 569.024000
    406    412    868     1   107.9700462 569.024000
    412    868    859     1   112.4800480 524.673600
    415    898    889     1   112.4800480 524.673600
    420    421    433     1   114.2100488 537.225600
    420    424    436     1   114.2100488 537.225600
    420    427    430     1   114.2100488 537.225600
    421    420    424     1   109.6600471 523.836800
    421    420    427     1   109.6600471 523.836800
    421    433    445     1   111.5100476 526.347200
    424    420    427     1   109.6600471 523.836800
    424    436    442     1   111.5100476 526.347200
    427    430    439     1   111.5100476 526.347200
    430    439    448     1   107.9700462 569.024000
    433    445    958     1   107.9700462 569.024000
    436    442    928     1   107.9700462 569.024000
    442    928    919     1   112.4800480 524.673600
    445    958    949     1   112.4800480 524.673600
    450    451    463     1   114.2100488 537.225600
    450    454    466     1   114.2100488 537.225600
    450    457    460     1   114.2100488 537.225600
    451    450    454     1   109.6600471 523.836800
    451    450    457     1   109.6600471 523.836800
    451    463    475     1   111.5100476 526.347200
    454    450    457     1   109.6600471 523.836800
    454    466    472     1   111.5100476 526.347200
    457    460    469     1   111.5100476 526.347200
    460    469    478     1   107.9700462 569.024000
    463    475   1018     1   107.9700462 569.024000
    466    472    988     1   107.9700462 569.024000
    472    988    979     1   112.4800480 524.673600
    475   1018   1009     1   112.4800480 524.673600
    480    481    493     1   114.2100488 537.225600
    480    484    496     1   114.2100488 537.225600
    480    487    490     1   114.2100488 537.225600
    481    480    484     1   109.6600471 523.836800
    481    480    487     1   109.6600471 523.836800
    481    493    505     1   111.5100476 526.347200
    484    480    487     1   109.6600471 523.836800
    484    496    502     1   111.5100476 526.347200
    487    490    499     1   111.5100476 526.347200
    490    499    508     1   107.9700462 569.024000
    493    505   1078     1   107.9700462 569.024000
    496    502   1048     1   107.9700462 569.024000
    502   1048   1039     1   112.4800480 524.673600
    505   1078   1069     1   112.4800480 524.673600
    510    511    523     1   114.2100488 537.225600
    510    514    526     1   114.2100488 537.225600
    510    517    520     1   114.2100488 537.225600
    511    510    514     1   109.6600471 523.836800
    511    510    517     1   109.6600471 523.836800
    511    523    535     1   111.5100476 526.347200
    514    510    517     1   109.6600471 523.836800
    514    526    532     1   111.5100476 526.347200
    517    520    529     1   111.5100476 526.347200
    520    529    538     1   107.9700462 569.024000
    523    535   1138     1   107.9700462 569.024000
    526    532   1108     1   107.9700462 569.024000
    532   1108   1099     1   112.4800480 524.673600
    535   1138   1129     1   112.4800480 524.673600
    540    541    553     1   114.2100488 537.225600
    540    544    556     1   114.2100488 537.225600
    540    547    550     1   114.2100488 537.225600
    541    540    544     1   109.6600471 523.836800
    541    540    547     1   109.6600471 523.836800
    541    553    565     1   111.5100476 526.347200
    544    540    547     1   109.6600471 523.836800
    544    556    562     1   111.5100476 526.347200
    547    550    559     1   111.5100476 526.347200
    550    559    568     1   107.9700462 569.024000
    553    565   1198     1   107.9700462 569.024000
    556    562   1168     1   107.9700462 569.024000
    562   1168   1159     1   112.4800480 524.673600
    565   1198   1189     1   112.4800480 524.673600
    570    571    583     1   114.2100488 537.225600
    570    574    586     1   114.2100488 537.225600
    570    577    580     1   114.2100488 537.225600
    571    570    574     1   109.6600471 523.836800
    571    570    577     1   109.6600471 523.836800
    571    583    595     1   111.5100476 526.347200
    574    570    577     1   109.6600471 523.836800
    574    586    592     1   111.5100476 526.347200
    577    580    589     1   111.5100476 526.347200
    580    589    598     1   107.9700462 569.024000
    583    595   1258     1   107.9700462 569.024000
    586    592   1228     1   107.9700462 569.024000
    592   1228   1219     1   112.4800480 524.673600
    595   1258   1249     1   112.4800480 524.673600
    600    601    613     1   114.2100488 537.225600
    600    604    616     1   114.2100488 537.225600
    600    607    610     1   114.2100488 537.225600
    601    600    604     1   109.6600471 523.836800
    601    600    607     1   109.6600471 523.836800
    601    613    625     1   111.5100476 526.347200
    604    600    607     1   109.6600471 523.836800
    604    616    622     1   111.5100476 526.347200
    607    610    619     1   111.5100476 526.347200
    610    619    628     1   107.9700462 569.024000
    613    625   1318     1   107.9700462 569.024000
    616    622   1288     1   107.9700462 569.024000
    622   1288   1279     1   112.4800480 524.673600
    625   1318   1309     1   112.4800480 524.673600
    630    631    643     1   114.2100488 537.225600
    630    634    646     1   114.2100488 537.225600
    630    637    640     1   114.2100488 537.225600
    631    630    634     1   109.6600471 523.836800
    631    630    637     1   109.6600471 523.836800
    631    643    655     1   111.5100476 526.347200
    634    630    637     1   109.6600471 523.836800
    634    646    652     1   111.5100476 526.347200
    637    640    649     1   111.5100476 526.347200
    640    649    658     1   107.9700462 569.024000
    643    655   1378     1   107.9700462 569.024000
    646    652   1348     1   107.9700462 569.024000
    652   1348   1339     1   112.4800480 524.673600
    655   1378   1369     1   112.4800480 524.673600
    660    661    673     1   114.2100488 537.225600
    660    664    676     1   114.2100488 537.225600
    660    667    670     1   114.2100488 537.225600
    661    660    664     1   109.6600471 523.836800
    661    660    667     1   109.6600471 523.836800
    661    673    685     1   111.5100476 526.347200
    664    660    667     1   109.6600471 523.836800
    664    676    682     1   111.5100476 526.347200
    667    670    679     1   111.5100476 526.347200
    670    679    688     1   107.9700462 569.024000
    673    685   1438     1   107.9700462 569.024000
    676    682   1408     1   107.9700462 569.024000
    682   1408   1399     1   112.4800480 524.673600
    685   1438   1429     1   112.4800480 524.673600
    690    691    703     1   114.2100488 537.225600
    690    694    706     1   114.2100488 537.225600
    690    697    700     1   114.2100488 537.225600
    691    690    694     1   109.6600471 523.836800
    691    690    697     1   109.6600471 523.836800
    691    703    715     1   111.5100476 526.347200
    694    690    697     1   109.6600471 523.836800
    694    706    712     1   111.5100476 526.347200
    697    700    709     1   111.5100476 526.347200
    700    709    718     1   107.9700462 569.024000
    703    715   1498     1   107.9700462 569.024000
    706    712   1468     1   107.9700462 569.024000
    712   1468   1459     1   112.4800480 524.673600
    715   1498   1489     1   112.4800480 524.673600
    720    721    733     1   114.2100488 537.225600
    720    724    736     1   114.2100488 537.225600
    720    727    730     1   114.2100488 537.225600
    721    720    724     1   109.6600471 523.836800
    721    720    727     1   109.6600471 523.836800
    721    733    745     1   111.5100476 526.347200
    724    720    727     1   109.6600471 523.836800
    724    736    742     1   111.5100476 526.347200
    727    730    739     1   111.5100476 526.347200
    730    739    748     1   107.9700462 569.024000
    733    745   1558     1   107.9700462 569.024000
    736    742   1528     1   107.9700462 569.024000
    742   1528   1519     1   112.4800480 524.673600
    745   1558   1549     1   112.4800480 524.673600
    750    751    763     1   114.2100488 537.225600
    750    754    766     1   114.2100488 537.225600
    750    757    760     1   114.2100488 537.225600
    751    750    754     1   109.6600471 523.836800
    751    750    757     1   109.6600471 523.836800
    751    763    775     1   111.5100476 526.347200
    754    750    757     1   109.6600471 523.836800
    754    766    772     1   111.5100476 526.347200
    757    760    769     1   111.5100476 526.347200
    760    769    778     1   107.9700462 569.024000
    763    775   1618     1   107.9700462 569.024000
    766    772   1588     1   107.9700462 569.024000
    772   1588   1579     1   112.4800480 524.673600
    775   1618   1609     1   112.4800480 524.673600
    780    781    793     1   114.2100488 537.225600
    780    784    796     1   114.2100488 537.225600
    780    787    790     1   114.2100488 537.225600
    781    780    784     1   109.6600471 523.836800
    781    780    787     1   109.6600471 523.836800
    781    793    805     1   111.5100476 526.347200
    784    780    787     1   109.6600471 523.836800
    784    796    802     1   111.5100476 526.347200
    787    790    799     1   111.5100476 526.347200
    790    799    808     1   107.9700462 569.024000
    793    805   1678     1   107.9700462 569.024000
    796    802   1648     1   107.9700462 569.024000
    802   1648   1639     1   112.4800480 524.673600
    805   1678   1669     1   112.4800480 524.673600
    810    811    823     1   114.2100488 537.225600
    810    814    826     1   114.2100488 537.225600
    810    817    820     1   114.2100488 537.225600
    811    810    814     1   109.6600471 523.836800
    811    810    817     1   109.6600471 523.836800
    811    823    835     1   111.5100476 526.347200
    814    810    817     1   109.6600471 523.836800
    814    826    832     1   111.5100476 526.347200
    817    820    829     1   111.5100476 526.347200
    820    829    838     1   107.9700462 569.024000
    823    835   1738     1   107.9700462 569.024000
    826    832   1708     1   107.9700462 569.024000
    832   1708   1699     1   112.4800480 524.673600
    835   1738   1729     1   112.4800480 524.673600
    840    841    853     1   114.2100488 537.225600
    840    844    856     1   114.2100488 537.225600
    840    847    850     1   114.2100488 537.225600
    841    840    844     1   109.6600471 523.836800
    841    840    847     1   109.6600471 523.836800
    841    853    865     1   111.5100476 526.347200
    844    840    847     1   109.6600471 523.836800
    844    856    862     1   111.5100476 526.347200
    847    850    859     1   111.5100476 526.347200
    850    859    868     1   107.9700462 569.024000
    853    865   1798     1   107.9700462 569.024000
    856    862   1768     1   107.9700462 569.024000
    862   1768   1759     1   112.4800480 524.673600
    865   1798   1789     1   112.4800480 524.673600
    870    871    883     1   114.2100488 537.225600
    870    874    886     1   114.2100488 537.225600
    870    877    880     1   114.2100488 537.225600
    871    870    874     1   109.6600471 523.836800
    871    870    877     1   109.6600471 523.836800
    871    883    895     1   111.5100476 526.347200
    874    870    877     1   109.6600471 523.836800
    874    886    892     1   111.5100476 526.347200
    877    880    889     1   111.5100476 526.347200
    880    889    898     1   107.9700462 569.024000
    883    895   1858     1   107.9700462 569.024000
    886    892   1828     1   107.9700462 569.024000
    892   1828   1819     1   112.4800480 524.673600
    895   1858   1849     1   112.4800480 524.673600
    900    901    913     1   114.2100488 537.225600
    900    904    916     1   114.2100488 537.225600
    900    907    910     1   114.2100488 537.225600
    901    900    904     1   109.6600471 523.836800
    901    900    907     1   109.6600471 523.836800
    901    913    925     1   111.5100476 526.347200
    904    900    907     1   109.6600471 523.836800
    904    916    922     1   111.5100476 526.347200
    907    910    919     1   111.5100476 526.347200
    910    919    928     1   107.9700462 569.024000
    913    925   1918     1   107.9700462 569.024000
    916    922   1888     1   107.9700462 569.024000
    922   1888   1879     1   112.4800480 524.673600
    925   1918   1909     1   112.4800480 524.673600
    930    931    943     1   114.2100488 537.225600
    930    934    946     1   114.2100488 537.225600
    930    937    940     1   114.2100488 537.225600
    931    930    934     1   109.6600471 523.836800
    931    930    937     1   109.6600471 523.836800
    931    943    955     1   111.5100476 526.347200
    934    930    937     1   109.6600471 523.836800
    934    946    952     1   111.5100476 526.347200
    937    940    949     1   111.5100476 526.347200
    940    949    958     1   107.9700462 569.024000
    943    955   1978     1   107.9700462 569.024000
    946    952   1948     1   107.9700462 569.024000
    952   1948   1939     1   112.4800480 524.673600
    955   1978   1969     1   112.4800480 524.673600
    960    961    973     1   114.2100488 537.225600
    960    964    976     1   114.2100488 537.225600
    960    967    970     1   114.2100488 537.225600
    961    960    964     1   109.6600471 523.836800
    961    960    967     1   109.6600471 523.836800
    961    973    985     1   111.5100476 526.347200
    964    960    967     1   109.6600471 523.836800
    964    976    982     1   111.5100476 526.347200
    967    970    979     1   111.5100476 526.347200
    970    979    988     1   107.9700462 569.024000
    973    985   2038     1   107.9700462 569.024000
    976    982   2008     1   107.9700462 569.024000
    982   2008   1999     1   112.4800480 524.673600
    985   2038   2029     1   112.4800480 524.673600
    990    991   1003     1   114.2100488 537.225600
    990    994   1006     1   114.2100488 537.225600
    990    997   1000     1   114.2100488 537.225600
    991    990    994     1   109.6600471 523.836800
    991    990    997     1   109.6600471 523.836800
    991   1003   1015     1   111.5100476 526.347200
    994    990    997     1   109.6600471 523.836800
    994   1006   1012     1   111.5100476 526.347200
    997   1000   1009     1   111.5100476 526.347200
   1000   1009   1018     1   107.9700462 569.024000
   1003   1015   2098     1   107.9700462 569.024000
   1006   1012   2068     1   107.9700462 569.024000
   1012   2068   2059     1   112.4800480 524.673600
   1015   2098   2089     1   112.4800480 524.673600
   1020   1021   1033     1   114.2100488 537.225600
   1020   1024   1036     1   114.2100488 537.225600
   1020   1027   1030     1   114.2100488 537.225600
   1021   1020   1024     1   109.6600471 523.836800
   1021   1020   1027     1   109.6600471 523.836800
   1021   1033   1045     1   111.5100476 526.347200
   1024   1020   1027     1   109.6600471 523.836800
   1024   1036   1042     1   111.5100476 526.347200
   1027   1030   1039     1   111.5100476 526.347200
   1030   1039   1048     1   107.9700462 569.024000
   1033   1045   2158     1   107.9700462 569.024000
   1036   1042   2128     1   107.9700462 569.024000
   1042   2128   2119     1   112.4800480 524.673600
   1045   2158   2149     1   112.4800480 524.673600
   1050   1051   1063     1   114.2100488 537.225600
   1050   1054   1066     1   114.2100488 537.225600
   1050   1057   1060     1   114.2100488 537.225600
   1051   1050   1054     1   109.6600471 523.836800
   1051   1050   1057     1   109.6600471 523.836800
   1051   1063   1075     1   111.5100476 526.347200
   1054   1050   1057     1   109.6600471 523.836800
   1054   1066   1072     1   111.5100476 526.347200
   1057   1060   1069     1   111.5100476 526.347200
   1060   1069   1078     1   107.9700462 569.024000
   1063   1075   2218     1   107.9700462 569.024000
   1066   1072   2188     1   107.9700462 569.024000
   1072   2188   2179     1   112.4800480 524.673600
   1075   2218   2209     1   112.4800480 524.673600
   1080   1081   1093     1   114.2100488 537.225600
   1080   1084   1096     1   114.2100488 537.225600
   1080   1087   1090     1   114.2100488 537.225600
   1081   1080   1084     1   109.6600471 523.836800
   1081   1080   1087     1   109.6600471 523.836800
   1081   1093   1105     1   111.5100476 526.347200
   1084   1080   1087     1   109.6600471 523.836800
   1084   1096   1102     1   111.5100476 526.347200
   1087   1090   1099     1   111.5100476 526.347200
   1090   1099   1108     1   107.9700462 569.024000
   1093   1105   2278     1   107.9700462 569.024000
   1096   1102   2248     1   107.9700462 569.024000
   1102   2248   2239     1   112.4800480 524.673600
   1105   2278   2269     1   112.4800480 524.673600
   1110   1111   1123     1   114.2100488 537.225600
   1110   1114   1126     1   114.2100488 537.225600
   1110   1117   1120     1   114.2100488 537.225600
   1111   1110   1114     1   109.6600471 523.836800
   1111   1110   1117     1   109.6600471 523.836800
   1111   1123   1135     1   111.5100476 526.347200
   1114   1110   1117     1   109.6600471 523.836800
   1114   1126   1132     1   111.5100476 526.347200
   1117   1120   1129     1   111.5100476 526.347200
   1120   1129   1138     1   107.9700462 569.024000
   1123   1135   2338     1   107.9700462 569.024000
   1126   1132   2308     1   107.9700462 569.024000
   1132   2308   2299     1   112.4800480 524.673600
   1135   2338   2329     1   112.4800480 524.673600
   1140   1141   1153     1   114.2100488 537.225600
   1140   1144   1156     1   114.2100488 537.225600
   1140   1147   1150     1   114.2100488 537.225600
   1141   1140   1144     1   109.6600471 523.836800
   1141   1140   1147     1   109.6600471 523.836800
   1141   1153   1165     1   111.5100476 526.347200
   1144   1140   1147     1   109.6600471 523.836800
   1144   1156   1162     1   111.5100476 526.347200
   1147   1150   1159     1   111.5100476 526.347200
   1150   1159   1168     1   107.9700462 569.024000
   1153   1165   2398     1   107.9700462 569.024000
   1156   1162   2368     1   107.9700462 569.024000
   1162   2368   2359     1   112.4800480 524.673600
   1165   2398   2389     1   112.4800480 524.673600
   1170   1171   1183     1   114.2100488 537.225600
   1170   1174   1186     1   114.2100488 537.225600
   1170   1177   1180     1   114.2100488 537.225600
   1171   1170   1174     1   109.6600471 523.836800
   1171   1170   1177     1   109.6600471 523.836800
   1171   1183   1195     1   111.5100476 526.347200
   1174   1170   1177     1   109.6600471 523.836800
   1174   1186   1192     1   111.5100476 526.347200
   1177   1180   1189     1   111.5100476 526.347200
   1180   1189   1198     1   107.9700462 569.024000
   1183   1195   2458     1   107.9700462 569.024000
   1186   1192   2428     1   107.9700462 569.024000
   1192   2428   2419     1   112.4800480 524.673600
   1195   2458   2449     1   112.4800480 524.673600
   1200   1201   1213     1   114.2100488 537.225600
   1200   1204   1216     1   114.2100488 537.225600
   1200   1207   1210     1   114.2100488 537.225600
   1201   1200   1204     1   109.6600471 523.836800
   1201   1200   1207     1   109.6600471 523.836800
   1201   1213   1225     1   111.5100476 526.347200
   1204   1200   1207     1   109.6600471 523.836800
   1204   1216   1222     1   111.5100476 526.347200
   1207   1210   1219     1   111.5100476 526.347200
   1210   1219   1228     1   107.9700462 569.024000
   1213   1225   2518     1   107.9700462 569.024000
   1216   1222   2488     1   107.9700462 569.024000
   1222   2488   2479     1   112.4800480 524.673600
   1225   2518   2509     1   112.4800480 524.673600
   1230   1231   1243     1   114.2100488 537.225600
   1230   1234   1246     1   114.2100488 537.225600
   1230   1237   1240     1   114.2100488 537.225600
   1231   1230   1234     1   109.6600471 523.836800
   1231   1230   1237     1   109.6600471 523.836800
   1231   1243   1255     1   111.5100476 526.347200
   1234   1230   1237     1   109.6600471 523.836800
   1234   1246   1252     1   111.5100476 526.347200
   1237   1240   1249     1   111.5100476 526.347200
   1240   1249   1258     1   107.9700462 569.024000
   1243   1255   2578     1   107.9700462 569.024000
   1246   1252   2548     1   107.9700462 569.024000
   1252   2548   2539     1   112.4800480 524.673600
   1255   2578   2569     1   112.4800480 524.673600
   1260   1261   1273     1   114.2100488 537.225600
   1260   1264   1276     1   114.2100488 537.225600
   1260   1267   1270     1   114.2100488 537.225600
   1261   1260   1264     1   109.6600471 523.836800
   1261   1260   1267     1   109.6600471 523.836800
   1261   1273   1285     1   111.5100476 526.347200
   1264   1260   1267     1   109.6600471 523.836800
   1264   1276   1282     1   111.5100476 526.347200
   1267   1270   1279     1   111.5100476 526.347200
   1270   1279   1288     1   107.9700462 569.024000
   1273   1285   2638     1   107.9700462 569.024000
   1276   1282   2608     1   107.9700462 569.024000
   1282   2608   2599     1   112.4800480 524.673600
   1285   2638   2629     1   112.4800480 524.673600
   1290   1291   1303     1   114.2100488 537.225600
   1290   1294   1306     1   114.2100488 537.225600
   1290   1297   1300     1   114.2100488 537.225600
   1291   1290   1294     1   109.6600471 523.836800
   1291   1290   1297     1   109.6600471 523.836800
   1291   1303   1315     1   111.5100476 526.347200
   1294   1290   1297     1   109.6600471 523.836800
   1294   1306   1312     1   111.5100476 526.347200
   1297   1300   1309     1   111.5100476 526.347200
   1300   1309   1318     1   107.9700462 569.024000
   1303   1315   2698     1   107.9700462 569.024000
   1306   1312   2668     1   107.9700462 569.024000
   1312   2668   2659     1   112.4800480 524.673600
   1315   2698   2689     1   112.4800480 524.673600
   1320   1321   1333     1   114.2100488 537.225600
   1320   1324   1336     1   114.2100488 537.225600
   1320   1327   1330     1   114.2100488 537.225600
   1321   1320   1324     1   109.6600471 523.836800
   1321   1320   1327     1   109.6600471 523.836800
   1321   1333   1345     1   111.5100476 526.347200
   1324   1320   1327     1   109.6600471 523.836800
   1324   1336   1342     1   111.5100476 526.347200
   1327   1330   1339     1   111.5100476 526.347200
   1330   1339   1348     1   107.9700462 569.024000
   1333   1345   2758     1   107.9700462 569.024000
   1336   1342   2728     1   107.9700462 569.024000
   1342   2728   2719     1   112.4800480 524.673600
   1345   2758   2749     1   112.4800480 524.673600
   1350   1351   1363     1   114.2100488 537.225600
   1350   1354   1366     1   114.2100488 537.225600
   1350   1357   1360     1   114.2100488 537.225600
   1351   1350   1354     1   109.6600471 523.836800
   1351   1350   1357     1   109.6600471 523.836800
   1351   1363   1375     1   111.5100476 526.347200
   1354   1350   1357     1   109.6600471 523.836800
   1354   1366   1372     1   111.5100476 526.347200
   1357   1360   1369     1   111.5100476 526.347200
   1360   1369   1378     1   107.9700462 569.024000
   1363   1375   2818     1   107.9700462 569.024000
   1366   1372   2788     1   107.9700462 569.024000
   1372   2788   2779     1   112.4800480 524.673600
   1375   2818   2809     1   112.4800480 524.673600
   1380   1381   1393     1   114.2100488 537.225600
   1380   1384   1396     1   114.2100488 537.225600
   1380   1387   1390     1   114.2100488 537.225600
   1381   1380   1384     1   109.6600471 523.836800
   1381   1380   1387     1   109.6600471 523.836800
   1381   1393   1405     1   111.5100476 526.347200
   1384   1380   1387     1   109.6600471 523.836800
   1384   1396   1402     1   111.5100476 526.347200
   1387   1390   1399     1   111.5100476 526.347200
   1390   1399   1408     1   107.9700462 569.024000
   1393   1405   2878     1   107.9700462 569.024000
   1396   1402   2848     1   107.9700462 569.024000
   1402   2848   2839     1   112.4800480 524.673600
   1405   2878   2869     1   112.4800480 524.673600
   1410   1411   1423     1   114.2100488 537.225600
   1410   1414   1426     1   114.2100488 537.225600
   1410   1417   1420     1   114.2100488 537.225600
   1411   1410   1414     1   109.6600471 523.836800
   1411   1410   1417     1   109.6600471 523.836800
   1411   1423   1435     1   111.5100476 526.347200
   1414   1410   1417     1   109.6600471 523.836800
   1414   1426   1432     1   111.5100476 526.347200
   1417   1420   1429     1   111.5100476 526.347200
   1420   1429   1438     1   107.9700462 569.024000
   1423   1435   2938     1   107.9700462 569.024000
   1426   1432   2908     1   107.9700462 569.024000
   1432   2908   2899     1   112.4800480 524.673600
   1435   2938   2929     1   112.4800480 524.673600
   1440   1441   1453     1   114.2100488 537.225600
   1440   1444   1456     1   114.2100488 537.225600
   1440   1447   1450     1   114.2100488 537.225600
   1441   1440   1444     1   109.6600471 523.836800
   1441   1440   1447     1   109.6600471 523.836800
   1441   1453   1465     1   111.5100476 526.347200
   1444   1440   1447     1   109.6600471 523.836800
   1444   1456   1462     1   111.5100476 526.347200
   1447   1450   1459     1   111.5100476 526.347200
   1450   1459   1468     1   107.9700462 569.024000
   1453   1465   2998     1   107.9700462 569.024000
   1456   1462   2968     1   107.9700462 569.024000
   1462   2968   2959     1   112.4800480 524.673600
   1465   2998   2989     1   112.4800480 524.673600
   1470   1471   1483     1   114.2100488 537.225600
   1470   1474   1486     1   114.2100488 537.225600
   1470   1477   1480     1   114.2100488 537.225600
   1471   1470   1474     1   109.6600471 523.836800
   1471   1470   1477     1   109.6600471 523.836800
   1471   1483   1495     1   111.5100476 526.347200
   1474   1470   1477     1   109.6600471 523.836800
   1474   1486   1492     1   111.5100476 526.347200
   1477   1480   1489     1   111.5100476 526.347200
   1480   1489   1498     1   107.9700462 569.024000
   1483   1495   3058     1   107.9700462 569.024000
   1486   1492   3028     1   107.9700462 569.024000
   1492   3028   3019     1   112.4800480 524.673600
   1495   3058   3049     1   112.4800480 524.673600
   1500   1501   1513     1   114.2100488 537.225600
   1500   1504   1516     1   114.2100488 537.225600
   1500   1507   1510     1   114.2100488 537.225600
   1501   1500   1504     1   109.6600471 523.836800
   1501   1500   1507     1   109.6600471 523.836800
   1501   1513   1525     1   111.5100476 526.347200
   1504   1500   1507     1   109.6600471 523.836800
   1504   1516   1522     1   111.5100476 526.347200
   1507   1510   1519     1   111.5100476 526.347200
   1510   1519   1528     1   107.9700462 569.024000
   1513   1525   3118     1   107.9700462 569.024000
   1516   1522   3088     1   107.9700462 569.024000
   1522   3088   3079     1   112.4800480 524.673600
   1525   3118   3109     1   112.4800480 524.673600
   1530   1531   1543     1   114.2100488 537.225600
   1530   1534   1546     1   114.2100488 537.225600
   1530   1537   1540     1   114.2100488 537.225600
   1531   1530   1534     1   109.6600471 523.836800
   1531   1530   1537     1   109.6600471 523.836800
   1531   1543   1555     1   111.5100476 526.347200
   1534   1530   1537     1   109.6600471 523.836800
   1534   1546   1552     1   111.5100476 526.347200
   1537   1540   1549     1   111.5100476 526.347200
   1540   1549   1558     1   107.9700462 569.024000
   1543   1555   3178     1   107.9700462 569.024000
   1546   1552   3148     1   107.9700462 569.024000
   1552   3148   3139     1   112.4800480 524.673600
   1555   3178   3169     1   112.4800480 524.673600
   1560   1561   1573     1   114.2100488 537.225600
   1560   1564   1576     1   114.2100488 537.225600
   1560   1567   1570     1   114.2100488 537.225600
   1561   1560   1564     1   109.6600471 523.836800
   1561   1560   1567     1   109.6600471 523.836800
   1561   1573   1585     1   111.5100476 526.347200
   1564   1560   1567     1   109.6600471 523.836800
   1564   1576   1582     1   111.5100476 526.347200
   1567   1570   1579     1   111.5100476 526.347200
   1570   1579   1588     1   107.9700462 569.024000
   1573   1585   3238     1   107.9700462 569.024000
   1576   1582   3208     1   107.9700462 569.024000
   1582   3208   3199     1   112.4800480 524.673600
   1585   3238   3229     1   112.4800480 524.673600
   1590   1591   1603     1   114.2100488 537.225600
   1590   1594   1606     1   114.2100488 537.225600
   1590   1597   1600     1   114.2100488 537.225600
   1591   1590   1594     1   109.6600471 523.836800
   1591   1590   1597     1   109.6600471 523.836800
   1591   1603   1615     1   111.5100476 526.347200
   1594   1590   1597     1   109.6600471 523.836800
   1594   1606   1612     1   111.5100476 526.347200
   1597   1600   1609     1   111.5100476 526.347200
   1600   1609   1618     1   107.9700462 569.024000
   1603   1615   3298     1   107.9700462 569.024000
   1606   1612   3268     1   107.9700462 569.024000
   1612   3268   3259     1   112.4800480 524.673600
   1615   3298   3289     1   112.4800480 524.673600
   1620   1621   1633     1   114.2100488 537.225600
   1620   1624   1636     1   114.2100488 537.225600
   1620   1627   1630     1   114.2100488 537.225600
   1621   1620   1624     1   109.6600471 523.836800
   1621   1620   1627     1   109.6600471 523.836800
   1621   1633   1645     1   111.5100476 526.347200
   1624   1620   1627     1   109.6600471 523.836800
   1624   1636   1642     1   111.5100476 526.347200
   1627   1630   1639     1   111.5100476 526.347200
   1630   1639   1648     1   107.9700462 569.024000
   1633   1645   3358     1   107.9700462 569.024000
   1636   1642   3328     1   107.9700462 569.024000
   1642   3328   3319     1   112.4800480 524.673600
   1645   3358   3349     1   112.4800480 524.673600
   1650   1651   1663     1   114.2100488 537.225600
   1650   1654   1666     1   114.2100488 537.225600
   1650   1657   1660     1   114.2100488 537.225600
   1651   1650   1654     1   109.6600471 523.836800
   1651   1650   1657     1   109.6600471 523.836800
   1651   1663   1675     1   111.5100476 526.347200
   1654   1650   1657     1   109.6600471 523.836800
   1654   1666   1672     1   111.5100476 526.347200
   1657   1660   1669     1   111.5100476 526.347200
   1660   1669   1678     1   107.9700462 569.024000
   1663   1675   3418     1   107.9700462 569.024000
   1666   1672   3388     1   107.9700462 569.024000
   1672   3388   3379     1   112.4800480 524.673600
   1675   3418   3409     1   112.4800480 524.673600
   1680   1681   1693     1   114.2100488 537.225600
   1680   1684   1696     1   114.2100488 537.225600
   1680   1687   1690     1   114.2100488 537.225600
   1681   1680   1684     1   109.6600471 523.836800
   1681   1680   1687     1   109.6600471 523.836800
   1681   1693   1705     1   111.5100476 526.347200
   1684   1680   1687     1   109.6600471 523.836800
   1684   1696   1702     1   111.5100476 526.347200
   1687   1690   1699     1   111.5100476 526.347200
   1690   1699   1708     1   107.9700462 569.024000
   1693   1705   3478     1   107.9700462 569.024000
   1696   1702   3448     1   107.9700462 569.024000
   1702   3448   3439     1   112.4800480 524.673600
   1705   3478   3469     1   112.4800480 524.673600
   1710   1711   1723     1   114.2100488 537.225600
   1710   1714   1726     1   114.2100488 537.225600
   1710   1717   1720     1   114.2100488 537.225600
   1711   1710   1714     1   109.6600471 523.836800
   1711   1710   1717     1   109.6600471 523.836800
   1711   1723   1735     1   111.5100476 526.347200
   1714   1710   1717     1   109.6600471 523.836800
   1714   1726   1732     1   111.5100476 526.347200
   1717   1720   1729     1   111.5100476 526.347200
   1720   1729   1738     1   107.9700462 569.024000
   1723   1735   3538     1   107.9700462 569.024000
   1726   1732   3508     1   107.9700462 569.024000
   1732   3508   3499     1   112.4800480 524.673600
   1735   3538   3529     1   112.4800480 524.673600
   1740   1741   1753     1   114.2100488 537.225600
   1740   1744   1756     1   114.2100488 537.225600
   1740   1747   1750     1   114.2100488 537.225600
   1741   1740   1744     1   109.6600471 523.836800
   1741   1740   1747     1   109.6600471 523.836800
   1741   1753   1765     1   111.5100476 526.347200
   1744   1740   1747     1   109.6600471 523.836800
   1744   1756   1762     1   111.5100476 526.347200
   1747   1750   1759     1   111.5100476 526.347200
   1750   1759   1768     1   107.9700462 569.024000
   1753   1765   3598     1   107.9700462 569.024000
   1756   1762   3568     1   107.9700462 569.024000
   1762   3568   3559     1   112.4800480 524.673600
   1765   3598   3589     1   112.4800480 524.673600
   1770   1771   1783     1   114.2100488 537.225600
   1770   1774   1786     1   114.2100488 537.225600
   1770   1777   1780     1   114.2100488 537.225600
   1771   1770   1774     1   109.6600471 523.836800
   1771   1770   1777     1   109.6600471 523.836800
   1771   1783   1795     1   111.5100476 526.347200
   1774   1770   1777     1   109.6600471 523.836800
   1774   1786   1792     1   111.5100476 526.347200
   1777   1780   1789     1   111.5100476 526.347200
   1780   1789   1798     1   107.9700462 569.024000
   1783   1795   3658     1   107.9700462 569.024000
   1786   1792   3628     1   107.9700462 569.024000
   1792   3628   3619     1   112.4800480 524.673600
   1795   3658   3649     1   112.4800480 524.673600
   1800   1801   1813     1   114.2100488 537.225600
   1800   1804   1816     1   114.2100488 537.225600
   1800   1807   1810     1   114.2100488 537.225600
   1801   1800   1804     1   109.6600471 523.836800
   1801   1800   1807     1   109.6600471 523.836800
   1801   1813   1825     1   111.5100476 526.347200
   1804   1800   1807     1   109.6600471 523.836800
   1804   1816   1822     1   111.5100476 526.347200
   1807   1810   1819     1   111.5100476 526.347200
   1810   1819   1828     1   107.9700462 569.024000
   1813   1825   3718     1   107.9700462 569.024000
   1816   1822   3688     1   107.9700462 569.024000
   1822   3688   3679     1   112.4800480 524.673600
   1825   3718   3709     1   112.4800480 524.673600
   1830   1831   1843     1   114.2100488 537.225600
   1830   1834   1846     1   114.2100488 537.225600
   1830   1837   1840     1   114.2100488 537.225600
   1831   1830   1834     1   109.6600471 523.836800
   1831   1830   1837     1   109.6600471 523.836800
   1831   1843   1855     1   111.5100476 526.347200
   1834   1830   1837     1   109.6600471 523.836800
   1834   1846   1852     1   111.5100476 526.347200
   1837   1840   1849     1   111.5100476 526.347200
   1840   1849   1858     1   107.9700462 569.024000
   1843   1855   3778     1   107.9700462 569.024000
   1846   1852   3748     1   107.9700462 569.024000
   1852   3748   3739     1   112.4800480 524.673600
   1855   3778   3769     1   112.4800480 524.673600
   1860   1861   1873     1   114.2100488 537.225600
   1860   1864   1876     1   114.2100488 537.225600
   1860   1867   1870     1   114.2100488 537.225600
   1861   1860   1864     1   109.6600471 523.836800
   1861   1860   1867     1   109.6600471 523.836800
   1861   1873   1885     1   111.5100476 526.347200
   1864   1860   1867     1   109.6600471 523.836800
   1864   1876   1882     1   111.5100476 526.347200
   1867   1870   1879     1   111.5100476 526.347200
   1870   1879   1888     1   107.9700462 569.024000
   1873   1885   3838     1   107.9700462 569.024000
   1876   1882   3808     1   107.9700462 569.024000
   1882   3808   3799     1   112.4800480 524.673600
   1885   3838   3829     1   112.4800480 524.673600
   1890   1891   1903     1   114.2100488 537.225600
   1890   1894   1906     1   114.2100488 537.225600
   1890   1897   1900     1   114.2100488 537.225600
   1891   1890   1894     1   109.6600471 523.836800
   1891   1890   1897     1   109.6600471 523.836800
   1891   1903   1915     1   111.5100476 526.347200
   1894   1890   1897     1   109.6600471 523.836800
   1894   1906   1912     1   111.5100476 526.347200
   1897   1900   1909     1   111.5100476 526.347200
   1900   1909   1918     1   107.9700462 569.024000
   1903   1915   3898     1   107.9700462 569.024000
   1906   1912   3868     1   107.9700462 569.024000
   1912   3868   3859     1   112.4800480 524.673600
   1915   3898   3889     1   112.4800480 524.673600
   1920   1921   1933     1   114.2100488 537.225600
   1920   1924   1936     1   114.2100488 537.225600
   1920   1927   1930     1   114.2100488 537.225600
   1921   1920   1924     1   109.6600471 523.836800
   1921   1920   1927     1   109.6600471 523.836800
   1921   1933   1945     1   111.5100476 526.347200
   1924   1920   1927     1   109.6600471 523.836800
   1924   1936   1942     1   111.5100476 526.347200
   1927   1930   1939     1   111.5100476 526.347200
   1930   1939   1948     1   107.9700462 569.024000
   1933   1945   3958     1   107.9700462 569.024000
   1936   1942   3928     1   107.9700462 569.024000
   1942   3928   3919     1   112.4800480 524.673600
   1945   3958   3949     1   112.4800480 524.673600
   1950   1951   1963     1   114.2100488 537.225600
   1950   1954   1966     1   114.2100488 537.225600
   1950   1957   1960     1   114.2100488 537.225600
   1951   1950   1954     1   109.6600471 523.836800
   1951   1950   1957     1   109.6600471 523.836800
   1951   1963   1975     1   111.5100476 526.347200
   1954   1950   1957     1   109.6600471 523.836800
   1954   1966   1972     1   111.5100476 526.347200
   1957   1960   1969     1   111.5100476 526.347200
   1960   1969   1978     1   107.9700462 569.024000
   1963   1975   4018     1   107.9700462 569.024000
   1966   1972   3988     1   107.9700462 569.024000
   1972   3988   3979     1   112.4800480 524.673600
   1975   4018   4009     1   112.4800480 524.673600
   1980   1981   1993     1   114.2100488 537.225600
   1980   1984   1996     1   114.2100488 537.225600
   1980   1987   1990     1   114.2100488 537.225600
   1981   1980   1984     1   109.6600471 523.836800
   1981   1980   1987     1   109.6600471 523.836800
   1981   1993   2005     1   111.5100476 526.347200
   1984   1980   1987     1   109.6600471 523.836800
   1984   1996   2002     1   111.5100476 526.347200
   1987   1990   1999     1   111.5100476 526.347200
   1990   1999   2008     1   107.9700462 569.024000
   1993   2005   4078     1   107.9700462 569.024000
   1996   2002   4048     1   107.9700462 569.024000
   2002   4048   4039     1   112.4800480 524.673600
   2005   4078   4069     1   112.4800480 524.673600
   2010   2011   2023     1   114.2100488 537.225600
   2010   2014   2026     1   114.2100488 537.225600
   2010   2017   2020     1   114.2100488 537.225600
   2011   2010   2014     1   109.6600471 523.836800
   2011   2010   2017     1   109.6600471 523.836800
   2011   2023   2035     1   111.5100476 526.347200
   2014   2010   2017     1   109.6600471 523.836800
   2014   2026   2032     1   111.5100476 526.347200
   2017   2020   2029     1   111.5100476 526.347200
   2020   2029   2038     1   107.9700462 569.024000
   2023   2035   4138     1   107.9700462 569.024000
   2026   2032   4108     1   107.9700462 569.024000
   2032   4108   4099     1   112.4800480 524.673600
   2035   4138   4129     1   112.4800480 524.673600
   2040   2041   2053     1   114.2100488 537.225600
   2040   2044   2056     1   114.2100488 537.225600
   2040   2047   2050     1   114.2100488 537.225600
   2041   2040   2044     1   109.6600471 523.836800
   2041   2040   2047     1   109.6600471 523.836800
   2041   2053   2065     1   111.5100476 526.347200
   2044   2040   2047     1   109.6600471 523.836800
   2044   2056   2062     1   111.5100476 526.347200
   2047   2050   2059     1   111.5100476 526.347200
   2050   2059   2068     1   107.9700462 569.024000
   2053   2065   4198     1   107.9700462 569.024000
   2056   2062   4168     1   107.9700462 569.024000
   2062   4168   4159     1   112.4800480 524.673600
   2065   4198   4189     1   112.4800480 524.673600
   2070   2071   2083     1   114.2100488 537.225600
   2070   2074   2086     1   114.2100488 537.225600
   2070   2077   2080     1   114.2100488 537.225600
   2071   2070   2074     1   109.6600471 523.836800
   2071   2070   2077     1   109.6600471 523.836800
   2071   2083   2095     1   111.5100476 526.347200
   2074   2070   2077     1   109.6600471 523.836800
   2074   2086   2092     1   111.5100476 526.347200
   2077   2080   2089     1   111.5100476 526.347200
   2080   2089   2098     1   107.9700462 569.024000
   2083   2095   4258     1   107.9700462 569.024000
   2086   2092   4228     1   107.9700462 569.024000
   2092   4228   4219     1   112.4800480 524.673600
   2095   4258   4249     1   112.4800480 524.673600
   2100   2101   2113     1   114.2100488 537.225600
   2100   2104   2116     1   114.2100488 537.225600
   2100   2107   2110     1   114.2100488 537.225600
   2101   2100   2104     1   109.6600471 523.836800
   2101   2100   2107     1   109.6600471 523.836800
   2101   2113   2125     1   111.5100476 526.347200
   2104   2100   2107     1   109.6600471 523.836800
   2104   2116   2122     1   111.5100476 526.347200
   2107   2110   2119     1   111.5100476 526.347200
   2110   2119   2128     1   107.9700462 569.024000
   2113   2125   4318     1   107.9700462 569.024000
   2116   2122   4288     1   107.9700462 569.024000
   2122   4288   4279     1   112.4800480 524.673600
   2125   4318   4309     1   112.4800480 524.673600
   2130   2131   2143     1   114.2100488 537.225600
   2130   2134   2146     1   114.2100488 537.225600
   2130   2137   2140     1   114.2100488 537.225600
   2131   2130   2134     1   109.6600471 523.836800
   2131   2130   2137     1   109.6600471 523.836800
   2131   2143   2155     1   111.5100476 526.347200
   2134   2130   2137     1   109.6600471 523.836800
   2134   2146   2152     1   111.5100476 526.347200
   2137   2140   2149     1   111.5100476 526.347200
   2140   2149   2158     1   107.9700462 569.024000
   2143   2155   4378     1   107.9700462 569.024000
   2146   2152   4348     1   107.9700462 569.024000
   2152   4348   4339     1   112.4800480 524.673600
   2155   4378   4369     1   112.4800480 524.673600
   2160   2161   2173     1   114.2100488 537.225600
   2160   2164   2176     1   114.2100488 537.225600
   2160   2167   2170     1   114.2100488 537.225600
   2161   2160   2164     1   109.6600471 523.836800
   2161   2160   2167     1   109.6600471 523.836800
   2161   2173   2185     1   111.5100476 526.347200
   2164   2160   2167     1   109.6600471 523.836800
   2164   2176   2182     1   111.5100476 526.347200
   2167   2170   2179     1   111.5100476 526.347200
   2170   2179   2188     1   107.9700462 569.024000
   2173   2185   4438     1   107.9700462 569.024000
   2176   2182   4408     1   107.9700462 569.024000
   2182   4408   4399     1   112.4800480 524.673600
   2185   4438   4429     1   112.4800480 524.673600
   2190   2191   2203     1   114.2100488 537.225600
   2190   2194   2206     1   114.2100488 537.225600
   2190   2197   2200     1   114.2100488 537.225600
   2191   2190   2194     1   109.6600471 523.836800
   2191   2190   2197     1   109.6600471 523.836800
   2191   2203   2215     1   111.5100476 526.347200
   2194   2190   2197     1   109.6600471 523.836800
   2194   2206   2212     1   111.5100476 526.347200
   2197   2200   2209     1   111.5100476 526.347200
   2200   2209   2218     1   107.9700462 569.024000
   2203   2215   4498     1   107.9700462 569.024000
   2206   2212   4468     1   107.9700462 569.024000
   2212   4468   4459     1   112.4800480 524.673600
   2215   4498   4489     1   112.4800480 524.673600
   2220   2221   2233     1   114.2100488 537.225600
   2220   2224   2236     1   114.2100488 537.225600
   2220   2227   2230     1   114.2100488 537.225600
   2221   2220   2224     1   109.6600471 523.836800
   2221   2220   2227     1   109.6600471 523.836800
   2221   2233   2245     1   111.5100476 526.347200
   2224   2220   2227     1   109.6600471 523.836800
   2224   2236   2242     1   111.5100476 526.347200
   2227   2230   2239     1   111.5100476 526.347200
   2230   2239   2248     1   107.9700462 569.024000
   2233   2245   4558     1   107.9700462 569.024000
   2236   2242   4528     1   107.9700462 569.024000
   2242   4528   4519     1   112.4800480 524.673600
   2245   4558   4549     1   112.4800480 524.673600
   2250   2251   2263     1   114.2100488 537.225600
   2250   2254   2266     1   114.2100488 537.225600
   2250   2257   2260     1   114.2100488 537.225600
   2251   2250   2254     1   109.6600471 523.836800
   2251   2250   2257     1   109.6600471 523.836800
   2251   2263   2275     1   111.5100476 526.347200
   2254   2250   2257     1   109.6600471 523.836800
   2254   2266   2272     1   111.5100476 526.347200
   2257   2260   2269     1   111.5100476 526.347200
   2260   2269   2278     1   107.9700462 569.024000
   2263   2275   4618     1   107.9700462 569.024000
   2266   2272   4588     1   107.9700462 569.024000
   2272   4588   4579     1   112.4800480 524.673600
   2275   4618   4609     1   112.4800480 524.673600
   2280   2281   2293     1   114.2100488 537.225600
   2280   2284   2296     1   114.2100488 537.225600
   2280   2287   2290     1   114.2100488 537.225600
   2281   2280   2284     1   109.6600471 523.836800
   2281   2280   2287     1   109.6600471 523.836800
   2281   2293   2305     1   111.5100476 526.347200
   2284   2280   2287     1   109.6600471 523.836800
   2284   2296   2302     1   111.5100476 526.347200
   2287   2290   2299     1   111.5100476 526.347200
   2290   2299   2308     1   107.9700462 569.024000
   2293   2305   4678     1   107.9700462 569.024000
   2296   2302   4648     1   107.9700462 569.024000
   2302   4648   4639     1   112.4800480 524.673600
   2305   4678   4669     1   112.4800480 524.673600
   2310   2311   2323     1   114.2100488 537.225600
   2310   2314   2326     1   114.2100488 537.225600
   2310   2317   2320     1   114.2100488 537.225600
   2311   2310   2314     1   109.6600471 523.836800
   2311   2310   2317     1   109.6600471 523.836800
   2311   2323   2335     1   111.5100476 526.347200
   2314   2310   2317     1   109.6600471 523.836800
   2314   2326   2332     1   111.5100476 526.347200
   2317   2320   2329     1   111.5100476 526.347200
   2320   2329   2338     1   107.9700462 569.024000
   2323   2335   4738     1   107.9700462 569.024000
   2326   2332   4708     1   107.9700462 569.024000
   2332   4708   4699     1   112.4800480 524.673600
   2335   4738   4729     1   112.4800480 524.673600
   2340   2341   2353     1   114.2100488 537.225600
   2340   2344   2356     1   114.2100488 537.225600
   2340   2347   2350     1   114.2100488 537.225600
   2341   2340   2344     1   109.6600471 523.836800
   2341   2340   2347     1   109.6600471 523.836800
   2341   2353   2365     1   111.5100476 526.347200
   2344   2340   2347     1   109.6600471 523.836800
   2344   2356   2362     1   111.5100476 526.347200
   2347   2350   2359     1   111.5100476 526.347200
   2350   2359   2368     1   107.9700462 569.024000
   2353   2365   4798     1   107.9700462 569.024000
   2356   2362   4768     1   107.9700462 569.024000
   2362   4768   4759     1   112.4800480 524.673600
   2365   4798   4789     1   112.4800480 524.673600
   2370   2371   2383     1   114.2100488 537.225600
   2370   2374   2386     1   114.2100488 537.225600
   2370   2377   2380     1   114.2100488 537.225600
   2371   2370   2374     1   109.6600471 523.836800
   2371   2370   2377     1   109.6600471 523.836800
   2371   2383   2395     1   111.5100476 526.347200
   2374   2370   2377     1   109.6600471 523.836800
   2374   2386   2392     1   111.5100476 526.347200
   2377   2380   2389     1   111.5100476 526.347200
   2380   2389   2398     1   107.9700462 569.024000
   2383   2395   4858     1   107.9700462 569.024000
   2386   2392   4828     1   107.9700462 569.024000
   2392   4828   4819     1   112.4800480 524.673600
   2395   4858   4849     1   112.4800480 524.673600
   2400   2401   2413     1   114.2100488 537.225600
   2400   2404   2416     1   114.2100488 537.225600
   2400   2407   2410     1   114.2100488 537.225600
   2401   2400   2404     1   109.6600471 523.836800
   2401   2400   2407     1   109.6600471 523.836800
   2401   2413   2425     1   111.5100476 526.347200
   2404   2400   2407     1   109.6600471 523.836800
   2404   2416   2422     1   111.5100476 526.347200
   2407   2410   2419     1   111.5100476 526.347200
   2410   2419   2428     1   107.9700462 569.024000
   2413   2425   4918     1   107.9700462 569.024000
   2416   2422   4888     1   107.9700462 569.024000
   2422   4888   4879     1   112.4800480 524.673600
   2425   4918   4909     1   112.4800480 524.673600
   2430   2431   2443     1   114.2100488 537.225600
   2430   2434   2446     1   114.2100488 537.225600
   2430   2437   2440     1   114.2100488 537.225600
   2431   2430   2434     1   109.6600471 523.836800
   2431   2430   2437     1   109.6600471 523.836800
   2431   2443   2455     1   111.5100476 526.347200
   2434   2430   2437     1   109.6600471 523.836800
   2434   2446   2452     1   111.5100476 526.347200
   2437   2440   2449     1   111.5100476 526.347200
   2440   2449   2458     1   107.9700462 569.024000
   2443   2455   4978     1   107.9700462 569.024000
   2446   2452   4948     1   107.9700462 569.024000
   2452   4948   4939     1   112.4800480 524.673600
   2455   4978   4969     1   112.4800480 524.673600
   2460   2461   2473     1   114.2100488 537.225600
   2460   2464   2476     1   114.2100488 537.225600
   2460   2467   2470     1   114.2100488 537.225600
   2461   2460   2464     1   109.6600471 523.836800
   2461   2460   2467     1   109.6600471 523.836800
   2461   2473   2485     1   111.5100476 526.347200
   2464   2460   2467     1   109.6600471 523.836800
   2464   2476   2482     1   111.5100476 526.347200
   2467   2470   2479     1   111.5100476 526.347200
   2470   2479   2488     1   107.9700462 569.024000
   2473   2485   5038     1   107.9700462 569.024000
   2476   2482   5008     1   107.9700462 569.024000
   2482   5008   4999     1   112.4800480 524.673600
   2485   5038   5029     1   112.4800480 524.673600
   2490   2491   2503     1   114.2100488 537.225600
   2490   2494   2506     1   114.2100488 537.225600
   2490   2497   2500     1   114.2100488 537.225600
   2491   2490   2494     1   109.6600471 523.836800
   2491   2490   2497     1   109.6600471 523.836800
   2491   2503   2515     1   111.5100476 526.347200
   2494   2490   2497     1   109.6600471 523.836800
   2494   2506   2512     1   111.5100476 526.347200
   2497   2500   2509     1   111.5100476 526.347200
   2500   2509   2518     1   107.9700462 569.024000
   2503   2515   5098     1   107.9700462 569.024000
   2506   2512   5068     1   107.9700462 569.024000
   2512   5068   5059     1   112.4800480 524.673600
   2515   5098   5089     1   112.4800480 524.673600
   2520   2521   2533     1   114.2100488 537.225600
   2520   2524   2536     1   114.2100488 537.225600
   2520   2527   2530     1   114.2100488 537.225600
   2521   2520   2524     1   109.6600471 523.836800
   2521   2520   2527     1   109.6600471 523.836800
   2521   2533   2545     1   111.5100476 526.347200
   2524   2520   2527     1   109.6600471 523.836800
   2524   2536   2542     1   111.5100476 526.347200
   2527   2530   2539     1   111.5100476 526.347200
   2530   2539   2548     1   107.9700462 569.024000
   2533   2545   5158     1   107.9700462 569.024000
   2536   2542   5128     1   107.9700462 569.024000
   2542   5128   5119     1   112.4800480 524.673600
   2545   5158   5149     1   112.4800480 524.673600
   2550   2551   2563     1   114.2100488 537.225600
   2550   2554   2566     1   114.2100488 537.225600
   2550   2557   2560     1   114.2100488 537.225600
   2551   2550   2554     1   109.6600471 523.836800
   2551   2550   2557     1   109.6600471 523.836800
   2551   2563   2575     1   111.5100476 526.347200
   2554   2550   2557     1   109.6600471 523.836800
   2554   2566   2572     1   111.5100476 526.347200
   2557   2560   2569     1   111.5100476 526.347200
   2560   2569   2578     1   107.9700462 569.024000
   2563   2575   5218     1   107.9700462 569.024000
   2566   2572   5188     1   107.9700462 569.024000
   2572   5188   5179     1   112.4800480 524.673600
   2575   5218   5209     1   112.4800480 524.673600
   2580   2581   2593     1   114.2100488 537.225600
   2580   2584   2596     1   114.2100488 537.225600
   2580   2587   2590     1   114.2100488 537.225600
   2581   2580   2584     1   109.6600471 523.836800
   2581   2580   2587     1   109.6600471 523.836800
   2581   2593   2605     1   111.5100476 526.347200
   2584   2580   2587     1   109.6600471 523.836800
   2584   2596   2602     1   111.5100476 526.347200
   2587   2590   2599     1   111.5100476 526.347200
   2590   2599   2608     1   107.9700462 569.024000
   2593   2605   5278     1   107.9700462 569.024000
   2596   2602   5248     1   107.9700462 569.024000
   2602   5248   5239     1   112.4800480 524.673600
   2605   5278   5269     1   112.4800480 524.673600
   2610   2611   2623     1   114.2100488 537.225600
   2610   2614   2626     1   114.2100488 537.225600
   2610   2617   2620     1   114.2100488 537.225600
   2611   2610   2614     1   109.6600471 523.836800
   2611   2610   2617     1   109.6600471 523.836800
   2611   2623   2635     1   111.5100476 526.347200
   2614   2610   2617     1   109.6600471 523.836800
   2614   2626   2632     1   111.5100476 526.347200
   2617   2620   2629     1   111.5100476 526.347200
   2620   2629   2638     1   107.9700462 569.024000
   2623   2635   5338     1   107.9700462 569.024000
   2626   2632   5308     1   107.9700462 569.024000
   2632   5308   5299     1   112.4800480 524.673600
   2635   5338   5329     1   112.4800480 524.673600
   2640   2641   2653     1   114.2100488 537.225600
   2640   2644   2656     1   114.2100488 537.225600
   2640   2647   2650     1   114.2100488 537.225600
   2641   2640   2644     1   109.6600471 523.836800
   2641   2640   2647     1   109.6600471 523.836800
   2641   2653   2665     1   111.5100476 526.347200
   2644   2640   2647     1   109.6600471 523.836800
   2644   2656   2662     1   111.5100476 526.347200
   2647   2650   2659     1   111.5100476 526.347200
   2650   2659   2668     1   107.9700462 569.024000
   2653   2665   5398     1   107.9700462 569.024000
   2656   2662   5368     1   107.9700462 569.024000
   2662   5368   5359     1   112.4800480 524.673600
   2665   5398   5389     1   112.4800480 524.673600
   2670   2671   2683     1   114.2100488 537.225600
   2670   2674   2686     1   114.2100488 537.225600
   2670   2677   2680     1   114.2100488 537.225600
   2671   2670   2674     1   109.6600471 523.836800
   2671   2670   2677     1   109.6600471 523.836800
   2671   2683   2695     1   111.5100476 526.347200
   2674   2670   2677     1   109.6600471 523.836800
   2674   2686   2692     1   111.5100476 526.347200
   2677   2680   2689     1   111.5100476 526.347200
   2680   2689   2698     1   107.9700462 569.024000
   2683   2695   5458     1   107.9700462 569.024000
   2686   2692   5428     1   107.9700462 569.024000
   2692   5428   5419     1   112.4800480 524.673600
   2695   5458   5449     1   112.4800480 524.673600
   2700   2701   2713     1   114.2100488 537.225600
   2700   2704   2716     1   114.2100488 537.225600
   2700   2707   2710     1   114.2100488 537.225600
   2701   2700   2704     1   109.6600471 523.836800
   2701   2700   2707     1   109.6600471 523.836800
   2701   2713   2725     1   111.5100476 526.347200
   2704   2700   2707     1   109.6600471 523.836800
   2704   2716   2722     1   111.5100476 526.347200
   2707   2710   2719     1   111.5100476 526.347200
   2710   2719   2728     1   107.9700462 569.024000
   2713   2725   5518     1   107.9700462 569.024000
   2716   2722   5488     1   107.9700462 569.024000
   2722   5488   5479     1   112.4800480 524.673600
   2725   5518   5509     1   112.4800480 524.673600
   2730   2731   2743     1   114.2100488 537.225600
   2730   2734   2746     1   114.2100488 537.225600
   2730   2737   2740     1   114.2100488 537.225600
   2731   2730   2734     1   109.6600471 523.836800
   2731   2730   2737     1   109.6600471 523.836800
   2731   2743   2755     1   111.5100476 526.347200
   2734   2730   2737     1   109.6600471 523.836800
   2734   2746   2752     1   111.5100476 526.347200
   2737   2740   2749     1   111.5100476 526.347200
   2740   2749   2758     1   107.9700462 569.024000
   2743   2755   5578     1   107.9700462 569.024000
   2746   2752   5548     1   107.9700462 569.024000
   2752   5548   5539     1   112.4800480 524.673600
   2755   5578   5569     1   112.4800480 524.673600
   2760   2761   2773     1   114.2100488 537.225600
   2760   2764   2776     1   114.2100488 537.225600
   2760   2767   2770     1   114.2100488 537.225600
   2761   2760   2764     1   109.6600471 523.836800
   2761   2760   2767     1   109.6600471 523.836800
   2761   2773   2785     1   111.5100476 526.347200
   2764   2760   2767     1   109.6600471 523.836800
   2764   2776   2782     1   111.5100476 526.347200
   2767   2770   2779     1   111.5100476 526.347200
   2770   2779   2788     1   107.9700462 569.024000
   2773   2785   5638     1   107.9700462 569.024000
   2776   2782   5608     1   107.9700462 569.024000
   2782   5608   5599     1   112.4800480 524.673600
   2785   5638   5629     1   112.4800480 524.673600
   2790   2791   2803     1   114.2100488 537.225600
   2790   2794   2806     1   114.2100488 537.225600
   2790   2797   2800     1   114.2100488 537.225600
   2791   2790   2794     1   109.6600471 523.836800
   2791   2790   2797     1   109.6600471 523.836800
   2791   2803   2815     1   111.5100476 526.347200
   2794   2790   2797     1   109.6600471 523.836800
   2794   2806   2812     1   111.5100476 526.347200
   2797   2800   2809     1   111.5100476 526.347200
   2800   2809   2818     1   107.9700462 569.024000
   2803   2815   5698     1   107.9700462 569.024000
   2806   2812   5668     1   107.9700462 569.024000
   2812   5668   5659     1   112.4800480 524.673600
   2815   5698   5689     1   112.4800480 524.673600
   2820   2821   2833     1   114.2100488 537.225600
   2820   2824   2836     1   114.2100488 537.225600
   2820   2827   2830     1   114.2100488 537.225600
   2821   2820   2824     1   109.6600471 523.836800
   2821   2820   2827     1   109.6600471 523.836800
   2821   2833   2845     1   111.5100476 526.347200
   2824   2820   2827     1   109.6600471 523.836800
   2824   2836   2842     1   111.5100476 526.347200
   2827   2830   2839     1   111.5100476 526.347200
   2830   2839   2848     1   107.9700462 569.024000
   2833   2845   5758     1   107.9700462 569.024000
   2836   2842   5728     1   107.9700462 569.024000
   2842   5728   5719     1   112.4800480 524.673600
   2845   5758   5749     1   112.4800480 524.673600
   2850   2851   2863     1   114.2100488 537.225600
   2850   2854   2866     1   114.2100488 537.225600
   2850   2857   2860     1   114.2100488 537.225600
   2851   2850   2854     1   109.6600471 523.836800
   2851   2850   2857     1   109.6600471 523.836800
   2851   2863   2875     1   111.5100476 526.347200
   2854   2850   2857     1   109.6600471 523.836800
   2854   2866   2872     1   111.5100476 526.347200
   2857   2860   2869     1   111.5100476 526.347200
   2860   2869   2878     1   107.9700462 569.024000
   2863   2875   5818     1   107.9700462 569.024000
   2866   2872   5788     1   107.9700462 569.024000
   2872   5788   5779     1   112.4800480 524.673600
   2875   5818   5809     1   112.4800480 524.673600
   2880   2881   2893     1   114.2100488 537.225600
   2880   2884   2896     1   114.2100488 537.225600
   2880   2887   2890     1   114.2100488 537.225600
   2881   2880   2884     1   109.6600471 523.836800
   2881   2880   2887     1   109.6600471 523.836800
   2881   2893   2905     1   111.5100476 526.347200
   2884   2880   2887     1   109.6600471 523.836800
   2884   2896   2902     1   111.5100476 526.347200
   2887   2890   2899     1   111.5100476 526.347200
   2890   2899   2908     1   107.9700462 569.024000
   2893   2905   5878     1   107.9700462 569.024000
   2896   2902   5848     1   107.9700462 569.024000
   2902   5848   5839     1   112.4800480 524.673600
   2905   5878   5869     1   112.4800480 524.673600
   2910   2911   2923     1   114.2100488 537.225600
   2910   2914   2926     1   114.2100488 537.225600
   2910   2917   2920     1   114.2100488 537.225600
   2911   2910   2914     1   109.6600471 523.836800
   2911   2910   2917     1   109.6600471 523.836800
   2911   2923   2935     1   111.5100476 526.347200
   2914   2910   2917     1   109.6600471 523.836800
   2914   2926   2932     1   111.5100476 526.347200
   2917   2920   2929     1   111.5100476 526.347200
   2920   2929   2938     1   107.9700462 569.024000
   2923   2935   5938     1   107.9700462 569.024000
   2926   2932   5908     1   107.9700462 569.024000
   2932   5908   5899     1   112.4800480 524.673600
   2935   5938   5929     1   112.4800480 524.673600
   2940   2941   2953     1   114.2100488 537.225600
   2940   2944   2956     1   114.2100488 537.225600
   2940   2947   2950     1   114.2100488 537.225600
   2941   2940   2944     1   109.6600471 523.836800
   2941   2940   2947     1   109.6600471 523.836800
   2941   2953   2965     1   111.5100476 526.347200
   2944   2940   2947     1   109.6600471 523.836800
   2944   2956   2962     1   111.5100476 526.347200
   2947   2950   2959     1   111.5100476 526.347200
   2950   2959   2968     1   107.9700462 569.024000
   2953   2965   5998     1   107.9700462 569.024000
   2956   2962   5968     1   107.9700462 569.024000
   2962   5968   5959     1   112.4800480 524.673600
   2965   5998   5989     1   112.4800480 524.673600
   2970   2971   2983     1   114.2100488 537.225600
   2970   2974   2986     1   114.2100488 537.225600
   2970   2977   2980     1   114.2100488 537.225600
   2971   2970   2974     1   109.6600471 523.836800
   2971   2970   2977     1   109.6600471 523.836800
   2971   2983   2995     1   111.5100476 526.347200
   2974   2970   2977     1   109.6600471 523.836800
   2974   2986   2992     1   111.5100476 526.347200
   2977   2980   2989     1   111.5100476 526.347200
   2980   2989   2998     1   107.9700462 569.024000
   2983   2995   6058     1   107.9700462 569.024000
   2986   2992   6028     1   107.9700462 569.024000
   2992   6028   6019     1   112.4800480 524.673600
   2995   6058   6049     1   112.4800480 524.673600
   3000   3001   3013     1   114.2100488 537.225600
   3000   3004   3016     1   114.2100488 537.225600
   3000   3007   3010     1   114.2100488 537.225600
   3001   3000   3004     1   109.6600471 523.836800
   3001   3000   3007     1   109.6600471 523.836800
   3001   3013   3025     1   111.5100476 526.347200
   3004   3000   3007     1   109.6600471 523.836800
   3004   3016   3022     1   111.5100476 526.347200
   3007   3010   3019     1   111.5100476 526.347200
   3010   3019   3028     1   107.9700462 569.024000
   3013   3025   6118     1   107.9700462 569.024000
   3016   3022   6088     1   107.9700462 569.024000
   3022   6088   6079     1   112.4800480 524.673600
   3025   6118   6109     1   112.4800480 524.673600
   3030   3031   3043     1   114.2100488 537.225600
   3030   3034   3046     1   114.2100488 537.225600
   3030   3037   3040     1   114.2100488 537.225600
   3031   3030   3034     1   109.6600471 523.836800
   3031   3030   3037     1   109.6600471 523.836800
   3031   3043   3055     1   111.5100476 526.347200
   3034   3030   3037     1   109.6600471 523.836800
   3034   3046   3052     1   111.5100476 526.347200
   3037   3040   3049     1   111.5100476 526.347200
   3040   3049   3058     1   107.9700462 569.024000
   3043   3055   6178     1   107.9700462 569.024000
   3046   3052   6148     1   107.9700462 569.024000
   3052   6148   6139     1   112.4800480 524.673600
   3055   6178   6169     1   112.4800480 524.673600
   3060   3061   3073     1   114.2100488 537.225600
   3060   3064   3076     1   114.2100488 537.225600
   3060   3067   3070     1   114.2100488 537.225600
   3061   3060   3064     1   109.6600471 523.836800
   3061   3060   3067     1   109.6600471 523.836800
   3061   3073   3085     1   111.5100476 526.347200
   3064   3060   3067     1   109.6600471 523.836800
   3064   3076   3082     1   111.5100476 526.347200
   3067   3070   3079     1   111.5100476 526.347200
   3070   3079   3088     1   107.9700462 569.024000
   3073   3085   6238     1   107.9700462 569.024000
   3076   3082   6208     1   107.9700462 569.024000
   3082   6208   6199     1   112.4800480 524.673600
   3085   6238   6229     1   112.4800480 524.673600
   3090   3091   3103     1   114.2100488 537.225600
   3090   3094   3106     1   114.2100488 537.225600
   3090   3097   3100     1   114.2100488 537.225600
   3091   3090   3094     1   109.6600471 523.836800
   3091   3090   3097     1   109.6600471 523.836800
   3091   3103   3115     1   111.5100476 526.347200
   3094   3090   3097     1   109.6600471 523.836800
   3094   3106   3112     1   111.5100476 526.347200
   3097   3100   3109     1   111.5100476 526.347200
   3100   3109   3118     1   107.9700462 569.024000
   3103   3115   6298     1   107.9700462 569.024000
   3106   3112   6268     1   107.9700462 569.024000
   3112   6268   6259     1   112.4800480 524.673600
   3115   6298   6289     1   112.4800480 524.673600
   3120   3121   3133     1   114.2100488 537.225600
   3120   3124   3136     1   114.2100488 537.225600
   3120   3127   3130     1   114.2100488 537.225600
   3121   3120   3124     1   109.6600471 523.836800
   3121   3120   3127     1   109.6600471 523.836800
   3121   3133   3145     1   111.5100476 526.347200
   3124   3120   3127     1   109.6600471 523.836800
   3124   3136   3142     1   111.5100476 526.347200
   3127   3130   3139     1   111.5100476 526.347200
   3130   3139   3148     1   107.9700462 569.024000
   3133   3145   6358     1   107.9700462 569.024000
   3136   3142   6328     1   107.9700462 569.024000
   3142   6328   6319     1   112.4800480 524.673600
   3145   6358   6349     1   112.4800480 524.673600
   3150   3151   3163     1   114.2100488 537.225600
   3150   3154   3166     1   114.2100488 537.225600
   3150   3157   3160     1   114.2100488 537.225600
   3151   3150   3154     1   109.6600471 523.836800
   3151   3150   3157     1   109.6600471 523.836800
   3151   3163   3175     1   111.5100476 526.347200
   3154   3150   3157     1   109.6600471 523.836800
   3154   3166   3172     1   111.5100476 526.347200
   3157   3160   3169     1   111.5100476 526.347200
   3160   3169   3178     1   107.9700462 569.024000
   3163   3175   6418     1   107.9700462 569.024000
   3166   3172   6388     1   107.9700462 569.024000
   3172   6388   6379     1   112.4800480 524.673600
   3175   6418   6409     1   112.4800480 524.673600
   3180   3181   3193     1   114.2100488 537.225600
   3180   3184   3196     1   114.2100488 537.225600
   3180   3187   3190     1   114.2100488 537.225600
   3181   3180   3184     1   109.6600471 523.836800
   3181   3180   3187     1   109.6600471 523.836800
   3181   3193   3205     1   111.5100476 526.347200
   3184   3180   3187     1   109.6600471 523.836800
   3184   3196   3202     1   111.5100476 526.347200
   3187   3190   3199     1   111.5100476 526.347200
   3190   3199   3208     1   107.9700462 569.024000
   3193   3205   6478     1   107.9700462 569.024000
   3196   3202   6448     1   107.9700462 569.024000
   3202   6448   6439     1   112.4800480 524.673600
   3205   6478   6469     1   112.4800480 524.673600
   3210   3211   3223     1   114.2100488 537.225600
   3210   3214   3226     1   114.2100488 537.225600
   3210   3217   3220     1   114.2100488 537.225600
   3211   3210   3214     1   109.6600471 523.836800
   3211   3210   3217     1   109.6600471 523.836800
   3211   3223   3235     1   111.5100476 526.347200
   3214   3210   3217     1   109.6600471 523.836800
   3214   3226   3232     1   111.5100476 526.347200
   3217   3220   3229     1   111.5100476 526.347200
   3220   3229   3238     1   107.9700462 569.024000
   3223   3235   6538     1   107.9700462 569.024000
   3226   3232   6508     1   107.9700462 569.024000
   3232   6508   6499     1   112.4800480 524.673600
   3235   6538   6529     1   112.4800480 524.673600
   3240   3241   3253     1   114.2100488 537.225600
   3240   3244   3256     1   114.2100488 537.225600
   3240   3247   3250     1   114.2100488 537.225600
   3241   3240   3244     1   109.6600471 523.836800
   3241   3240   3247     1   109.6600471 523.836800
   3241   3253   3265     1   111.5100476 526.347200
   3244   3240   3247     1   109.6600471 523.836800
   3244   3256   3262     1   111.5100476 526.347200
   3247   3250   3259     1   111.5100476 526.347200
   3250   3259   3268     1   107.9700462 569.024000
   3253   3265   6598     1   107.9700462 569.024000
   3256   3262   6568     1   107.9700462 569.024000
   3262   6568   6559     1   112.4800480 524.673600
   3265   6598   6589     1   112.4800480 524.673600
   3270   3271   3283     1   114.2100488 537.225600
   3270   3274   3286     1   114.2100488 537.225600
   3270   3277   3280     1   114.2100488 537.225600
   3271   3270   3274     1   109.6600471 523.836800
   3271   3270   3277     1   109.6600471 523.836800
   3271   3283   3295     1   111.5100476 526.347200
   3274   3270   3277     1   109.6600471 523.836800
   3274   3286   3292     1   111.5100476 526.347200
   3277   3280   3289     1   111.5100476 526.347200
   3280   3289   3298     1   107.9700462 569.024000
   3283   3295   6658     1   107.9700462 569.024000
   3286   3292   6628     1   107.9700462 569.024000
   3292   6628   6619     1   112.4800480 524.673600
   3295   6658   6649     1   112.4800480 524.673600
   3300   3301   3313     1   114.2100488 537.225600
   3300   3304   3316     1   114.2100488 537.225600
   3300   3307   3310     1   114.2100488 537.225600
   3301   3300   3304     1   109.6600471 523.836800
   3301   3300   3307     1   109.6600471 523.836800
   3301   3313   3325     1   111.5100476 526.347200
   3304   3300   3307     1   109.6600471 523.836800
   3304   3316   3322     1   111.5100476 526.347200
   3307   3310   3319     1   111.5100476 526.347200
   3310   3319   3328     1   107.9700462 569.024000
   3313   3325   6718     1   107.9700462 569.024000
   3316   3322   6688     1   107.9700462 569.024000
   3322   6688   6679     1   112.4800480 524.673600
   3325   6718   6709     1   112.4800480 524.673600
   3330   3331   3343     1   114.2100488 537.225600
   3330   3334   3346     1   114.2100488 537.225600
   3330   3337   3340     1   114.2100488 537.225600
   3331   3330   3334     1   109.6600471 523.836800
   3331   3330   3337     1   109.6600471 523.836800
   3331   3343   3355     1   111.5100476 526.347200
   3334   3330   3337     1   109.6600471 523.836800
   3334   3346   3352     1   111.5100476 526.347200
   3337   3340   3349     1   111.5100476 526.347200
   3340   3349   3358     1   107.9700462 569.024000
   3343   3355   6778     1   107.9700462 569.024000
   3346   3352   6748     1   107.9700462 569.024000
   3352   6748   6739     1   112.4800480 524.673600
   3355   6778   6769     1   112.4800480 524.673600
   3360   3361   3373     1   114.2100488 537.225600
   3360   3364   3376     1   114.2100488 537.225600
   3360   3367   3370     1   114.2100488 537.225600
   3361   3360   3364     1   109.6600471 523.836800
   3361   3360   3367     1   109.6600471 523.836800
   3361   3373   3385     1   111.5100476 526.347200
   3364   3360   3367     1   109.6600471 523.836800
   3364   3376   3382     1   111.5100476 526.347200
   3367   3370   3379     1   111.5100476 526.347200
   3370   3379   3388     1   107.9700462 569.024000
   3373   3385   6838     1   107.9700462 569.024000
   3376   3382   6808     1   107.9700462 569.024000
   3382   6808   6799     1   112.4800480 524.673600
   3385   6838   6829     1   112.4800480 524.673600
   3390   3391   3403     1   114.2100488 537.225600
   3390   3394   3406     1   114.2100488 537.225600
   3390   3397   3400     1   114.2100488 537.225600
   3391   3390   3394     1   109.6600471 523.836800
   3391   3390   3397     1   109.6600471 523.836800
   3391   3403   3415     1   111.5100476 526.347200
   3394   3390   3397     1   109.6600471 523.836800
   3394   3406   3412     1   111.5100476 526.347200
   3397   3400   3409     1   111.5100476 526.347200
   3400   3409   3418     1   107.9700462 569.024000
   3403   3415   6898     1   107.9700462 569.024000
   3406   3412   6868     1   107.9700462 569.024000
   3412   6868   6859     1   112.4800480 524.673600
   3415   6898   6889     1   112.4800480 524.673600
   3420   3421   3433     1   114.2100488 537.225600
   3420   3424   3436     1   114.2100488 537.225600
   3420   3427   3430     1   114.2100488 537.225600
   3421   3420   3424     1   109.6600471 523.836800
   3421   3420   3427     1   109.6600471 523.836800
   3421   3433   3445     1   111.5100476 526.347200
   3424   3420   3427     1   109.6600471 523.836800
   3424   3436   3442     1   111.5100476 526.347200
   3427   3430   3439     1   111.5100476 526.347200
   3430   3439   3448     1   107.9700462 569.024000
   3433   3445   6958     1   107.9700462 569.024000
   3436   3442   6928     1   107.9700462 569.024000
   3442   6928   6919     1   112.4800480 524.673600
   3445   6958   6949     1   112.4800480 524.673600
   3450   3451   3463     1   114.2100488 537.225600
   3450   3454   3466     1   114.2100488 537.225600
   3450   3457   3460     1   114.2100488 537.225600
   3451   3450   3454     1   109.6600471 523.836800
   3451   3450   3457     1   109.6600471 523.836800
   3451   3463   3475     1   111.5100476 526.347200
   3454   3450   3457     1   109.6600471 523.836800
   3454   3466   3472     1   111.5100476 526.347200
   3457   3460   3469     1   111.5100476 526.347200
   3460   3469   3478     1   107.9700462 569.024000
   3463   3475   7018     1   107.9700462 569.024000
   3466   3472   6988     1   107.9700462 569.024000
   3472   6988   6979     1   112.4800480 524.673600
   3475   7018   7009     1   112.4800480 524.673600
   3480   3481   3493     1   114.2100488 537.225600
   3480   3484   3496     1   114.2100488 537.225600
   3480   3487   3490     1   114.2100488 537.225600
   3481   3480   3484     1   109.6600471 523.836800
   3481   3480   3487     1   109.6600471 523.836800
   3481   3493   3505     1   111.5100476 526.347200
   3484   3480   3487     1   109.6600471 523.836800
   3484   3496   3502     1   111.5100476 526.347200
   3487   3490   3499     1   111.5100476 526.347200
   3490   3499   3508     1   107.9700462 569.024000
   3493   3505   7078     1   107.9700462 569.024000
   3496   3502   7048     1   107.9700462 569.024000
   3502   7048   7039     1   112.4800480 524.673600
   3505   7078   7069     1   112.4800480 524.673600
   3510   3511   3523     1   114.2100488 537.225600
   3510   3514   3526     1   114.2100488 537.225600
   3510   3517   3520     1   114.2100488 537.225600
   3511   3510   3514     1   109.6600471 523.836800
   3511   3510   3517     1   109.6600471 523.836800
   3511   3523   3535     1   111.5100476 526.347200
   3514   3510   3517     1   109.6600471 523.836800
   3514   3526   3532     1   111.5100476 526.347200
   3517   3520   3529     1   111.5100476 526.347200
   3520   3529   3538     1   107.9700462 569.024000
   3523   3535   7138     1   107.9700462 569.024000
   3526   3532   7108     1   107.9700462 569.024000
   3532   7108   7099     1   112.4800480 524.673600
   3535   7138   7129     1   112.4800480 524.673600
   3540   3541   3553     1   114.2100488 537.225600
   3540   3544   3556     1   114.2100488 537.225600
   3540   3547   3550     1   114.2100488 537.225600
   3541   3540   3544     1   109.6600471 523.836800
   3541   3540   3547     1   109.6600471 523.836800
   3541   3553   3565     1   111.5100476 526.347200
   3544   3540   3547     1   109.6600471 523.836800
   3544   3556   3562     1   111.5100476 526.347200
   3547   3550   3559     1   111.5100476 526.347200
   3550   3559   3568     1   107.9700462 569.024000
   3553   3565   7198     1   107.9700462 569.024000
   3556   3562   7168     1   107.9700462 569.024000
   3562   7168   7159     1   112.4800480 524.673600
   3565   7198   7189     1   112.4800480 524.673600
   3570   3571   3583     1   114.2100488 537.225600
   3570   3574   3586     1   114.2100488 537.225600
   3570   3577   3580     1   114.2100488 537.225600
   3571   3570   3574     1   109.6600471 523.836800
   3571   3570   3577     1   109.6600471 523.836800
   3571   3583   3595     1   111.5100476 526.347200
   3574   3570   3577     1   109.6600471 523.836800
   3574   3586   3592     1   111.5100476 526.347200
   3577   3580   3589     1   111.5100476 526.347200
   3580   3589   3598     1   107.9700462 569.024000
   3583   3595   7258     1   107.9700462 569.024000
   3586   3592   7228     1   107.9700462 569.024000
   3592   7228   7219     1   112.4800480 524.673600
   3595   7258   7249     1   112.4800480 524.673600
   3600   3601   3613     1   114.2100488 537.225600
   3600   3604   3616     1   114.2100488 537.225600
   3600   3607   3610     1   114.2100488 537.225600
   3601   3600   3604     1   109.6600471 523.836800
   3601   3600   3607     1   109.6600471 523.836800
   3601   3613   3625     1   111.5100476 526.347200
   3604   3600   3607     1   109.6600471 523.836800
   3604   3616   3622     1   111.5100476 526.347200
   3607   3610   3619     1   111.5100476 526.347200
   3610   3619   3628     1   107.9700462 569.024000
   3613   3625   7318     1   107.9700462 569.024000
   3616   3622   7288     1   107.9700462 569.024000
   3622   7288   7279     1   112.4800480 524.673600
   3625   7318   7309     1   112.4800480 524.673600
   3630   3631   3643     1   114.2100488 537.225600
   3630   3634   3646     1   114.2100488 537.225600
   3630   3637   3640     1   114.2100488 537.225600
   3631   3630   3634     1   109.6600471 523.836800
   3631   3630   3637     1   109.6600471 523.836800
   3631   3643   3655     1   111.5100476 526.347200
   3634   3630   3637     1   109.6600471 523.836800
   3634   3646   3652     1   111.5100476 526.347200
   3637   3640   3649     1   111.5100476 526.347200
   3640   3649   3658     1   107.9700462 569.024000
   3643   3655   7378     1   107.9700462 569.024000
   3646   3652   7348     1   107.9700462 569.024000
   3652   7348   7339     1   112.4800480 524.673600
   3655   7378   7369     1   112.4800480 524.673600
   3660   3661   3673     1   114.2100488 537.225600
   3660   3664   3676     1   114.2100488 537.225600
   3660   3667   3670     1   114.2100488 537.225600
   3661   3660   3664     1   109.6600471 523.836800
   3661   3660   3667     1   109.6600471 523.836800
   3661   3673   3685     1   111.5100476 526.347200
   3664   3660   3667     1   109.6600471 523.836800
   3664   3676   3682     1   111.5100476 526.347200
   3667   3670   3679     1   111.5100476 526.347200
   3670   3679   3688     1   107.9700462 569.024000
   3673   3685   7438     1   107.9700462 569.024000
   3676   3682   7408     1   107.9700462 569.024000
   3682   7408   7399     1   112.4800480 524.673600
   3685   7438   7429     1   112.4800480 524.673600
   3690   3691   3703     1   114.2100488 537.225600
   3690   3694   3706     1   114.2100488 537.225600
   3690   3697   3700     1   114.2100488 537.225600
   3691   3690   3694     1   109.6600471 523.836800
   3691   3690   3697     1   109.6600471 523.836800
   3691   3703   3715     1   111.5100476 526.347200
   3694   3690   3697     1   109.6600471 523.836800
   3694   3706   3712     1   111.5100476 526.347200
   3697   3700   3709     1   111.5100476 526.347200
   3700   3709   3718     1   107.9700462 569.024000
   3703   3715   7498     1   107.9700462 569.024000
   3706   3712   7468     1   107.9700462 569.024000
   3712   7468   7459     1   112.4800480 524.673600
   3715   7498   7489     1   112.4800480 524.673600
   3720   3721   3733     1   114.2100488 537.225600
   3720   3724   3736     1   114.2100488 537.225600
   3720   3727   3730     1   114.2100488 537.225600
   3721   3720   3724     1   109.6600471 523.836800
   3721   3720   3727     1   109.6600471 523.836800
   3721   3733   3745     1   111.5100476 526.347200
   3724   3720   3727     1   109.6600471 523.836800
   3724   3736   3742     1   111.5100476 526.347200
   3727   3730   3739     1   111.5100476 526.347200
   3730   3739   3748     1   107.9700462 569.024000
   3733   3745   7558     1   107.9700462 569.024000
   3736   3742   7528     1   107.9700462 569.024000
   3742   7528   7519     1   112.4800480 524.673600
   3745   7558   7549     1   112.4800480 524.673600
   3750   3751   3763     1   114.2100488 537.225600
   3750   3754   3766     1   114.2100488 537.225600
   3750   3757   3760     1   114.2100488 537.225600
   3751   3750   3754     1   109.6600471 523.836800
   3751   3750   3757     1   109.6600471 523.836800
   3751   3763   3775     1   111.5100476 526.347200
   3754   3750   3757     1   109.6600471 523.836800
   3754   3766   3772     1   111.5100476 526.347200
   3757   3760   3769     1   111.5100476 526.347200
   3760   3769   3778     1   107.9700462 569.024000
   3763   3775   7618     1   107.9700462 569.024000
   3766   3772   7588     1   107.9700462 569.024000
   3772   7588   7579     1   112.4800480 524.673600
   3775   7618   7609     1   112.4800480 524.673600
   3780   3781   3793     1   114.2100488 537.225600
   3780   3784   3796     1   114.2100488 537.225600
   3780   3787   3790     1   114.2100488 537.225600
   3781   3780   3784     1   109.6600471 523.836800
   3781   3780   3787     1   109.6600471 523.836800
   3781   3793   3805     1   111.5100476 526.347200
   3784   3780   3787     1   109.6600471 523.836800
   3784   3796   3802     1   111.5100476 526.347200
   3787   3790   3799     1   111.5100476 526.347200
   3790   3799   3808     1   107.9700462 569.024000
   3793   3805   7653     1   107.9700462 569.024000
   3796   3802   7630     1   107.9700462 569.024000
   3802   7630   7626     1   112.4800480 524.673600
   3805   7653   7649     1   112.4800480 524.673600
   3810   3811   3823     1   114.2100488 537.225600
   3810   3814   3826     1   114.2100488 537.225600
   3810   3817   3820     1   114.2100488 537.225600
   3811   3810   3814     1   109.6600471 523.836800
   3811   3810   3817     1   109.6600471 523.836800
   3811   3823   3835     1   111.5100476 526.347200
   3814   3810   3817     1   109.6600471 523.836800
   3814   3826   3832     1   111.5100476 526.347200
   3817   3820   3829     1   111.5100476 526.347200
   3820   3829   3838     1   107.9700462 569.024000
   3823   3835   7699     1   107.9700462 569.024000
   3826   3832   7676     1   107.9700462 569.024000
   3832   7676   7672     1   112.4800480 524.673600
   3835   7699   7695     1   112.4800480 524.673600
   3840   3841   3853     1   114.2100488 537.225600
   3840   3844   3856     1   114.2100488 537.225600
   3840   3847   3850     1   114.2100488 537.225600
   3841   3840   3844     1   109.6600471 523.836800
   3841   3840   3847     1   109.6600471 523.836800
   3841   3853   3865     1   111.5100476 526.347200
   3844   3840   3847     1   109.6600471 523.836800
   3844   3856   3862     1   111.5100476 526.347200
   3847   3850   3859     1   111.5100476 526.347200
   3850   3859   3868     1   107.9700462 569.024000
   3853   3865   7745     1   107.9700462 569.024000
   3856   3862   7722     1   107.9700462 569.024000
   3862   7722   7718     1   112.4800480 524.673600
   3865   7745   7741     1   112.4800480 524.673600
   3870   3871   3883     1   114.2100488 537.225600
   3870   3874   3886     1   114.2100488 537.225600
   3870   3877   3880     1   114.2100488 537.225600
   3871   3870   3874     1   109.6600471 523.836800
   3871   3870   3877     1   109.6600471 523.836800
   3871   3883   3895     1   111.5100476 526.347200
   3874   3870   3877     1   109.6600471 523.836800
   3874   3886   3892     1   111.5100476 526.347200
   3877   3880   3889     1   111.5100476 526.347200
   3880   3889   3898     1   107.9700462 569.024000
   3883   3895   7791     1   107.9700462 569.024000
   3886   3892   7768     1   107.9700462 569.024000
   3892   7768   7764     1   112.4800480 524.673600
   3895   7791   7787     1   112.4800480 524.673600
   3900   3901   3913     1   114.2100488 537.225600
   3900   3904   3916     1   114.2100488 537.225600
   3900   3907   3910     1   114.2100488 537.225600
   3901   3900   3904     1   109.6600471 523.836800
   3901   3900   3907     1   109.6600471 523.836800
   3901   3913   3925     1   111.5100476 526.347200
   3904   3900   3907     1   109.6600471 523.836800
   3904   3916   3922     1   111.5100476 526.347200
   3907   3910   3919     1   111.5100476 526.347200
   3910   3919   3928     1   107.9700462 569.024000
   3913   3925   7837     1   107.9700462 569.024000
   3916   3922   7814     1   107.9700462 569.024000
   3922   7814   7810     1   112.4800480 524.673600
   3925   7837   7833     1   112.4800480 524.673600
   3930   3931   3943     1   114.2100488 537.225600
   3930   3934   3946     1   114.2100488 537.225600
   3930   3937   3940     1   114.2100488 537.225600
   3931   3930   3934     1   109.6600471 523.836800
   3931   3930   3937     1   109.6600471 523.836800
   3931   3943   3955     1   111.5100476 526.347200
   3934   3930   3937     1   109.6600471 523.836800
   3934   3946   3952     1   111.5100476 526.347200
   3937   3940   3949     1   111.5100476 526.347200
   3940   3949   3958     1   107.9700462 569.024000
   3943   3955   7883     1   107.9700462 569.024000
   3946   3952   7860     1   107.9700462 569.024000
   3952   7860   7856     1   112.4800480 524.673600
   3955   7883   7879     1   112.4800480 524.673600
   3960   3961   3973     1   114.2100488 537.225600
   3960   3964   3976     1   114.2100488 537.225600
   3960   3967   3970     1   114.2100488 537.225600
   3961   3960   3964     1   109.6600471 523.836800
   3961   3960   3967     1   109.6600471 523.836800
   3961   3973   3985     1   111.5100476 526.347200
   3964   3960   3967     1   109.6600471 523.836800
   3964   3976   3982     1   111.5100476 526.347200
   3967   3970   3979     1   111.5100476 526.347200
   3970   3979   3988     1   107.9700462 569.024000
   3973   3985   7929     1   107.9700462 569.024000
   3976   3982   7906     1   107.9700462 569.024000
   3982   7906   7902     1   112.4800480 524.673600
   3985   7929   7925     1   112.4800480 524.673600
   3990   3991   4003     1   114.2100488 537.225600
   3990   3994   4006     1   114.2100488 537.225600
   3990   3997   4000     1   114.2100488 537.225600
   3991   3990   3994     1   109.6600471 523.836800
   3991   3990   3997     1   109.6600471 523.836800
   3991   4003   4015     1   111.5100476 526.347200
   3994   3990   3997     1   109.6600471 523.836800
   3994   4006   4012     1   111.5100476 526.347200
   3997   4000   4009     1   111.5100476 526.347200
   4000   4009   4018     1   107.9700462 569.024000
   4003   4015   7975     1   107.9700462 569.024000
   4006   4012   7952     1   107.9700462 569.024000
   4012   7952   7948     1   112.4800480 524.673600
   4015   7975   7971     1   112.4800480 524.673600
   4020   4021   4033     1   114.2100488 537.225600
   4020   4024   4036     1   114.2100488 537.225600
   4020   4027   4030     1   114.2100488 537.225600
   4021   4020   4024     1   109.6600471 523.836800
   4021   4020   4027     1   109.6600471 523.836800
   4021   4033   4045     1   111.5100476 526.347200
   4024   4020   4027     1   109.6600471 523.836800
   4024   4036   4042     1   111.5100476 526.347200
   4027   4030   4039     1   111.5100476 526.347200
   4030   4039   4048     1   107.9700462 569.024000
   4033   4045   8021     1   107.9700462 569.024000
   4036   4042   7998     1   107.9700462 569.024000
   4042   7998   7994     1   112.4800480 524.673600
   4045   8021   8017     1   112.4800480 524.673600
   4050   4051   4063     1   114.2100488 537.225600
   4050   4054   4066     1   114.2100488 537.225600
   4050   4057   4060     1   114.2100488 537.225600
   4051   4050   4054     1   109.6600471 523.836800
   4051   4050   4057     1   109.6600471 523.836800
   4051   4063   4075     1   111.5100476 526.347200
   4054   4050   4057     1   109.6600471 523.836800
   4054   4066   4072     1   111.5100476 526.347200
   4057   4060   4069     1   111.5100476 526.347200
   4060   4069   4078     1   107.9700462 569.024000
   4063   4075   8067     1   107.9700462 569.024000
   4066   4072   8044     1   107.9700462 569.024000
   4072   8044   8040     1   112.4800480 524.673600
   4075   8067   8063     1   112.4800480 524.673600
   4080   4081   4093     1   114.2100488 537.225600
   4080   4084   4096     1   114.2100488 537.225600
   4080   4087   4090     1   114.2100488 537.225600
   4081   4080   4084     1   109.6600471 523.836800
   4081   4080   4087     1   109.6600471 523.836800
   4081   4093   4105     1   111.5100476 526.347200
   4084   4080   4087     1   109.6600471 523.836800
   4084   4096   4102     1   111.5100476 526.347200
   4087   4090   4099     1   111.5100476 526.347200
   4090   4099   4108     1   107.9700462 569.024000
   4093   4105   8113     1   107.9700462 569.024000
   4096   4102   8090     1   107.9700462 569.024000
   4102   8090   8086     1   112.4800480 524.673600
   4105   8113   8109     1   112.4800480 524.673600
   4110   4111   4123     1   114.2100488 537.225600
   4110   4114   4126     1   114.2100488 537.225600
   4110   4117   4120     1   114.2100488 537.225600
   4111   4110   4114     1   109.6600471 523.836800
   4111   4110   4117     1   109.6600471 523.836800
   4111   4123   4135     1   111.5100476 526.347200
   4114   4110   4117     1   109.6600471 523.836800
   4114   4126   4132     1   111.5100476 526.347200
   4117   4120   4129     1   111.5100476 526.347200
   4120   4129   4138     1   107.9700462 569.024000
   4123   4135   8159     1   107.9700462 569.024000
   4126   4132   8136     1   107.9700462 569.024000
   4132   8136   8132     1   112.4800480 524.673600
   4135   8159   8155     1   112.4800480 524.673600
   4140   4141   4153     1   114.2100488 537.225600
   4140   4144   4156     1   114.2100488 537.225600
   4140   4147   4150     1   114.2100488 537.225600
   4141   4140   4144     1   109.6600471 523.836800
   4141   4140   4147     1   109.6600471 523.836800
   4141   4153   4165     1   111.5100476 526.347200
   4144   4140   4147     1   109.6600471 523.836800
   4144   4156   4162     1   111.5100476 526.347200
   4147   4150   4159     1   111.5100476 526.347200
   4150   4159   4168     1   107.9700462 569.024000
   4153   4165   8205     1   107.9700462 569.024000
   4156   4162   8182     1   107.9700462 569.024000
   4162   8182   8178     1   112.4800480 524.673600
   4165   8205   8201     1   112.4800480 524.673600
   4170   4171   4183     1   114.2100488 537.225600
   4170   4174   4186     1   114.2100488 537.225600
   4170   4177   4180     1   114.2100488 537.225600
   4171   4170   4174     1   109.6600471 523.836800
   4171   4170   4177     1   109.6600471 523.836800
   4171   4183   4195     1   111.5100476 526.347200
   4174   4170   4177     1   109.6600471 523.836800
   4174   4186   4192     1   111.5100476 526.347200
   4177   4180   4189     1   111.5100476 526.347200
   4180   4189   4198     1   107.9700462 569.024000
   4183   4195   8251     1   107.9700462 569.024000
   4186   4192   8228     1   107.9700462 569.024000
   4192   8228   8224     1   112.4800480 524.673600
   4195   8251   8247     1   112.4800480 524.673600
   4200   4201   4213     1   114.2100488 537.225600
   4200   4204   4216     1   114.2100488 537.225600
   4200   4207   4210     1   114.2100488 537.225600
   4201   4200   4204     1   109.6600471 523.836800
   4201   4200   4207     1   109.6600471 523.836800
   4201   4213   4225     1   111.5100476 526.347200
   4204   4200   4207     1   109.6600471 523.836800
   4204   4216   4222     1   111.5100476 526.347200
   4207   4210   4219     1   111.5100476 526.347200
   4210   4219   4228     1   107.9700462 569.024000
   4213   4225   8297     1   107.9700462 569.024000
   4216   4222   8274     1   107.9700462 569.024000
   4222   8274   8270     1   112.4800480 524.673600
   4225   8297   8293     1   112.4800480 524.673600
   4230   4231   4243     1   114.2100488 537.225600
   4230   4234   4246     1   114.2100488 537.225600
   4230   4237   4240     1   114.2100488 537.225600
   4231   4230   4234     1   109.6600471 523.836800
   4231   4230   4237     1   109.6600471 523.836800
   4231   4243   4255     1   111.5100476 526.347200
   4234   4230   4237     1   109.6600471 523.836800
   4234   4246   4252     1   111.5100476 526.347200
   4237   4240   4249     1   111.5100476 526.347200
   4240   4249   4258     1   107.9700462 569.024000
   4243   4255   8343     1   107.9700462 569.024000
   4246   4252   8320     1   107.9700462 569.024000
   4252   8320   8316     1   112.4800480 524.673600
   4255   8343   8339     1   112.4800480 524.673600
   4260   4261   4273     1   114.2100488 537.225600
   4260   4264   4276     1   114.2100488 537.225600
   4260   4267   4270     1   114.2100488 537.225600
   4261   4260   4264     1   109.6600471 523.836800
   4261   4260   4267     1   109.6600471 523.836800
   4261   4273   4285     1   111.5100476 526.347200
   4264   4260   4267     1   109.6600471 523.836800
   4264   4276   4282     1   111.5100476 526.347200
   4267   4270   4279     1   111.5100476 526.347200
   4270   4279   4288     1   107.9700462 569.024000
   4273   4285   8389     1   107.9700462 569.024000
   4276   4282   8366     1   107.9700462 569.024000
   4282   8366   8362     1   112.4800480 524.673600
   4285   8389   8385     1   112.4800480 524.673600
   4290   4291   4303     1   114.2100488 537.225600
   4290   4294   4306     1   114.2100488 537.225600
   4290   4297   4300     1   114.2100488 537.225600
   4291   4290   4294     1   109.6600471 523.836800
   4291   4290   4297     1   109.6600471 523.836800
   4291   4303   4315     1   111.5100476 526.347200
   4294   4290   4297     1   109.6600471 523.836800
   4294   4306   4312     1   111.5100476 526.347200
   4297   4300   4309     1   111.5100476 526.347200
   4300   4309   4318     1   107.9700462 569.024000
   4303   4315   8435     1   107.9700462 569.024000
   4306   4312   8412     1   107.9700462 569.024000
   4312   8412   8408     1   112.4800480 524.673600
   4315   8435   8431     1   112.4800480 524.673600
   4320   4321   4333     1   114.2100488 537.225600
   4320   4324   4336     1   114.2100488 537.225600
   4320   4327   4330     1   114.2100488 537.225600
   4321   4320   4324     1   109.6600471 523.836800
   4321   4320   4327     1   109.6600471 523.836800
   4321   4333   4345     1   111.5100476 526.347200
   4324   4320   4327     1   109.6600471 523.836800
   4324   4336   4342     1   111.5100476 526.347200
   4327   4330   4339     1   111.5100476 526.347200
   4330   4339   4348     1   107.9700462 569.024000
   4333   4345   8481     1   107.9700462 569.024000
   4336   4342   8458     1   107.9700462 569.024000
   4342   8458   8454     1   112.4800480 524.673600
   4345   8481   8477     1   112.4800480 524.673600
   4350   4351   4363     1   114.2100488 537.225600
   4350   4354   4366     1   114.2100488 537.225600
   4350   4357   4360     1   114.2100488 537.225600
   4351   4350   4354     1   109.6600471 523.836800
   4351   4350   4357     1   109.6600471 523.836800
   4351   4363   4375     1   111.5100476 526.347200
   4354   4350   4357     1   109.6600471 523.836800
   4354   4366   4372     1   111.5100476 526.347200
   4357   4360   4369     1   111.5100476 526.347200
   4360   4369   4378     1   107.9700462 569.024000
   4363   4375   8527     1   107.9700462 569.024000
   4366   4372   8504     1   107.9700462 569.024000
   4372   8504   8500     1   112.4800480 524.673600
   4375   8527   8523     1   112.4800480 524.673600
   4380   4381   4393     1   114.2100488 537.225600
   4380   4384   4396     1   114.2100488 537.225600
   4380   4387   4390     1   114.2100488 537.225600
   4381   4380   4384     1   109.6600471 523.836800
   4381   4380   4387     1   109.6600471 523.836800
   4381   4393   4405     1   111.5100476 526.347200
   4384   4380   4387     1   109.6600471 523.836800
   4384   4396   4402     1   111.5100476 526.347200
   4387   4390   4399     1   111.5100476 526.347200
   4390   4399   4408     1   107.9700462 569.024000
   4393   4405   8573     1   107.9700462 569.024000
   4396   4402   8550     1   107.9700462 569.024000
   4402   8550   8546     1   112.4800480 524.673600
   4405   8573   8569     1   112.4800480 524.673600
   4410   4411   4423     1   114.2100488 537.225600
   4410   4414   4426     1   114.2100488 537.225600
   4410   4417   4420     1   114.2100488 537.225600
   4411   4410   4414     1   109.6600471 523.836800
   4411   4410   4417     1   109.6600471 523.836800
   4411   4423   4435     1   111.5100476 526.347200
   4414   4410   4417     1   109.6600471 523.836800
   4414   4426   4432     1   111.5100476 526.347200
   4417   4420   4429     1   111.5100476 526.347200
   4420   4429   4438     1   107.9700462 569.024000
   4423   4435   8619     1   107.9700462 569.024000
   4426   4432   8596     1   107.9700462 569.024000
   4432   8596   8592     1   112.4800480 524.673600
   4435   8619   8615     1   112.4800480 524.673600
   4440   4441   4453     1   114.2100488 537.225600
   4440   4444   4456     1   114.2100488 537.225600
   4440   4447   4450     1   114.2100488 537.225600
   4441   4440   4444     1   109.6600471 523.836800
   4441   4440   4447     1   109.6600471 523.836800
   4441   4453   4465     1   111.5100476 526.347200
   4444   4440   4447     1   109.6600471 523.836800
   4444   4456   4462     1   111.5100476 526.347200
   4447   4450   4459     1   111.5100476 526.347200
   4450   4459   4468     1   107.9700462 569.024000
   4453   4465   8665     1   107.9700462 569.024000
   4456   4462   8642     1   107.9700462 569.024000
   4462   8642   8638     1   112.4800480 524.673600
   4465   8665   8661     1   112.4800480 524.673600
   4470   4471   4483     1   114.2100488 537.225600
   4470   4474   4486     1   114.2100488 537.225600
   4470   4477   4480     1   114.2100488 537.225600
   4471   4470   4474     1   109.6600471 523.836800
   4471   4470   4477     1   109.6600471 523.836800
   4471   4483   4495     1   111.5100476 526.347200
   4474   4470   4477     1   109.6600471 523.836800
   4474   4486   4492     1   111.5100476 526.347200
   4477   4480   4489     1   111.5100476 526.347200
   4480   4489   4498     1   107.9700462 569.024000
   4483   4495   8711     1   107.9700462 569.024000
   4486   4492   8688     1   107.9700462 569.024000
   4492   8688   8684     1   112.4800480 524.673600
   4495   8711   8707     1   112.4800480 524.673600
   4500   4501   4513     1   114.2100488 537.225600
   4500   4504   4516     1   114.2100488 537.225600
   4500   4507   4510     1   114.2100488 537.225600
   4501   4500   4504     1   109.6600471 523.836800
   4501   4500   4507     1   109.6600471 523.836800
   4501   4513   4525     1   111.5100476 526.347200
   4504   4500   4507     1   109.6600471 523.836800
   4504   4516   4522     1   111.5100476 526.347200
   4507   4510   4519     1   111.5100476 526.347200
   4510   4519   4528     1   107.9700462 569.024000
   4513   4525   8757     1   107.9700462 569.024000
   4516   4522   8734     1   107.9700462 569.024000
   4522   8734   8730     1   112.4800480 524.673600
   4525   8757   8753     1   112.4800480 524.673600
   4530   4531   4543     1   114.2100488 537.225600
   4530   4534   4546     1   114.2100488 537.225600
   4530   4537   4540     1   114.2100488 537.225600
   4531   4530   4534     1   109.6600471 523.836800
   4531   4530   4537     1   109.6600471 523.836800
   4531   4543   4555     1   111.5100476 526.347200
   4534   4530   4537     1   109.6600471 523.836800
   4534   4546   4552     1   111.5100476 526.347200
   4537   4540   4549     1   111.5100476 526.347200
   4540   4549   4558     1   107.9700462 569.024000
   4543   4555   8803     1   107.9700462 569.024000
   4546   4552   8780     1   107.9700462 569.024000
   4552   8780   8776     1   112.4800480 524.673600
   4555   8803   8799     1   112.4800480 524.673600
   4560   4561   4573     1   114.2100488 537.225600
   4560   4564   4576     1   114.2100488 537.225600
   4560   4567   4570     1   114.2100488 537.225600
   4561   4560   4564     1   109.6600471 523.836800
   4561   4560   4567     1   109.6600471 523.836800
   4561   4573   4585     1   111.5100476 526.347200
   4564   4560   4567     1   109.6600471 523.836800
   4564   4576   4582     1   111.5100476 526.347200
   4567   4570   4579     1   111.5100476 526.347200
   4570   4579   4588     1   107.9700462 569.024000
   4573   4585   8849     1   107.9700462 569.024000
   4576   4582   8826     1   107.9700462 569.024000
   4582   8826   8822     1   112.4800480 524.673600
   4585   8849   8845     1   112.4800480 524.673600
   4590   4591   4603     1   114.2100488 537.225600
   4590   4594   4606     1   114.2100488 537.225600
   4590   4597   4600     1   114.2100488 537.225600
   4591   4590   4594     1   109.6600471 523.836800
   4591   4590   4597     1   109.6600471 523.836800
   4591   4603   4615     1   111.5100476 526.347200
   4594   4590   4597     1   109.6600471 523.836800
   4594   4606   4612     1   111.5100476 526.347200
   4597   4600   4609     1   111.5100476 526.347200
   4600   4609   4618     1   107.9700462 569.024000
   4603   4615   8895     1   107.9700462 569.024000
   4606   4612   8872     1   107.9700462 569.024000
   4612   8872   8868     1   112.4800480 524.673600
   4615   8895   8891     1   112.4800480 524.673600
   4620   4621   4633     1   114.2100488 537.225600
   4620   4624   4636     1   114.2100488 537.225600
   4620   4627   4630     1   114.2100488 537.225600
   4621   4620   4624     1   109.6600471 523.836800
   4621   4620   4627     1   109.6600471 523.836800
   4621   4633   4645     1   111.5100476 526.347200
   4624   4620   4627     1   109.6600471 523.836800
   4624   4636   4642     1   111.5100476 526.347200
   4627   4630   4639     1   111.5100476 526.347200
   4630   4639   4648     1   107.9700462 569.024000
   4633   4645   8941     1   107.9700462 569.024000
   4636   4642   8918     1   107.9700462 569.024000
   4642   8918   8914     1   112.4800480 524.673600
   4645   8941   8937     1   112.4800480 524.673600
   4650   4651   4663     1   114.2100488 537.225600
   4650   4654   4666     1   114.2100488 537.225600
   4650   4657   4660     1   114.2100488 537.225600
   4651   4650   4654     1   109.6600471 523.836800
   4651   4650   4657     1   109.6600471 523.836800
   4651   4663   4675     1   111.5100476 526.347200
   4654   4650   4657     1   109.6600471 523.836800
   4654   4666   4672     1   111.5100476 526.347200
   4657   4660   4669     1   111.5100476 526.347200
   4660   4669   4678     1   107.9700462 569.024000
   4663   4675   8987     1   107.9700462 569.024000
   4666   4672   8964     1   107.9700462 569.024000
   4672   8964   8960     1   112.4800480 524.673600
   4675   8987   8983     1   112.4800480 524.673600
   4680   4681   4693     1   114.2100488 537.225600
   4680   4684   4696     1   114.2100488 537.225600
   4680   4687   4690     1   114.2100488 537.225600
   4681   4680   4684     1   109.6600471 523.836800
   4681   4680   4687     1   109.6600471 523.836800
   4681   4693   4705     1   111.5100476 526.347200
   4684   4680   4687     1   109.6600471 523.836800
   4684   4696   4702     1   111.5100476 526.347200
   4687   4690   4699     1   111.5100476 526.347200
   4690   4699   4708     1   107.9700462 569.024000
   4693   4705   9033     1   107.9700462 569.024000
   4696   4702   9010     1   107.9700462 569.024000
   4702   9010   9006     1   112.4800480 524.673600
   4705   9033   9029     1   112.4800480 524.673600
   4710   4711   4723     1   114.2100488 537.225600
   4710   4714   4726     1   114.2100488 537.225600
   4710   4717   4720     1   114.2100488 537.225600
   4711   4710   4714     1   109.6600471 523.836800
   4711   4710   4717     1   109.6600471 523.836800
   4711   4723   4735     1   111.5100476 526.347200
   4714   4710   4717     1   109.6600471 523.836800
   4714   4726   4732     1   111.5100476 526.347200
   4717   4720   4729     1   111.5100476 526.347200
   4720   4729   4738     1   107.9700462 569.024000
   4723   4735   9079     1   107.9700462 569.024000
   4726   4732   9056     1   107.9700462 569.024000
   4732   9056   9052     1   112.4800480 524.673600
   4735   9079   9075     1   112.4800480 524.673600
   4740   4741   4753     1   114.2100488 537.225600
   4740   4744   4756     1   114.2100488 537.225600
   4740   4747   4750     1   114.2100488 537.225600
   4741   4740   4744     1   109.6600471 523.836800
   4741   4740   4747     1   109.6600471 523.836800
   4741   4753   4765     1   111.5100476 526.347200
   4744   4740   4747     1   109.6600471 523.836800
   4744   4756   4762     1   111.5100476 526.347200
   4747   4750   4759     1   111.5100476 526.347200
   4750   4759   4768     1   107.9700462 569.024000
   4753   4765   9125     1   107.9700462 569.024000
   4756   4762   9102     1   107.9700462 569.024000
   4762   9102   9098     1   112.4800480 524.673600
   4765   9125   9121     1   112.4800480 524.673600
   4770   4771   4783     1   114.2100488 537.225600
   4770   4774   4786     1   114.2100488 537.225600
   4770   4777   4780     1   114.2100488 537.225600
   4771   4770   4774     1   109.6600471 523.836800
   4771   4770   4777     1   109.6600471 523.836800
   4771   4783   4795     1   111.5100476 526.347200
   4774   4770   4777     1   109.6600471 523.836800
   4774   4786   4792     1   111.5100476 526.347200
   4777   4780   4789     1   111.5100476 526.347200
   4780   4789   4798     1   107.9700462 569.024000
   4783   4795   9171     1   107.9700462 569.024000
   4786   4792   9148     1   107.9700462 569.024000
   4792   9148   9144     1   112.4800480 524.673600
   4795   9171   9167     1   112.4800480 524.673600
   4800   4801   4813     1   114.2100488 537.225600
   4800   4804   4816     1   114.2100488 537.225600
   4800   4807   4810     1   114.2100488 537.225600
   4801   4800   4804     1   109.6600471 523.836800
   4801   4800   4807     1   109.6600471 523.836800
   4801   4813   4825     1   111.5100476 526.347200
   4804   4800   4807     1   109.6600471 523.836800
   4804   4816   4822     1   111.5100476 526.347200
   4807   4810   4819     1   111.5100476 526.347200
   4810   4819   4828     1   107.9700462 569.024000
   4813   4825   9217     1   107.9700462 569.024000
   4816   4822   9194     1   107.9700462 569.024000
   4822   9194   9190     1   112.4800480 524.673600
   4825   9217   9213     1   112.4800480 524.673600
   4830   4831   4843     1   114.2100488 537.225600
   4830   4834   4846     1   114.2100488 537.225600
   4830   4837   4840     1   114.2100488 537.225600
   4831   4830   4834     1   109.6600471 523.836800
   4831   4830   4837     1   109.6600471 523.836800
   4831   4843   4855     1   111.5100476 526.347200
   4834   4830   4837     1   109.6600471 523.836800
   4834   4846   4852     1   111.5100476 526.347200
   4837   4840   4849     1   111.5100476 526.347200
   4840   4849   4858     1   107.9700462 569.024000
   4843   4855   9263     1   107.9700462 569.024000
   4846   4852   9240     1   107.9700462 569.024000
   4852   9240   9236     1   112.4800480 524.673600
   4855   9263   9259     1   112.4800480 524.673600
   4860   4861   4873     1   114.2100488 537.225600
   4860   4864   4876     1   114.2100488 537.225600
   4860   4867   4870     1   114.2100488 537.225600
   4861   4860   4864     1   109.6600471 523.836800
   4861   4860   4867     1   109.6600471 523.836800
   4861   4873   4885     1   111.5100476 526.347200
   4864   4860   4867     1   109.6600471 523.836800
   4864   4876   4882     1   111.5100476 526.347200
   4867   4870   4879     1   111.5100476 526.347200
   4870   4879   4888     1   107.9700462 569.024000
   4873   4885   9309     1   107.9700462 569.024000
   4876   4882   9286     1   107.9700462 569.024000
   4882   9286   9282     1   112.4800480 524.673600
   4885   9309   9305     1   112.4800480 524.673600
   4890   4891   4903     1   114.2100488 537.225600
   4890   4894   4906     1   114.2100488 537.225600
   4890   4897   4900     1   114.2100488 537.225600
   4891   4890   4894     1   109.6600471 523.836800
   4891   4890   4897     1   109.6600471 523.836800
   4891   4903   4915     1   111.5100476 526.347200
   4894   4890   4897     1   109.6600471 523.836800
   4894   4906   4912     1   111.5100476 526.347200
   4897   4900   4909     1   111.5100476 526.347200
   4900   4909   4918     1   107.9700462 569.024000
   4903   4915   9355     1   107.9700462 569.024000
   4906   4912   9332     1   107.9700462 569.024000
   4912   9332   9328     1   112.4800480 524.673600
   4915   9355   9351     1   112.4800480 524.673600
   4920   4921   4933     1   114.2100488 537.225600
   4920   4924   4936     1   114.2100488 537.225600
   4920   4927   4930     1   114.2100488 537.225600
   4921   4920   4924     1   109.6600471 523.836800
   4921   4920   4927     1   109.6600471 523.836800
   4921   4933   4945     1   111.5100476 526.347200
   4924   4920   4927     1   109.6600471 523.836800
   4924   4936   4942     1   111.5100476 526.347200
   4927   4930   4939     1   111.5100476 526.347200
   4930   4939   4948     1   107.9700462 569.024000
   4933   4945   9401     1   107.9700462 569.024000
   4936   4942   9378     1   107.9700462 569.024000
   4942   9378   9374     1   112.4800480 524.673600
   4945   9401   9397     1   112.4800480 524.673600
   4950   4951   4963     1   114.2100488 537.225600
   4950   4954   4966     1   114.2100488 537.225600
   4950   4957   4960     1   114.2100488 537.225600
   4951   4950   4954     1   109.6600471 523.836800
   4951   4950   4957     1   109.6600471 523.836800
   4951   4963   4975     1   111.5100476 526.347200
   4954   4950   4957     1   109.6600471 523.836800
   4954   4966   4972     1   111.5100476 526.347200
   4957   4960   4969     1   111.5100476 526.347200
   4960   4969   4978     1   107.9700462 569.024000
   4963   4975   9447     1   107.9700462 569.024000
   4966   4972   9424     1   107.9700462 569.024000
   4972   9424   9420     1   112.4800480 524.673600
   4975   9447   9443     1   112.4800480 524.673600
   4980   4981   4993     1   114.2100488 537.225600
   4980   4984   4996     1   114.2100488 537.225600
   4980   4987   4990     1   114.2100488 537.225600
   4981   4980   4984     1   109.6600471 523.836800
   4981   4980   4987     1   109.6600471 523.836800
   4981   4993   5005     1   111.5100476 526.347200
   4984   4980   4987     1   109.6600471 523.836800
   4984   4996   5002     1   111.5100476 526.347200
   4987   4990   4999     1   111.5100476 526.347200
   4990   4999   5008     1   107.9700462 569.024000
   4993   5005   9493     1   107.9700462 569.024000
   4996   5002   9470     1   107.9700462 569.024000
   5002   9470   9466     1   112.4800480 524.673600
   5005   9493   9489     1   112.4800480 524.673600
   5010   5011   5023     1   114.2100488 537.225600
   5010   5014   5026     1   114.2100488 537.225600
   5010   5017   5020     1   114.2100488 537.225600
   5011   5010   5014     1   109.6600471 523.836800
   5011   5010   5017     1   109.6600471 523.836800
   5011   5023   5035     1   111.5100476 526.347200
   5014   5010   5017     1   109.6600471 523.836800
   5014   5026   5032     1   111.5100476 526.347200
   5017   5020   5029     1   111.5100476 526.347200
   5020   5029   5038     1   107.9700462 569.024000
   5023   5035   9539     1   107.9700462 569.024000
   5026   5032   9516     1   107.9700462 569.024000
   5032   9516   9512     1   112.4800480 524.673600
   5035   9539   9535     1   112.4800480 524.673600
   5040   5041   5053     1   114.2100488 537.225600
   5040   5044   5056     1   114.2100488 537.225600
   5040   5047   5050     1   114.2100488 537.225600
   5041   5040   5044     1   109.6600471 523.836800
   5041   5040   5047     1   109.6600471 523.836800
   5041   5053   5065     1   111.5100476 526.347200
   5044   5040   5047     1   109.6600471 523.836800
   5044   5056   5062     1   111.5100476 526.347200
   5047   5050   5059     1   111.5100476 526.347200
   5050   5059   5068     1   107.9700462 569.024000
   5053   5065   9585     1   107.9700462 569.024000
   5056   5062   9562     1   107.9700462 569.024000
   5062   9562   9558     1   112.4800480 524.673600
   5065   9585   9581     1   112.4800480 524.673600
   5070   5071   5083     1   114.2100488 537.225600
   5070   5074   5086     1   114.2100488 537.225600
   5070   5077   5080     1   114.2100488 537.225600
   5071   5070   5074     1   109.6600471 523.836800
   5071   5070   5077     1   109.6600471 523.836800
   5071   5083   5095     1   111.5100476 526.347200
   5074   5070   5077     1   109.6600471 523.836800
   5074   5086   5092     1   111.5100476 526.347200
   5077   5080   5089     1   111.5100476 526.347200
   5080   5089   5098     1   107.9700462 569.024000
   5083   5095   9631     1   107.9700462 569.024000
   5086   5092   9608     1   107.9700462 569.024000
   5092   9608   9604     1   112.4800480 524.673600
   5095   9631   9627     1   112.4800480 524.673600
   5100   5101   5113     1   114.2100488 537.225600
   5100   5104   5116     1   114.2100488 537.225600
   5100   5107   5110     1   114.2100488 537.225600
   5101   5100   5104     1   109.6600471 523.836800
   5101   5100   5107     1   109.6600471 523.836800
   5101   5113   5125     1   111.5100476 526.347200
   5104   5100   5107     1   109.6600471 523.836800
   5104   5116   5122     1   111.5100476 526.347200
   5107   5110   5119     1   111.5100476 526.347200
   5110   5119   5128     1   107.9700462 569.024000
   5113   5125   9677     1   107.9700462 569.024000
   5116   5122   9654     1   107.9700462 569.024000
   5122   9654   9650     1   112.4800480 524.673600
   5125   9677   9673     1   112.4800480 524.673600
   5130   5131   5143     1   114.2100488 537.225600
   5130   5134   5146     1   114.2100488 537.225600
   5130   5137   5140     1   114.2100488 537.225600
   5131   5130   5134     1   109.6600471 523.836800
   5131   5130   5137     1   109.6600471 523.836800
   5131   5143   5155     1   111.5100476 526.347200
   5134   5130   5137     1   109.6600471 523.836800
   5134   5146   5152     1   111.5100476 526.347200
   5137   5140   5149     1   111.5100476 526.347200
   5140   5149   5158     1   107.9700462 569.024000
   5143   5155   9723     1   107.9700462 569.024000
   5146   5152   9700     1   107.9700462 569.024000
   5152   9700   9696     1   112.4800480 524.673600
   5155   9723   9719     1   112.4800480 524.673600
   5160   5161   5173     1   114.2100488 537.225600
   5160   5164   5176     1   114.2100488 537.225600
   5160   5167   5170     1   114.2100488 537.225600
   5161   5160   5164     1   109.6600471 523.836800
   5161   5160   5167     1   109.6600471 523.836800
   5161   5173   5185     1   111.5100476 526.347200
   5164   5160   5167     1   109.6600471 523.836800
   5164   5176   5182     1   111.5100476 526.347200
   5167   5170   5179     1   111.5100476 526.347200
   5170   5179   5188     1   107.9700462 569.024000
   5173   5185   9769     1   107.9700462 569.024000
   5176   5182   9746     1   107.9700462 569.024000
   5182   9746   9742     1   112.4800480 524.673600
   5185   9769   9765     1   112.4800480 524.673600
   5190   5191   5203     1   114.2100488 537.225600
   5190   5194   5206     1   114.2100488 537.225600
   5190   5197   5200     1   114.2100488 537.225600
   5191   5190   5194     1   109.6600471 523.836800
   5191   5190   5197     1   109.6600471 523.836800
   5191   5203   5215     1   111.5100476 526.347200
   5194   5190   5197     1   109.6600471 523.836800
   5194   5206   5212     1   111.5100476 526.347200
   5197   5200   5209     1   111.5100476 526.347200
   5200   5209   5218     1   107.9700462 569.024000
   5203   5215   9815     1   107.9700462 569.024000
   5206   5212   9792     1   107.9700462 569.024000
   5212   9792   9788     1   112.4800480 524.673600
   5215   9815   9811     1   112.4800480 524.673600
   5220   5221   5233     1   114.2100488 537.225600
   5220   5224   5236     1   114.2100488 537.225600
   5220   5227   5230     1   114.2100488 537.225600
   5221   5220   5224     1   109.6600471 523.836800
   5221   5220   5227     1   109.6600471 523.836800
   5221   5233   5245     1   111.5100476 526.347200
   5224   5220   5227     1   109.6600471 523.836800
   5224   5236   5242     1   111.5100476 526.347200
   5227   5230   5239     1   111.5100476 526.347200
   5230   5239   5248     1   107.9700462 569.024000
   5233   5245   9861     1   107.9700462 569.024000
   5236   5242   9838     1   107.9700462 569.024000
   5242   9838   9834     1   112.4800480 524.673600
   5245   9861   9857     1   112.4800480 524.673600
   5250   5251   5263     1   114.2100488 537.225600
   5250   5254   5266     1   114.2100488 537.225600
   5250   5257   5260     1   114.2100488 537.225600
   5251   5250   5254     1   109.6600471 523.836800
   5251   5250   5257     1   109.6600471 523.836800
   5251   5263   5275     1   111.5100476 526.347200
   5254   5250   5257     1   109.6600471 523.836800
   5254   5266   5272     1   111.5100476 526.347200
   5257   5260   5269     1   111.5100476 526.347200
   5260   5269   5278     1   107.9700462 569.024000
   5263   5275   9907     1   107.9700462 569.024000
   5266   5272   9884     1   107.9700462 569.024000
   5272   9884   9880     1   112.4800480 524.673600
   5275   9907   9903     1   112.4800480 524.673600
   5280   5281   5293     1   114.2100488 537.225600
   5280   5284   5296     1   114.2100488 537.225600
   5280   5287   5290     1   114.2100488 537.225600
   5281   5280   5284     1   109.6600471 523.836800
   5281   5280   5287     1   109.6600471 523.836800
   5281   5293   5305     1   111.5100476 526.347200
   5284   5280   5287     1   109.6600471 523.836800
   5284   5296   5302     1   111.5100476 526.347200
   5287   5290   5299     1   111.5100476 526.347200
   5290   5299   5308     1   107.9700462 569.024000
   5293   5305   9953     1   107.9700462 569.024000
   5296   5302   9930     1   107.9700462 569.024000
   5302   9930   9926     1   112.4800480 524.673600
   5305   9953   9949     1   112.4800480 524.673600
   5310   5311   5323     1   114.2100488 537.225600
   5310   5314   5326     1   114.2100488 537.225600
   5310   5317   5320     1   114.2100488 537.225600
   5311   5310   5314     1   109.6600471 523.836800
   5311   5310   5317     1   109.6600471 523.836800
   5311   5323   5335     1   111.5100476 526.347200
   5314   5310   5317     1   109.6600471 523.836800
   5314   5326   5332     1   111.5100476 526.347200
   5317   5320   5329     1   111.5100476 526.347200
   5320   5329   5338     1   107.9700462 569.024000
   5323   5335   9999     1   107.9700462 569.024000
   5326   5332   9976     1   107.9700462 569.024000
   5332   9976   9972     1   112.4800480 524.673600
   5335   9999   9995     1   112.4800480 524.673600
   5340   5341   5353     1   114.2100488 537.225600
   5340   5344   5356     1   114.2100488 537.225600
   5340   5347   5350     1   114.2100488 537.225600
   5341   5340   5344     1   109.6600471 523.836800
   5341   5340   5347     1   109.6600471 523.836800
   5341   5353   5365     1   111.5100476 526.347200
   5344   5340   5347     1   109.6600471 523.836800
   5344   5356   5362     1   111.5100476 526.347200
   5347   5350   5359     1   111.5100476 526.347200
   5350   5359   5368     1   107.9700462 569.024000
   5353   5365  10045     1   107.9700462 569.024000
   5356   5362  10022     1   107.9700462 569.024000
   5362  10022  10018     1   112.4800480 524.673600
   5365  10045  10041     1   112.4800480 524.673600
   5370   5371   5383     1   114.2100488 537.225600
   5370   5374   5386     1   114.2100488 537.225600
   5370   5377   5380     1   114.2100488 537.225600
   5371   5370   5374     1   109.6600471 523.836800
   5371   5370   5377     1   109.6600471 523.836800
   5371   5383   5395     1   111.5100476 526.347200
   5374   5370   5377     1   109.6600471 523.836800
   5374   5386   5392     1   111.5100476 526.347200
   5377   5380   5389     1   111.5100476 526.347200
   5380   5389   5398     1   107.9700462 569.024000
   5383   5395  10091     1   107.9700462 569.024000
   5386   5392  10068     1   107.9700462 569.024000
   5392  10068  10064     1   112.4800480 524.673600
   5395  10091  10087     1   112.4800480 524.673600
   5400   5401   5413     1   114.2100488 537.225600
   5400   5404   5416     1   114.2100488 537.225600
   5400   5407   5410     1   114.2100488 537.225600
   5401   5400   5404     1   109.6600471 523.836800
   5401   5400   5407     1   109.6600471 523.836800
   5401   5413   5425     1   111.5100476 526.347200
   5404   5400   5407     1   109.6600471 523.836800
   5404   5416   5422     1   111.5100476 526.347200
   5407   5410   5419     1   111.5100476 526.347200
   5410   5419   5428     1   107.9700462 569.024000
   5413   5425  10137     1   107.9700462 569.024000
   5416   5422  10114     1   107.9700462 569.024000
   5422  10114  10110     1   112.4800480 524.673600
   5425  10137  10133     1   112.4800480 524.673600
   5430   5431   5443     1   114.2100488 537.225600
   5430   5434   5446     1   114.2100488 537.225600
   5430   5437   5440     1   114.2100488 537.225600
   5431   5430   5434     1   109.6600471 523.836800
   5431   5430   5437     1   109.6600471 523.836800
   5431   5443   5455     1   111.5100476 526.347200
   5434   5430   5437     1   109.6600471 523.836800
   5434   5446   5452     1   111.5100476 526.347200
   5437   5440   5449     1   111.5100476 526.347200
   5440   5449   5458     1   107.9700462 569.024000
   5443   5455  10183     1   107.9700462 569.024000
   5446   5452  10160     1   107.9700462 569.024000
   5452  10160  10156     1   112.4800480 524.673600
   5455  10183  10179     1   112.4800480 524.673600
   5460   5461   5473     1   114.2100488 537.225600
   5460   5464   5476     1   114.2100488 537.225600
   5460   5467   5470     1   114.2100488 537.225600
   5461   5460   5464     1   109.6600471 523.836800
   5461   5460   5467     1   109.6600471 523.836800
   5461   5473   5485     1   111.5100476 526.347200
   5464   5460   5467     1   109.6600471 523.836800
   5464   5476   5482     1   111.5100476 526.347200
   5467   5470   5479     1   111.5100476 526.347200
   5470   5479   5488     1   107.9700462 569.024000
   5473   5485  10229     1   107.9700462 569.024000
   5476   5482  10206     1   107.9700462 569.024000
   5482  10206  10202     1   112.4800480 524.673600
   5485  10229  10225     1   112.4800480 524.673600
   5490   5491   5503     1   114.2100488 537.225600
   5490   5494   5506     1   114.2100488 537.225600
   5490   5497   5500     1   114.2100488 537.225600
   5491   5490   5494     1   109.6600471 523.836800
   5491   5490   5497     1   109.6600471 523.836800
   5491   5503   5515     1   111.5100476 526.347200
   5494   5490   5497     1   109.6600471 523.836800
   5494   5506   5512     1   111.5100476 526.347200
   5497   5500   5509     1   111.5100476 526.347200
   5500   5509   5518     1   107.9700462 569.024000
   5503   5515  10275     1   107.9700462 569.024000
   5506   5512  10252     1   107.9700462 569.024000
   5512  10252  10248     1   112.4800480 524.673600
   5515  10275  10271     1   112.4800480 524.673600
   5520   5521   5533     1   114.2100488 537.225600
   5520   5524   5536     1   114.2100488 537.225600
   5520   5527   5530     1   114.2100488 537.225600
   5521   5520   5524     1   109.6600471 523.836800
   5521   5520   5527     1   109.6600471 523.836800
   5521   5533   5545     1   111.5100476 526.347200
   5524   5520   5527     1   109.6600471 523.836800
   5524   5536   5542     1   111.5100476 526.347200
   5527   5530   5539     1   111.5100476 526.347200
   5530   5539   5548     1   107.9700462 569.024000
   5533   5545  10321     1   107.9700462 569.024000
   5536   5542  10298     1   107.9700462 569.024000
   5542  10298  10294     1   112.4800480 524.673600
   5545  10321  10317     1   112.4800480 524.673600
   5550   5551   5563     1   114.2100488 537.225600
   5550   5554   5566     1   114.2100488 537.225600
   5550   5557   5560     1   114.2100488 537.225600
   5551   5550   5554     1   109.6600471 523.836800
   5551   5550   5557     1   109.6600471 523.836800
   5551   5563   5575     1   111.5100476 526.347200
   5554   5550   5557     1   109.6600471 523.836800
   5554   5566   5572     1   111.5100476 526.347200
   5557   5560   5569     1   111.5100476 526.347200
   5560   5569   5578     1   107.9700462 569.024000
   5563   5575  10367     1   107.9700462 569.024000
   5566   5572  10344     1   107.9700462 569.024000
   5572  10344  10340     1   112.4800480 524.673600
   5575  10367  10363     1   112.4800480 524.673600
   5580   5581   5593     1   114.2100488 537.225600
   5580   5584   5596     1   114.2100488 537.225600
   5580   5587   5590     1   114.2100488 537.225600
   5581   5580   5584     1   109.6600471 523.836800
   5581   5580   5587     1   109.6600471 523.836800
   5581   5593   5605     1   111.5100476 526.347200
   5584   5580   5587     1   109.6600471 523.836800
   5584   5596   5602     1   111.5100476 526.347200
   5587   5590   5599     1   111.5100476 526.347200
   5590   5599   5608     1   107.9700462 569.024000
   5593   5605  10413     1   107.9700462 569.024000
   5596   5602  10390     1   107.9700462 569.024000
   5602  10390  10386     1   112.4800480 524.673600
   5605  10413  10409     1   112.4800480 524.673600
   5610   5611   5623     1   114.2100488 537.225600
   5610   5614   5626     1   114.2100488 537.225600
   5610   5617   5620     1   114.2100488 537.225600
   5611   5610   5614     1   109.6600471 523.836800
   5611   5610   5617     1   109.6600471 523.836800
   5611   5623   5635     1   111.5100476 526.347200
   5614   5610   5617     1   109.6600471 523.836800
   5614   5626   5632     1   111.5100476 526.347200
   5617   5620   5629     1   111.5100476 526.347200
   5620   5629   5638     1   107.9700462 569.024000
   5623   5635  10459     1   107.9700462 569.024000
   5626   5632  10436     1   107.9700462 569.024000
   5632  10436  10432     1   112.4800480 524.673600
   5635  10459  10455     1   112.4800480 524.673600
   5640   5641   5653     1   114.2100488 537.225600
   5640   5644   5656     1   114.2100488 537.225600
   5640   5647   5650     1   114.2100488 537.225600
   5641   5640   5644     1   109.6600471 523.836800
   5641   5640   5647     1   109.6600471 523.836800
   5641   5653   5665     1   111.5100476 526.347200
   5644   5640   5647     1   109.6600471 523.836800
   5644   5656   5662     1   111.5100476 526.347200
   5647   5650   5659     1   111.5100476 526.347200
   5650   5659   5668     1   107.9700462 569.024000
   5653   5665  10505     1   107.9700462 569.024000
   5656   5662  10482     1   107.9700462 569.024000
   5662  10482  10478     1   112.4800480 524.673600
   5665  10505  10501     1   112.4800480 524.673600
   5670   5671   5683     1   114.2100488 537.225600
   5670   5674   5686     1   114.2100488 537.225600
   5670   5677   5680     1   114.2100488 537.225600
   5671   5670   5674     1   109.6600471 523.836800
   5671   5670   5677     1   109.6600471 523.836800
   5671   5683   5695     1   111.5100476 526.347200
   5674   5670   5677     1   109.6600471 523.836800
   5674   5686   5692     1   111.5100476 526.347200
   5677   5680   5689     1   111.5100476 526.347200
   5680   5689   5698     1   107.9700462 569.024000
   5683   5695  10551     1   107.9700462 569.024000
   5686   5692  10528     1   107.9700462 569.024000
   5692  10528  10524     1   112.4800480 524.673600
   5695  10551  10547     1   112.4800480 524.673600
   5700   5701   5713     1   114.2100488 537.225600
   5700   5704   5716     1   114.2100488 537.225600
   5700   5707   5710     1   114.2100488 537.225600
   5701   5700   5704     1   109.6600471 523.836800
   5701   5700   5707     1   109.6600471 523.836800
   5701   5713   5725     1   111.5100476 526.347200
   5704   5700   5707     1   109.6600471 523.836800
   5704   5716   5722     1   111.5100476 526.347200
   5707   5710   5719     1   111.5100476 526.347200
   5710   5719   5728     1   107.9700462 569.024000
   5713   5725  10597     1   107.9700462 569.024000
   5716   5722  10574     1   107.9700462 569.024000
   5722  10574  10570     1   112.4800480 524.673600
   5725  10597  10593     1   112.4800480 524.673600
   5730   5731   5743     1   114.2100488 537.225600
   5730   5734   5746     1   114.2100488 537.225600
   5730   5737   5740     1   114.2100488 537.225600
   5731   5730   5734     1   109.6600471 523.836800
   5731   5730   5737     1   109.6600471 523.836800
   5731   5743   5755     1   111.5100476 526.347200
   5734   5730   5737     1   109.6600471 523.836800
   5734   5746   5752     1   111.5100476 526.347200
   5737   5740   5749     1   111.5100476 526.347200
   5740   5749   5758     1   107.9700462 569.024000
   5743   5755  10643     1   107.9700462 569.024000
   5746   5752  10620     1   107.9700462 569.024000
   5752  10620  10616     1   112.4800480 524.673600
   5755  10643  10639     1   112.4800480 524.673600
   5760   5761   5773     1   114.2100488 537.225600
   5760   5764   5776     1   114.2100488 537.225600
   5760   5767   5770     1   114.2100488 537.225600
   5761   5760   5764     1   109.6600471 523.836800
   5761   5760   5767     1   109.6600471 523.836800
   5761   5773   5785     1   111.5100476 526.347200
   5764   5760   5767     1   109.6600471 523.836800
   5764   5776   5782     1   111.5100476 526.347200
   5767   5770   5779     1   111.5100476 526.347200
   5770   5779   5788     1   107.9700462 569.024000
   5773   5785  10689     1   107.9700462 569.024000
   5776   5782  10666     1   107.9700462 569.024000
   5782  10666  10662     1   112.4800480 524.673600
   5785  10689  10685     1   112.4800480 524.673600
   5790   5791   5803     1   114.2100488 537.225600
   5790   5794   5806     1   114.2100488 537.225600
   5790   5797   5800     1   114.2100488 537.225600
   5791   5790   5794     1   109.6600471 523.836800
   5791   5790   5797     1   109.6600471 523.836800
   5791   5803   5815     1   111.5100476 526.347200
   5794   5790   5797     1   109.6600471 523.836800
   5794   5806   5812     1   111.5100476 526.347200
   5797   5800   5809     1   111.5100476 526.347200
   5800   5809   5818     1   107.9700462 569.024000
   5803   5815  10735     1   107.9700462 569.024000
   5806   5812  10712     1   107.9700462 569.024000
   5812  10712  10708     1   112.4800480 524.673600
   5815  10735  10731     1   112.4800480 524.673600
   5820   5821   5833     1   114.2100488 537.225600
   5820   5824   5836     1   114.2100488 537.225600
   5820   5827   5830     1   114.2100488 537.225600
   5821   5820   5824     1   109.6600471 523.836800
   5821   5820   5827     1   109.6600471 523.836800
   5821   5833   5845     1   111.5100476 526.347200
   5824   5820   5827     1   109.6600471 523.836800
   5824   5836   5842     1   111.5100476 526.347200
   5827   5830   5839     1   111.5100476 526.347200
   5830   5839   5848     1   107.9700462 569.024000
   5833   5845  10781     1   107.9700462 569.024000
   5836   5842  10758     1   107.9700462 569.024000
   5842  10758  10754     1   112.4800480 524.673600
   5845  10781  10777     1   112.4800480 524.673600
   5850   5851   5863     1   114.2100488 537.225600
   5850   5854   5866     1   114.2100488 537.225600
   5850   5857   5860     1   114.2100488 537.225600
   5851   5850   5854     1   109.6600471 523.836800
   5851   5850   5857     1   109.6600471 523.836800
   5851   5863   5875     1   111.5100476 526.347200
   5854   5850   5857     1   109.6600471 523.836800
   5854   5866   5872     1   111.5100476 526.347200
   5857   5860   5869     1   111.5100476 526.347200
   5860   5869   5878     1   107.9700462 569.024000
   5863   5875  10827     1   107.9700462 569.024000
   5866   5872  10804     1   107.9700462 569.024000
   5872  10804  10800     1   112.4800480 524.673600
   5875  10827  10823     1   112.4800480 524.673600
   5880   5881   5893     1   114.2100488 537.225600
   5880   5884   5896     1   114.2100488 537.225600
   5880   5887   5890     1   114.2100488 537.225600
   5881   5880   5884     1   109.6600471 523.836800
   5881   5880   5887     1   109.6600471 523.836800
   5881   5893   5905     1   111.5100476 526.347200
   5884   5880   5887     1   109.6600471 523.836800
   5884   5896   5902     1   111.5100476 526.347200
   5887   5890   5899     1   111.5100476 526.347200
   5890   5899   5908     1   107.9700462 569.024000
   5893   5905  10873     1   107.9700462 569.024000
   5896   5902  10850     1   107.9700462 569.024000
   5902  10850  10846     1   112.4800480 524.673600
   5905  10873  10869     1   112.4800480 524.673600
   5910   5911   5923     1   114.2100488 537.225600
   5910   5914   5926     1   114.2100488 537.225600
   5910   5917   5920     1   114.2100488 537.225600
   5911   5910   5914     1   109.6600471 523.836800
   5911   5910   5917     1   109.6600471 523.836800
   5911   5923   5935     1   111.5100476 526.347200
   5914   5910   5917     1   109.6600471 523.836800
   5914   5926   5932     1   111.5100476 526.347200
   5917   5920   5929     1   111.5100476 526.347200
   5920   5929   5938     1   107.9700462 569.024000
   5923   5935  10919     1   107.9700462 569.024000
   5926   5932  10896     1   107.9700462 569.024000
   5932  10896  10892     1   112.4800480 524.673600
   5935  10919  10915     1   112.4800480 524.673600
   5940   5941   5953     1   114.2100488 537.225600
   5940   5944   5956     1   114.2100488 537.225600
   5940   5947   5950     1   114.2100488 537.225600
   5941   5940   5944     1   109.6600471 523.836800
   5941   5940   5947     1   109.6600471 523.836800
   5941   5953   5965     1   111.5100476 526.347200
   5944   5940   5947     1   109.6600471 523.836800
   5944   5956   5962     1   111.5100476 526.347200
   5947   5950   5959     1   111.5100476 526.347200
   5950   5959   5968     1   107.9700462 569.024000
   5953   5965  10965     1   107.9700462 569.024000
   5956   5962  10942     1   107.9700462 569.024000
   5962  10942  10938     1   112.4800480 524.673600
   5965  10965  10961     1   112.4800480 524.673600
   5970   5971   5983     1   114.2100488 537.225600
   5970   5974   5986     1   114.2100488 537.225600
   5970   5977   5980     1   114.2100488 537.225600
   5971   5970   5974     1   109.6600471 523.836800
   5971   5970   5977     1   109.6600471 523.836800
   5971   5983   5995     1   111.5100476 526.347200
   5974   5970   5977     1   109.6600471 523.836800
   5974   5986   5992     1   111.5100476 526.347200
   5977   5980   5989     1   111.5100476 526.347200
   5980   5989   5998     1   107.9700462 569.024000
   5983   5995  11011     1   107.9700462 569.024000
   5986   5992  10988     1   107.9700462 569.024000
   5992  10988  10984     1   112.4800480 524.673600
   5995  11011  11007     1   112.4800480 524.673600
   6000   6001   6013     1   114.2100488 537.225600
   6000   6004   6016     1   114.2100488 537.225600
   6000   6007   6010     1   114.2100488 537.225600
   6001   6000   6004     1   109.6600471 523.836800
   6001   6000   6007     1   109.6600471 523.836800
   6001   6013   6025     1   111.5100476 526.347200
   6004   6000   6007     1   109.6600471 523.836800
   6004   6016   6022     1   111.5100476 526.347200
   6007   6010   6019     1   111.5100476 526.347200
   6010   6019   6028     1   107.9700462 569.024000
   6013   6025  11057     1   107.9700462 569.024000
   6016   6022  11034     1   107.9700462 569.024000
   6022  11034  11030     1   112.4800480 524.673600
   6025  11057  11053     1   112.4800480 524.673600
   6030   6031   6043     1   114.2100488 537.225600
   6030   6034   6046     1   114.2100488 537.225600
   6030   6037   6040     1   114.2100488 537.225600
   6031   6030   6034     1   109.6600471 523.836800
   6031   6030   6037     1   109.6600471 523.836800
   6031   6043   6055     1   111.5100476 526.347200
   6034   6030   6037     1   109.6600471 523.836800
   6034   6046   6052     1   111.5100476 526.347200
   6037   6040   6049     1   111.5100476 526.347200
   6040   6049   6058     1   107.9700462 569.024000
   6043   6055  11103     1   107.9700462 569.024000
   6046   6052  11080     1   107.9700462 569.024000
   6052  11080  11076     1   112.4800480 524.673600
   6055  11103  11099     1   112.4800480 524.673600
   6060   6061   6073     1   114.2100488 537.225600
   6060   6064   6076     1   114.2100488 537.225600
   6060   6067   6070     1   114.2100488 537.225600
   6061   6060   6064     1   109.6600471 523.836800
   6061   6060   6067     1   109.6600471 523.836800
   6061   6073   6085     1   111.5100476 526.347200
   6064   6060   6067     1   109.6600471 523.836800
   6064   6076   6082     1   111.5100476 526.347200
   6067   6070   6079     1   111.5100476 526.347200
   6070   6079   6088     1   107.9700462 569.024000
   6073   6085  11149     1   107.9700462 569.024000
   6076   6082  11126     1   107.9700462 569.024000
   6082  11126  11122     1   112.4800480 524.673600
   6085  11149  11145     1   112.4800480 524.673600
   6090   6091   6103     1   114.2100488 537.225600
   6090   6094   6106     1   114.2100488 537.225600
   6090   6097   6100     1   114.2100488 537.225600
   6091   6090   6094     1   109.6600471 523.836800
   6091   6090   6097     1   109.6600471 523.836800
   6091   6103   6115     1   111.5100476 526.347200
   6094   6090   6097     1   109.6600471 523.836800
   6094   6106   6112     1   111.5100476 526.347200
   6097   6100   6109     1   111.5100476 526.347200
   6100   6109   6118     1   107.9700462 569.024000
   6103   6115  11195     1   107.9700462 569.024000
   6106   6112  11172     1   107.9700462 569.024000
   6112  11172  11168     1   112.4800480 524.673600
   6115  11195  11191     1   112.4800480 524.673600
   6120   6121   6133     1   114.2100488 537.225600
   6120   6124   6136     1   114.2100488 537.225600
   6120   6127   6130     1   114.2100488 537.225600
   6121   6120   6124     1   109.6600471 523.836800
   6121   6120   6127     1   109.6600471 523.836800
   6121   6133   6145     1   111.5100476 526.347200
   6124   6120   6127     1   109.6600471 523.836800
   6124   6136   6142     1   111.5100476 526.347200
   6127   6130   6139     1   111.5100476 526.347200
   6130   6139   6148     1   107.9700462 569.024000
   6133   6145  11241     1   107.9700462 569.024000
   6136   6142  11218     1   107.9700462 569.024000
   6142  11218  11214     1   112.4800480 524.673600
   6145  11241  11237     1   112.4800480 524.673600
   6150   6151   6163     1   114.2100488 537.225600
   6150   6154   6166     1   114.2100488 537.225600
   6150   6157   6160     1   114.2100488 537.225600
   6151   6150   6154     1   109.6600471 523.836800
   6151   6150   6157     1   109.6600471 523.836800
   6151   6163   6175     1   111.5100476 526.347200
   6154   6150   6157     1   109.6600471 523.836800
   6154   6166   6172     1   111.5100476 526.347200
   6157   6160   6169     1   111.5100476 526.347200
   6160   6169   6178     1   107.9700462 569.024000
   6163   6175  11287     1   107.9700462 569.024000
   6166   6172  11264     1   107.9700462 569.024000
   6172  11264  11260     1   112.4800480 524.673600
   6175  11287  11283     1   112.4800480 524.673600
   6180   6181   6193     1   114.2100488 537.225600
   6180   6184   6196     1   114.2100488 537.225600
   6180   6187   6190     1   114.2100488 537.225600
   6181   6180   6184     1   109.6600471 523.836800
   6181   6180   6187     1   109.6600471 523.836800
   6181   6193   6205     1   111.5100476 526.347200
   6184   6180   6187     1   109.6600471 523.836800
   6184   6196   6202     1   111.5100476 526.347200
   6187   6190   6199     1   111.5100476 526.347200
   6190   6199   6208     1   107.9700462 569.024000
   6193   6205  11333     1   107.9700462 569.024000
   6196   6202  11310     1   107.9700462 569.024000
   6202  11310  11306     1   112.4800480 524.673600
   6205  11333  11329     1   112.4800480 524.673600
   6210   6211   6223     1   114.2100488 537.225600
   6210   6214   6226     1   114.2100488 537.225600
   6210   6217   6220     1   114.2100488 537.225600
   6211   6210   6214     1   109.6600471 523.836800
   6211   6210   6217     1   109.6600471 523.836800
   6211   6223   6235     1   111.5100476 526.347200
   6214   6210   6217     1   109.6600471 523.836800
   6214   6226   6232     1   111.5100476 526.347200
   6217   6220   6229     1   111.5100476 526.347200
   6220   6229   6238     1   107.9700462 569.024000
   6223   6235  11379     1   107.9700462 569.024000
   6226   6232  11356     1   107.9700462 569.024000
   6232  11356  11352     1   112.4800480 524.673600
   6235  11379  11375     1   112.4800480 524.673600
   6240   6241   6253     1   114.2100488 537.225600
   6240   6244   6256     1   114.2100488 537.225600
   6240   6247   6250     1   114.2100488 537.225600
   6241   6240   6244     1   109.6600471 523.836800
   6241   6240   6247     1   109.6600471 523.836800
   6241   6253   6265     1   111.5100476 526.347200
   6244   6240   6247     1   109.6600471 523.836800
   6244   6256   6262     1   111.5100476 526.347200
   6247   6250   6259     1   111.5100476 526.347200
   6250   6259   6268     1   107.9700462 569.024000
   6253   6265  11425     1   107.9700462 569.024000
   6256   6262  11402     1   107.9700462 569.024000
   6262  11402  11398     1   112.4800480 524.673600
   6265  11425  11421     1   112.4800480 524.673600
   6270   6271   6283     1   114.2100488 537.225600
   6270   6274   6286     1   114.2100488 537.225600
   6270   6277   6280     1   114.2100488 537.225600
   6271   6270   6274     1   109.6600471 523.836800
   6271   6270   6277     1   109.6600471 523.836800
   6271   6283   6295     1   111.5100476 526.347200
   6274   6270   6277     1   109.6600471 523.836800
   6274   6286   6292     1   111.5100476 526.347200
   6277   6280   6289     1   111.5100476 526.347200
   6280   6289   6298     1   107.9700462 569.024000
   6283   6295  11471     1   107.9700462 569.024000
   6286   6292  11448     1   107.9700462 569.024000
   6292  11448  11444     1   112.4800480 524.673600
   6295  11471  11467     1   112.4800480 524.673600
   6300   6301   6313     1   114.2100488 537.225600
   6300   6304   6316     1   114.2100488 537.225600
   6300   6307   6310     1   114.2100488 537.225600
   6301   6300   6304     1   109.6600471 523.836800
   6301   6300   6307     1   109.6600471 523.836800
   6301   6313   6325     1   111.5100476 526.347200
   6304   6300   6307     1   109.6600471 523.836800
   6304   6316   6322     1   111.5100476 526.347200
   6307   6310   6319     1   111.5100476 526.347200
   6310   6319   6328     1   107.9700462 569.024000
   6313   6325  11517     1   107.9700462 569.024000
   6316   6322  11494     1   107.9700462 569.024000
   6322  11494  11490     1   112.4800480 524.673600
   6325  11517  11513     1   112.4800480 524.673600
   6330   6331   6343     1   114.2100488 537.225600
   6330   6334   6346     1   114.2100488 537.225600
   6330   6337   6340     1   114.2100488 537.225600
   6331   6330   6334     1   109.6600471 523.836800
   6331   6330   6337     1   109.6600471 523.836800
   6331   6343   6355     1   111.5100476 526.347200
   6334   6330   6337     1   109.6600471 523.836800
   6334   6346   6352     1   111.5100476 526.347200
   6337   6340   6349     1   111.5100476 526.347200
   6340   6349   6358     1   107.9700462 569.024000
   6343   6355  11563     1   107.9700462 569.024000
   6346   6352  11540     1   107.9700462 569.024000
   6352  11540  11536     1   112.4800480 524.673600
   6355  11563  11559     1   112.4800480 524.673600
   6360   6361   6373     1   114.2100488 537.225600
   6360   6364   6376     1   114.2100488 537.225600
   6360   6367   6370     1   114.2100488 537.225600
   6361   6360   6364     1   109.6600471 523.836800
   6361   6360   6367     1   109.6600471 523.836800
   6361   6373   6385     1   111.5100476 526.347200
   6364   6360   6367     1   109.6600471 523.836800
   6364   6376   6382     1   111.5100476 526.347200
   6367   6370   6379     1   111.5100476 526.347200
   6370   6379   6388     1   107.9700462 569.024000
   6373   6385  11609     1   107.9700462 569.024000
   6376   6382  11586     1   107.9700462 569.024000
   6382  11586  11582     1   112.4800480 524.673600
   6385  11609  11605     1   112.4800480 524.673600
   6390   6391   6403     1   114.2100488 537.225600
   6390   6394   6406     1   114.2100488 537.225600
   6390   6397   6400     1   114.2100488 537.225600
   6391   6390   6394     1   109.6600471 523.836800
   6391   6390   6397     1   109.6600471 523.836800
   6391   6403   6415     1   111.5100476 526.347200
   6394   6390   6397     1   109.6600471 523.836800
   6394   6406   6412     1   111.5100476 526.347200
   6397   6400   6409     1   111.5100476 526.347200
   6400   6409   6418     1   107.9700462 569.024000
   6403   6415  11655     1   107.9700462 569.024000
   6406   6412  11632     1   107.9700462 569.024000
   6412  11632  11628     1   112.4800480 524.673600
   6415  11655  11651     1   112.4800480 524.673600
   6420   6421   6433     1   114.2100488 537.225600
   6420   6424   6436     1   114.2100488 537.225600
   6420   6427   6430     1   114.2100488 537.225600
   6421   6420   6424     1   109.6600471 523.836800
   6421   6420   6427     1   109.6600471 523.836800
   6421   6433   6445     1   111.5100476 526.347200
   6424   6420   6427     1   109.6600471 523.836800
   6424   6436   6442     1   111.5100476 526.347200
   6427   6430   6439     1   111.5100476 526.347200
   6430   6439   6448     1   107.9700462 569.024000
   6433   6445  11701     1   107.9700462 569.024000
   6436   6442  11678     1   107.9700462 569.024000
   6442  11678  11674     1   112.4800480 524.673600
   6445  11701  11697     1   112.4800480 524.673600
   6450   6451   6463     1   114.2100488 537.225600
   6450   6454   6466     1   114.2100488 537.225600
   6450   6457   6460     1   114.2100488 537.225600
   6451   6450   6454     1   109.6600471 523.836800
   6451   6450   6457     1   109.6600471 523.836800
   6451   6463   6475     1   111.5100476 526.347200
   6454   6450   6457     1   109.6600471 523.836800
   6454   6466   6472     1   111.5100476 526.347200
   6457   6460   6469     1   111.5100476 526.347200
   6460   6469   6478     1   107.9700462 569.024000
   6463   6475  11747     1   107.9700462 569.024000
   6466   6472  11724     1   107.9700462 569.024000
   6472  11724  11720     1   112.4800480 524.673600
   6475  11747  11743     1   112.4800480 524.673600
   6480   6481   6493     1   114.2100488 537.225600
   6480   6484   6496     1   114.2100488 537.225600
   6480   6487   6490     1   114.2100488 537.225600
   6481   6480   6484     1   109.6600471 523.836800
   6481   6480   6487     1   109.6600471 523.836800
   6481   6493   6505     1   111.5100476 526.347200
   6484   6480   6487     1   109.6600471 523.836800
   6484   6496   6502     1   111.5100476 526.347200
   6487   6490   6499     1   111.5100476 526.347200
   6490   6499   6508     1   107.9700462 569.024000
   6493   6505  11793     1   107.9700462 569.024000
   6496   6502  11770     1   107.9700462 569.024000
   6502  11770  11766     1   112.4800480 524.673600
   6505  11793  11789     1   112.4800480 524.673600
   6510   6511   6523     1   114.2100488 537.225600
   6510   6514   6526     1   114.2100488 537.225600
   6510   6517   6520     1   114.2100488 537.225600
   6511   6510   6514     1   109.6600471 523.836800
   6511   6510   6517     1   109.6600471 523.836800
   6511   6523   6535     1   111.5100476 526.347200
   6514   6510   6517     1   109.6600471 523.836800
   6514   6526   6532     1   111.5100476 526.347200
   6517   6520   6529     1   111.5100476 526.347200
   6520   6529   6538     1   107.9700462 569.024000
   6523   6535  11839     1   107.9700462 569.024000
   6526   6532  11816     1   107.9700462 569.024000
   6532  11816  11812     1   112.4800480 524.673600
   6535  11839  11835     1   112.4800480 524.673600
   6540   6541   6553     1   114.2100488 537.225600
   6540   6544   6556     1   114.2100488 537.225600
   6540   6547   6550     1   114.2100488 537.225600
   6541   6540   6544     1   109.6600471 523.836800
   6541   6540   6547     1   109.6600471 523.836800
   6541   6553   6565     1   111.5100476 526.347200
   6544   6540   6547     1   109.6600471 523.836800
   6544   6556   6562     1   111.5100476 526.347200
   6547   6550   6559     1   111.5100476 526.347200
   6550   6559   6568     1   107.9700462 569.024000
   6553   6565  11885     1   107.9700462 569.024000
   6556   6562  11862     1   107.9700462 569.024000
   6562  11862  11858     1   112.4800480 524.673600
   6565  11885  11881     1   112.4800480 524.673600
   6570   6571   6583     1   114.2100488 537.225600
   6570   6574   6586     1   114.2100488 537.225600
   6570   6577   6580     1   114.2100488 537.225600
   6571   6570   6574     1   109.6600471 523.836800
   6571   6570   6577     1   109.6600471 523.836800
   6571   6583   6595     1   111.5100476 526.347200
   6574   6570   6577     1   109.6600471 523.836800
   6574   6586   6592     1   111.5100476 526.347200
   6577   6580   6589     1   111.5100476 526.347200
   6580   6589   6598     1   107.9700462 569.024000
   6583   6595  11931     1   107.9700462 569.024000
   6586   6592  11908     1   107.9700462 569.024000
   6592  11908  11904     1   112.4800480 524.673600
   6595  11931  11927     1   112.4800480 524.673600
   6600   6601   6613     1   114.2100488 537.225600
   6600   6604   6616     1   114.2100488 537.225600
   6600   6607   6610     1   114.2100488 537.225600
   6601   6600   6604     1   109.6600471 523.836800
   6601   6600   6607     1   109.6600471 523.836800
   6601   6613   6625     1   111.5100476 526.347200
   6604   6600   6607     1   109.6600471 523.836800
   6604   6616   6622     1   111.5100476 526.347200
   6607   6610   6619     1   111.5100476 526.347200
   6610   6619   6628     1   107.9700462 569.024000
   6613   6625  11977     1   107.9700462 569.024000
   6616   6622  11954     1   107.9700462 569.024000
   6622  11954  11950     1   112.4800480 524.673600
   6625  11977  11973     1   112.4800480 524.673600
   6630   6631   6643     1   114.2100488 537.225600
   6630   6634   6646     1   114.2100488 537.225600
   6630   6637   6640     1   114.2100488 537.225600
   6631   6630   6634     1   109.6600471 523.836800
   6631   6630   6637     1   109.6600471 523.836800
   6631   6643   6655     1   111.5100476 526.347200
   6634   6630   6637     1   109.6600471 523.836800
   6634   6646   6652     1   111.5100476 526.347200
   6637   6640   6649     1   111.5100476 526.347200
   6640   6649   6658     1   107.9700462 569.024000
   6643   6655  12023     1   107.9700462 569.024000
   6646   6652  12000     1   107.9700462 569.024000
   6652  12000  11996     1   112.4800480 524.673600
   6655  12023  12019     1   112.4800480 524.673600
   6660   6661   6673     1   114.2100488 537.225600
   6660   6664   6676     1   114.2100488 537.225600
   6660   6667   6670     1   114.2100488 537.225600
   6661   6660   6664     1   109.6600471 523.836800
   6661   6660   6667     1   109.6600471 523.836800
   6661   6673   6685     1   111.5100476 526.347200
   6664   6660   6667     1   109.6600471 523.836800
   6664   6676   6682     1   111.5100476 526.347200
   6667   6670   6679     1   111.5100476 526.347200
   6670   6679   6688     1   107.9700462 569.024000
   6673   6685  12069     1   107.9700462 569.024000
   6676   6682  12046     1   107.9700462 569.024000
   6682  12046  12042     1   112.4800480 524.673600
   6685  12069  12065     1   112.4800480 524.673600
   6690   6691   6703     1   114.2100488 537.225600
   6690   6694   6706     1   114.2100488 537.225600
   6690   6697   6700     1   114.2100488 537.225600
   6691   6690   6694     1   109.6600471 523.836800
   6691   6690   6697     1   109.6600471 523.836800
   6691   6703   6715     1   111.5100476 526.347200
   6694   6690   6697     1   109.6600471 523.836800
   6694   6706   6712     1   111.5100476 526.347200
   6697   6700   6709     1   111.5100476 526.347200
   6700   6709   6718     1   107.9700462 569.024000
   6703   6715  12115     1   107.9700462 569.024000
   6706   6712  12092     1   107.9700462 569.024000
   6712  12092  12088     1   112.4800480 524.673600
   6715  12115  12111     1   112.4800480 524.673600
   6720   6721   6733     1   114.2100488 537.225600
   6720   6724   6736     1   114.2100488 537.225600
   6720   6727   6730     1   114.2100488 537.225600
   6721   6720   6724     1   109.6600471 523.836800
   6721   6720   6727     1   109.6600471 523.836800
   6721   6733   6745     1   111.5100476 526.347200
   6724   6720   6727     1   109.6600471 523.836800
   6724   6736   6742     1   111.5100476 526.347200
   6727   6730   6739     1   111.5100476 526.347200
   6730   6739   6748     1   107.9700462 569.024000
   6733   6745  12161     1   107.9700462 569.024000
   6736   6742  12138     1   107.9700462 569.024000
   6742  12138  12134     1   112.4800480 524.673600
   6745  12161  12157     1   112.4800480 524.673600
   6750   6751   6763     1   114.2100488 537.225600
   6750   6754   6766     1   114.2100488 537.225600
   6750   6757   6760     1   114.2100488 537.225600
   6751   6750   6754     1   109.6600471 523.836800
   6751   6750   6757     1   109.6600471 523.836800
   6751   6763   6775     1   111.5100476 526.347200
   6754   6750   6757     1   109.6600471 523.836800
   6754   6766   6772     1   111.5100476 526.347200
   6757   6760   6769     1   111.5100476 526.347200
   6760   6769   6778     1   107.9700462 569.024000
   6763   6775  12207     1   107.9700462 569.024000
   6766   6772  12184     1   107.9700462 569.024000
   6772  12184  12180     1   112.4800480 524.673600
   6775  12207  12203     1   112.4800480 524.673600
   6780   6781   6793     1   114.2100488 537.225600
   6780   6784   6796     1   114.2100488 537.225600
   6780   6787   6790     1   114.2100488 537.225600
   6781   6780   6784     1   109.6600471 523.836800
   6781   6780   6787     1   109.6600471 523.836800
   6781   6793   6805     1   111.5100476 526.347200
   6784   6780   6787     1   109.6600471 523.836800
   6784   6796   6802     1   111.5100476 526.347200
   6787   6790   6799     1   111.5100476 526.347200
   6790   6799   6808     1   107.9700462 569.024000
   6793   6805  12253     1   107.9700462 569.024000
   6796   6802  12230     1   107.9700462 569.024000
   6802  12230  12226     1   112.4800480 524.673600
   6805  12253  12249     1   112.4800480 524.673600
   6810   6811   6823     1   114.2100488 537.225600
   6810   6814   6826     1   114.2100488 537.225600
   6810   6817   6820     1   114.2100488 537.225600
   6811   6810   6814     1   109.6600471 523.836800
   6811   6810   6817     1   109.6600471 523.836800
   6811   6823   6835     1   111.5100476 526.347200
   6814   6810   6817     1   109.6600471 523.836800
   6814   6826   6832     1   111.5100476 526.347200
   6817   6820   6829     1   111.5100476 526.347200
   6820   6829   6838     1   107.9700462 569.024000
   6823   6835  12299     1   107.9700462 569.024000
   6826   6832  12276     1   107.9700462 569.024000
   6832  12276  12272     1   112.4800480 524.673600
   6835  12299  12295     1   112.4800480 524.673600
   6840   6841   6853     1   114.2100488 537.225600
   6840   6844   6856     1   114.2100488 537.225600
   6840   6847   6850     1   114.2100488 537.225600
   6841   6840   6844     1   109.6600471 523.836800
   6841   6840   6847     1   109.6600471 523.836800
   6841   6853   6865     1   111.5100476 526.347200
   6844   6840   6847     1   109.6600471 523.836800
   6844   6856   6862     1   111.5100476 526.347200
   6847   6850   6859     1   111.5100476 526.347200
   6850   6859   6868     1   107.9700462 569.024000
   6853   6865  12345     1   107.9700462 569.024000
   6856   6862  12322     1   107.9700462 569.024000
   6862  12322  12318     1   112.4800480 524.673600
   6865  12345  12341     1   112.4800480 524.673600
   6870   6871   6883     1   114.2100488 537.225600
   6870   6874   6886     1   114.2100488 537.225600
   6870   6877   6880     1   114.2100488 537.225600
   6871   6870   6874     1   109.6600471 523.836800
   6871   6870   6877     1   109.6600471 523.836800
   6871   6883   6895     1   111.5100476 526.347200
   6874   6870   6877     1   109.6600471 523.836800
   6874   6886   6892     1   111.5100476 526.347200
   6877   6880   6889     1   111.5100476 526.347200
   6880   6889   6898     1   107.9700462 569.024000
   6883   6895  12391     1   107.9700462 569.024000
   6886   6892  12368     1   107.9700462 569.024000
   6892  12368  12364     1   112.4800480 524.673600
   6895  12391  12387     1   112.4800480 524.673600
   6900   6901   6913     1   114.2100488 537.225600
   6900   6904   6916     1   114.2100488 537.225600
   6900   6907   6910     1   114.2100488 537.225600
   6901   6900   6904     1   109.6600471 523.836800
   6901   6900   6907     1   109.6600471 523.836800
   6901   6913   6925     1   111.5100476 526.347200
   6904   6900   6907     1   109.6600471 523.836800
   6904   6916   6922     1   111.5100476 526.347200
   6907   6910   6919     1   111.5100476 526.347200
   6910   6919   6928     1   107.9700462 569.024000
   6913   6925  12437     1   107.9700462 569.024000
   6916   6922  12414     1   107.9700462 569.024000
   6922  12414  12410     1   112.4800480 524.673600
   6925  12437  12433     1   112.4800480 524.673600
   6930   6931   6943     1   114.2100488 537.225600
   6930   6934   6946     1   114.2100488 537.225600
   6930   6937   6940     1   114.2100488 537.225600
   6931   6930   6934     1   109.6600471 523.836800
   6931   6930   6937     1   109.6600471 523.836800
   6931   6943   6955     1   111.5100476 526.347200
   6934   6930   6937     1   109.6600471 523.836800
   6934   6946   6952     1   111.5100476 526.347200
   6937   6940   6949     1   111.5100476 526.347200
   6940   6949   6958     1   107.9700462 569.024000
   6943   6955  12483     1   107.9700462 569.024000
   6946   6952  12460     1   107.9700462 569.024000
   6952  12460  12456     1   112.4800480 524.673600
   6955  12483  12479     1   112.4800480 524.673600
   6960   6961   6973     1   114.2100488 537.225600
   6960   6964   6976     1   114.2100488 537.225600
   6960   6967   6970     1   114.2100488 537.225600
   6961   6960   6964     1   109.6600471 523.836800
   6961   6960   6967     1   109.6600471 523.836800
   6961   6973   6985     1   111.5100476 526.347200
   6964   6960   6967     1   109.6600471 523.836800
   6964   6976   6982     1   111.5100476 526.347200
   6967   6970   6979     1   111.5100476 526.347200
   6970   6979   6988     1   107.9700462 569.024000
   6973   6985  12529     1   107.9700462 569.024000
   6976   6982  12506     1   107.9700462 569.024000
   6982  12506  12502     1   112.4800480 524.673600
   6985  12529  12525     1   112.4800480 524.673600
   6990   6991   7003     1   114.2100488 537.225600
   6990   6994   7006     1   114.2100488 537.225600
   6990   6997   7000     1   114.2100488 537.225600
   6991   6990   6994     1   109.6600471 523.836800
   6991   6990   6997     1   109.6600471 523.836800
   6991   7003   7015     1   111.5100476 526.347200
   6994   6990   6997     1   109.6600471 523.836800
   6994   7006   7012     1   111.5100476 526.347200
   6997   7000   7009     1   111.5100476 526.347200
   7000   7009   7018     1   107.9700462 569.024000
   7003   7015  12575     1   107.9700462 569.024000
   7006   7012  12552     1   107.9700462 569.024000
   7012  12552  12548     1   112.4800480 524.673600
   7015  12575  12571     1   112.4800480 524.673600
   7020   7021   7033     1   114.2100488 537.225600
   7020   7024   7036     1   114.2100488 537.225600
   7020   7027   7030     1   114.2100488 537.225600
   7021   7020   7024     1   109.6600471 523.836800
   7021   7020   7027     1   109.6600471 523.836800
   7021   7033   7045     1   111.5100476 526.347200
   7024   7020   7027     1   109.6600471 523.836800
   7024   7036   7042     1   111.5100476 526.347200
   7027   7030   7039     1   111.5100476 526.347200
   7030   7039   7048     1   107.9700462 569.024000
   7033   7045  12621     1   107.9700462 569.024000
   7036   7042  12598     1   107.9700462 569.024000
   7042  12598  12594     1   112.4800480 524.673600
   7045  12621  12617     1   112.4800480 524.673600
   7050   7051   7063     1   114.2100488 537.225600
   7050   7054   7066     1   114.2100488 537.225600
   7050   7057   7060     1   114.2100488 537.225600
   7051   7050   7054     1   109.6600471 523.836800
   7051   7050   7057     1   109.6600471 523.836800
   7051   7063   7075     1   111.5100476 526.347200
   7054   7050   7057     1   109.6600471 523.836800
   7054   7066   7072     1   111.5100476 526.347200
   7057   7060   7069     1   111.5100476 526.347200
   7060   7069   7078     1   107.9700462 569.024000
   7063   7075  12667     1   107.9700462 569.024000
   7066   7072  12644     1   107.9700462 569.024000
   7072  12644  12640     1   112.4800480 524.673600
   7075  12667  12663     1   112.4800480 524.673600
   7080   7081   7093     1   114.2100488 537.225600
   7080   7084   7096     1   114.2100488 537.225600
   7080   7087   7090     1   114.2100488 537.225600
   7081   7080   7084     1   109.6600471 523.836800
   7081   7080   7087     1   109.6600471 523.836800
   7081   7093   7105     1   111.5100476 526.347200
   7084   7080   7087     1   109.6600471 523.836800
   7084   7096   7102     1   111.5100476 526.347200
   7087   7090   7099     1   111.5100476 526.347200
   7090   7099   7108     1   107.9700462 569.024000
   7093   7105  12713     1   107.9700462 569.024000
   7096   7102  12690     1   107.9700462 569.024000
   7102  12690  12686     1   112.4800480 524.673600
   7105  12713  12709     1   112.4800480 524.673600
   7110   7111   7123     1   114.2100488 537.225600
   7110   7114   7126     1   114.2100488 537.225600
   7110   7117   7120     1   114.2100488 537.225600
   7111   7110   7114     1   109.6600471 523.836800
   7111   7110   7117     1   109.6600471 523.836800
   7111   7123   7135     1   111.5100476 526.347200
   7114   7110   7117     1   109.6600471 523.836800
   7114   7126   7132     1   111.5100476 526.347200
   7117   7120   7129     1   111.5100476 526.347200
   7120   7129   7138     1   107.9700462 569.024000
   7123   7135  12759     1   107.9700462 569.024000
   7126   7132  12736     1   107.9700462 569.024000
   7132  12736  12732     1   112.4800480 524.673600
   7135  12759  12755     1   112.4800480 524.673600
   7140   7141   7153     1   114.2100488 537.225600
   7140   7144   7156     1   114.2100488 537.225600
   7140   7147   7150     1   114.2100488 537.225600
   7141   7140   7144     1   109.6600471 523.836800
   7141   7140   7147     1   109.6600471 523.836800
   7141   7153   7165     1   111.5100476 526.347200
   7144   7140   7147     1   109.6600471 523.836800
   7144   7156   7162     1   111.5100476 526.347200
   7147   7150   7159     1   111.5100476 526.347200
   7150   7159   7168     1   107.9700462 569.024000
   7153   7165  12805     1   107.9700462 569.024000
   7156   7162  12782     1   107.9700462 569.024000
   7162  12782  12778     1   112.4800480 524.673600
   7165  12805  12801     1   112.4800480 524.673600
   7170   7171   7183     1   114.2100488 537.225600
   7170   7174   7186     1   114.2100488 537.225600
   7170   7177   7180     1   114.2100488 537.225600
   7171   7170   7174     1   109.6600471 523.836800
   7171   7170   7177     1   109.6600471 523.836800
   7171   7183   7195     1   111.5100476 526.347200
   7174   7170   7177     1   109.6600471 523.836800
   7174   7186   7192     1   111.5100476 526.347200
   7177   7180   7189     1   111.5100476 526.347200
   7180   7189   7198     1   107.9700462 569.024000
   7183   7195  12851     1   107.9700462 569.024000
   7186   7192  12828     1   107.9700462 569.024000
   7192  12828  12824     1   112.4800480 524.673600
   7195  12851  12847     1   112.4800480 524.673600
   7200   7201   7213     1   114.2100488 537.225600
   7200   7204   7216     1   114.2100488 537.225600
   7200   7207   7210     1   114.2100488 537.225600
   7201   7200   7204     1   109.6600471 523.836800
   7201   7200   7207     1   109.6600471 523.836800
   7201   7213   7225     1   111.5100476 526.347200
   7204   7200   7207     1   109.6600471 523.836800
   7204   7216   7222     1   111.5100476 526.347200
   7207   7210   7219     1   111.5100476 526.347200
   7210   7219   7228     1   107.9700462 569.024000
   7213   7225  12897     1   107.9700462 569.024000
   7216   7222  12874     1   107.9700462 569.024000
   7222  12874  12870     1   112.4800480 524.673600
   7225  12897  12893     1   112.4800480 524.673600
   7230   7231   7243     1   114.2100488 537.225600
   7230   7234   7246     1   114.2100488 537.225600
   7230   7237   7240     1   114.2100488 537.225600
   7231   7230   7234     1   109.6600471 523.836800
   7231   7230   7237     1   109.6600471 523.836800
   7231   7243   7255     1   111.5100476 526.347200
   7234   7230   7237     1   109.6600471 523.836800
   7234   7246   7252     1   111.5100476 526.347200
   7237   7240   7249     1   111.5100476 526.347200
   7240   7249   7258     1   107.9700462 569.024000
   7243   7255  12943     1   107.9700462 569.024000
   7246   7252  12920     1   107.9700462 569.024000
   7252  12920  12916     1   112.4800480 524.673600
   7255  12943  12939     1   112.4800480 524.673600
   7260   7261   7273     1   114.2100488 537.225600
   7260   7264   7276     1   114.2100488 537.225600
   7260   7267   7270     1   114.2100488 537.225600
   7261   7260   7264     1   109.6600471 523.836800
   7261   7260   7267     1   109.6600471 523.836800
   7261   7273   7285     1   111.5100476 526.347200
   7264   7260   7267     1   109.6600471 523.836800
   7264   7276   7282     1   111.5100476 526.347200
   7267   7270   7279     1   111.5100476 526.347200
   7270   7279   7288     1   107.9700462 569.024000
   7273   7285  12989     1   107.9700462 569.024000
   7276   7282  12966     1   107.9700462 569.024000
   7282  12966  12962     1   112.4800480 524.673600
   7285  12989  12985     1   112.4800480 524.673600
   7290   7291   7303     1   114.2100488 537.225600
   7290   7294   7306     1   114.2100488 537.225600
   7290   7297   7300     1   114.2100488 537.225600
   7291   7290   7294     1   109.6600471 523.836800
   7291   7290   7297     1   109.6600471 523.836800
   7291   7303   7315     1   111.5100476 526.347200
   7294   7290   7297     1   109.6600471 523.836800
   7294   7306   7312     1   111.5100476 526.347200
   7297   7300   7309     1   111.5100476 526.347200
   7300   7309   7318     1   107.9700462 569.024000
   7303   7315  13035     1   107.9700462 569.024000
   7306   7312  13012     1   107.9700462 569.024000
   7312  13012  13008     1   112.4800480 524.673600
   7315  13035  13031     1   112.4800480 524.673600
   7320   7321   7333     1   114.2100488 537.225600
   7320   7324   7336     1   114.2100488 537.225600
   7320   7327   7330     1   114.2100488 537.225600
   7321   7320   7324     1   109.6600471 523.836800
   7321   7320   7327     1   109.6600471 523.836800
   7321   7333   7345     1   111.5100476 526.347200
   7324   7320   7327     1   109.6600471 523.836800
   7324   7336   7342     1   111.5100476 526.347200
   7327   7330   7339     1   111.5100476 526.347200
   7330   7339   7348     1   107.9700462 569.024000
   7333   7345  13081     1   107.9700462 569.024000
   7336   7342  13058     1   107.9700462 569.024000
   7342  13058  13054     1   112.4800480 524.673600
   7345  13081  13077     1   112.4800480 524.673600
   7350   7351   7363     1   114.2100488 537.225600
   7350   7354   7366     1   114.2100488 537.225600
   7350   7357   7360     1   114.2100488 537.225600
   7351   7350   7354     1   109.6600471 523.836800
   7351   7350   7357     1   109.6600471 523.836800
   7351   7363   7375     1   111.5100476 526.347200
   7354   7350   7357     1   109.6600471 523.836800
   7354   7366   7372     1   111.5100476 526.347200
   7357   7360   7369     1   111.5100476 526.347200
   7360   7369   7378     1   107.9700462 569.024000
   7363   7375  13127     1   107.9700462 569.024000
   7366   7372  13104     1   107.9700462 569.024000
   7372  13104  13100     1   112.4800480 524.673600
   7375  13127  13123     1   112.4800480 524.673600
   7380   7381   7393     1   114.2100488 537.225600
   7380   7384   7396     1   114.2100488 537.225600
   7380   7387   7390     1   114.2100488 537.225600
   7381   7380   7384     1   109.6600471 523.836800
   7381   7380   7387     1   109.6600471 523.836800
   7381   7393   7405     1   111.5100476 526.347200
   7384   7380   7387     1   109.6600471 523.836800
   7384   7396   7402     1   111.5100476 526.347200
   7387   7390   7399     1   111.5100476 526.347200
   7390   7399   7408     1   107.9700462 569.024000
   7393   7405  13173     1   107.9700462 569.024000
   7396   7402  13150     1   107.9700462 569.024000
   7402  13150  13146     1   112.4800480 524.673600
   7405  13173  13169     1   112.4800480 524.673600
   7410   7411   7423     1   114.2100488 537.225600
   7410   7414   7426     1   114.2100488 537.225600
   7410   7417   7420     1   114.2100488 537.225600
   7411   7410   7414     1   109.6600471 523.836800
   7411   7410   7417     1   109.6600471 523.836800
   7411   7423   7435     1   111.5100476 526.347200
   7414   7410   7417     1   109.6600471 523.836800
   7414   7426   7432     1   111.5100476 526.347200
   7417   7420   7429     1   111.5100476 526.347200
   7420   7429   7438     1   107.9700462 569.024000
   7423   7435  13219     1   107.9700462 569.024000
   7426   7432  13196     1   107.9700462 569.024000
   7432  13196  13192     1   112.4800480 524.673600
   7435  13219  13215     1   112.4800480 524.673600
   7440   7441   7453     1   114.2100488 537.225600
   7440   7444   7456     1   114.2100488 537.225600
   7440   7447   7450     1   114.2100488 537.225600
   7441   7440   7444     1   109.6600471 523.836800
   7441   7440   7447     1   109.6600471 523.836800
   7441   7453   7465     1   111.5100476 526.347200
   7444   7440   7447     1   109.6600471 523.836800
   7444   7456   7462     1   111.5100476 526.347200
   7447   7450   7459     1   111.5100476 526.347200
   7450   7459   7468     1   107.9700462 569.024000
   7453   7465  13265     1   107.9700462 569.024000
   7456   7462  13242     1   107.9700462 569.024000
   7462  13242  13238     1   112.4800480 524.673600
   7465  13265  13261     1   112.4800480 524.673600
   7470   7471   7483     1   114.2100488 537.225600
   7470   7474   7486     1   114.2100488 537.225600
   7470   7477   7480     1   114.2100488 537.225600
   7471   7470   7474     1   109.6600471 523.836800
   7471   7470   7477     1   109.6600471 523.836800
   7471   7483   7495     1   111.5100476 526.347200
   7474   7470   7477     1   109.6600471 523.836800
   7474   7486   7492     1   111.5100476 526.347200
   7477   7480   7489     1   111.5100476 526.347200
   7480   7489   7498     1   107.9700462 569.024000
   7483   7495  13311     1   107.9700462 569.024000
   7486   7492  13288     1   107.9700462 569.024000
   7492  13288  13284     1   112.4800480 524.673600
   7495  13311  13307     1   112.4800480 524.673600
   7500   7501   7513     1   114.2100488 537.225600
   7500   7504   7516     1   114.2100488 537.225600
   7500   7507   7510     1   114.2100488 537.225600
   7501   7500   7504     1   109.6600471 523.836800
   7501   7500   7507     1   109.6600471 523.836800
   7501   7513   7525     1   111.5100476 526.347200
   7504   7500   7507     1   109.6600471 523.836800
   7504   7516   7522     1   111.5100476 526.347200
   7507   7510   7519     1   111.5100476 526.347200
   7510   7519   7528     1   107.9700462 569.024000
   7513   7525  13357     1   107.9700462 569.024000
   7516   7522  13334     1   107.9700462 569.024000
   7522  13334  13330     1   112.4800480 524.673600
   7525  13357  13353     1   112.4800480 524.673600
   7530   7531   7543     1   114.2100488 537.225600
   7530   7534   7546     1   114.2100488 537.225600
   7530   7537   7540     1   114.2100488 537.225600
   7531   7530   7534     1   109.6600471 523.836800
   7531   7530   7537     1   109.6600471 523.836800
   7531   7543   7555     1   111.5100476 526.347200
   7534   7530   7537     1   109.6600471 523.836800
   7534   7546   7552     1   111.5100476 526.347200
   7537   7540   7549     1   111.5100476 526.347200
   7540   7549   7558     1   107.9700462 569.024000
   7543   7555  13403     1   107.9700462 569.024000
   7546   7552  13380     1   107.9700462 569.024000
   7552  13380  13376     1   112.4800480 524.673600
   7555  13403  13399     1   112.4800480 524.673600
   7560   7561   7573     1   114.2100488 537.225600
   7560   7564   7576     1   114.2100488 537.225600
   7560   7567   7570     1   114.2100488 537.225600
   7561   7560   7564     1   109.6600471 523.836800
   7561   7560   7567     1   109.6600471 523.836800
   7561   7573   7585     1   111.5100476 526.347200
   7564   7560   7567     1   109.6600471 523.836800
   7564   7576   7582     1   111.5100476 526.347200
   7567   7570   7579     1   111.5100476 526.347200
   7570   7579   7588     1   107.9700462 569.024000
   7573   7585  13449     1   107.9700462 569.024000
   7576   7582  13426     1   107.9700462 569.024000
   7582  13426  13422     1   112.4800480 524.673600
   7585  13449  13445     1   112.4800480 524.673600
   7590   7591   7603     1   114.2100488 537.225600
   7590   7594   7606     1   114.2100488 537.225600
   7590   7597   7600     1   114.2100488 537.225600
   7591   7590   7594     1   109.6600471 523.836800
   7591   7590   7597     1   109.6600471 523.836800
   7591   7603   7615     1   111.5100476 526.347200
   7594   7590   7597     1   109.6600471 523.836800
   7594   7606   7612     1   111.5100476 526.347200
   7597   7600   7609     1   111.5100476 526.347200
   7600   7609   7618     1   107.9700462 569.024000
   7603   7615  13495     1   107.9700462 569.024000
   7606   7612  13472     1   107.9700462 569.024000
   7612  13472  13468     1   112.4800480 524.673600
   7615  13495  13491     1   112.4800480 524.673600
   7620   7621   7624     1   111.5100476 526.347200
   7620   7621   7633     1   110.1900474 564.840000
   7620   7634   7640     1   110.1900474 564.840000
   7620   7642   7626     1   112.4800480 524.673600
   7621   7620   7634     1   111.5100476 526.347200
   7621   7620   7642     1   107.9700462 569.024000
   7621   7624   7625     1   111.5100476 526.347200
   7621   7624   7632     1   110.1900474 564.840000
   7624   7621   7633     1   110.1900474 564.840000
   7624   7625   7626     1   111.5100476 526.347200
   7624   7625   7631     1   110.1900474 564.840000
   7625   7624   7632     1   110.1900474 564.840000
   7625   7626   7630     1   107.9700462 569.024000
   7625   7626   7642     1   107.9700462 569.024000
   7626   7625   7631     1   110.1900474 564.840000
   7630   7626   7642     1   108.2900466 608.353600
   7634   7620   7642     1   107.9700462 569.024000
   7643   7644   7647     1   111.5100476 526.347200
   7643   7644   7656     1   110.1900474 564.840000
   7643   7657   7663     1   110.1900474 564.840000
   7643   7665   7649     1   112.4800480 524.673600
   7644   7647   7648     1   111.5100476 526.347200
   7644   7647   7655     1   110.1900474 564.840000
   7644   7643   7657     1   111.5100476 526.347200
   7644   7643   7665     1   107.9700462 569.024000
   7647   7648   7649     1   111.5100476 526.347200
   7647   7648   7654     1   110.1900474 564.840000
   7647   7644   7656     1   110.1900474 564.840000
   7648   7649   7653     1   107.9700462 569.024000
   7648   7649   7665     1   107.9700462 569.024000
   7648   7647   7655     1   110.1900474 564.840000
   7649   7648   7654     1   110.1900474 564.840000
   7653   7649   7665     1   108.2900466 608.353600
   7657   7643   7665     1   107.9700462 569.024000
   7666   7667   7670     1   111.5100476 526.347200
   7666   7667   7679     1   110.1900474 564.840000
   7666   7680   7686     1   110.1900474 564.840000
   7666   7688   7672     1   112.4800480 524.673600
   7667   7666   7680     1   111.5100476 526.347200
   7667   7666   7688     1   107.9700462 569.024000
   7667   7670   7671     1   111.5100476 526.347200
   7667   7670   7678     1   110.1900474 564.840000
   7670   7667   7679     1   110.1900474 564.840000
   7670   7671   7672     1   111.5100476 526.347200
   7670   7671   7677     1   110.1900474 564.840000
   7671   7670   7678     1   110.1900474 564.840000
   7671   7672   7676     1   107.9700462 569.024000
   7671   7672   7688     1   107.9700462 569.024000
   7672   7671   7677     1   110.1900474 564.840000
   7676   7672   7688     1   108.2900466 608.353600
   7680   7666   7688     1   107.9700462 569.024000
   7689   7690   7693     1   111.5100476 526.347200
   7689   7690   7702     1   110.1900474 564.840000
   7689   7703   7709     1   110.1900474 564.840000
   7689   7711   7695     1   112.4800480 524.673600
   7690   7693   7694     1   111.5100476 526.347200
   7690   7693   7701     1   110.1900474 564.840000
   7690   7689   7703     1   111.5100476 526.347200
   7690   7689   7711     1   107.9700462 569.024000
   7693   7694   7695     1   111.5100476 526.347200
   7693   7694   7700     1   110.1900474 564.840000
   7693   7690   7702     1   110.1900474 564.840000
   7694   7695   7699     1   107.9700462 569.024000
   7694   7695   7711     1   107.9700462 569.024000
   7694   7693   7701     1   110.1900474 564.840000
   7695   7694   7700     1   110.1900474 564.840000
   7699   7695   7711     1   108.2900466 608.353600
   7703   7689   7711     1   107.9700462 569.024000
   7712   7713   7716     1   111.5100476 526.347200
   7712   7713   7725     1   110.1900474 564.840000
   7712   7726   7732     1   110.1900474 564.840000
   7712   7734   7718     1   112.4800480 524.673600
   7713   7712   7726     1   111.5100476 526.347200
   7713   7712   7734     1   107.9700462 569.024000
   7713   7716   7717     1   111.5100476 526.347200
   7713   7716   7724     1   110.1900474 564.840000
   7716   7713   7725     1   110.1900474 564.840000
   7716   7717   7718     1   111.5100476 526.347200
   7716   7717   7723     1   110.1900474 564.840000
   7717   7716   7724     1   110.1900474 564.840000
   7717   7718   7722     1   107.9700462 569.024000
   7717   7718   7734     1   107.9700462 569.024000
   7718   7717   7723     1   110.1900474 564.840000
   7722   7718   7734     1   108.2900466 608.353600
   7726   7712   7734     1   107.9700462 569.024000
   7735   7736   7739     1   111.5100476 526.347200
   7735   7736   7748     1   110.1900474 564.840000
   7735   7749   7755     1   110.1900474 564.840000
   7735   7757   7741     1   112.4800480 524.673600
   7736   7739   7740     1   111.5100476 526.347200
   7736   7739   7747     1   110.1900474 564.840000
   7736   7735   7749     1   111.5100476 526.347200
   7736   7735   7757     1   107.9700462 569.024000
   7739   7740   7741     1   111.5100476 526.347200
   7739   7740   7746     1   110.1900474 564.840000
   7739   7736   7748     1   110.1900474 564.840000
   7740   7741   7745     1   107.9700462 569.024000
   7740   7741   7757     1   107.9700462 569.024000
   7740   7739   7747     1   110.1900474 564.840000
   7741   7740   7746     1   110.1900474 564.840000
   7745   7741   7757     1   108.2900466 608.353600
   7749   7735   7757     1   107.9700462 569.024000
   7758   7759   7762     1   111.5100476 526.347200
   7758   7759   7771     1   110.1900474 564.840000
   7758   7772   7778     1   110.1900474 564.840000
   7758   7780   7764     1   112.4800480 524.673600
   7759   7758   7772     1   111.5100476 526.347200
   7759   7758   7780     1   107.9700462 569.024000
   7759   7762   7763     1   111.5100476 526.347200
   7759   7762   7770     1   110.1900474 564.840000
   7762   7759   7771     1   110.1900474 564.840000
   7762   7763   7764     1   111.5100476 526.347200
   7762   7763   7769     1   110.1900474 564.840000
   7763   7762   7770     1   110.1900474 564.840000
   7763   7764   7768     1   107.9700462 569.024000
   7763   7764   7780     1   107.9700462 569.024000
   7764   7763   7769     1   110.1900474 564.840000
   7768   7764   7780     1   108.2900466 608.353600
   7772   7758   7780     1   107.9700462 569.024000
   7781   7782   7785     1   111.5100476 526.347200
   7781   7782   7794     1   110.1900474 564.840000
   7781   7795   7801     1   110.1900474 564.840000
   7781   7803   7787     1   112.4800480 524.673600
   7782   7785   7786     1   111.5100476 526.347200
   7782   7785   7793     1   110.1900474 564.840000
   7782   7781   7795     1   111.5100476 526.347200
   7782   7781   7803     1   107.9700462 569.024000
   7785   7786   7787     1   111.5100476 526.347200
   7785   7786   7792     1   110.1900474 564.840000
   7785   7782   7794     1   110.1900474 564.840000
   7786   7787   7791     1   107.9700462 569.024000
   7786   7787   7803     1   107.9700462 569.024000
   7786   7785   7793     1   110.1900474 564.840000
   7787   7786   7792     1   110.1900474 564.840000
   7791   7787   7803     1   108.2900466 608.353600
   7795   7781   7803     1   107.9700462 569.024000
   7804   7805   7808     1   111.5100476 526.347200
   7804   7805   7817     1   110.1900474 564.840000
   7804   7818   7824     1   110.1900474 564.840000
   7804   7826   7810     1   112.4800480 524.673600
   7805   7804   7818     1   111.5100476 526.347200
   7805   7804   7826     1   107.9700462 569.024000
   7805   7808   7809     1   111.5100476 526.347200
   7805   7808   7816     1   110.1900474 564.840000
   7808   7805   7817     1   110.1900474 564.840000
   7808   7809   7810     1   111.5100476 526.347200
   7808   7809   7815     1   110.1900474 564.840000
   7809   7808   7816     1   110.1900474 564.840000
   7809   7810   7814     1   107.9700462 569.024000
   7809   7810   7826     1   107.9700462 569.024000
   7810   7809   7815     1   110.1900474 564.840000
   7814   7810   7826     1   108.2900466 608.353600
   7818   7804   7826     1   107.9700462 569.024000
   7827   7828   7831     1   111.5100476 526.347200
   7827   7828   7840     1   110.1900474 564.840000
   7827   7841   7847     1   110.1900474 564.840000
   7827   7849   7833     1   112.4800480 524.673600
   7828   7831   7832     1   111.5100476 526.347200
   7828   7831   7839     1   110.1900474 564.840000
   7828   7827   7841     1   111.5100476 526.347200
   7828   7827   7849     1   107.9700462 569.024000
   7831   7832   7833     1   111.5100476 526.347200
   7831   7832   7838     1   110.1900474 564.840000
   7831   7828   7840     1   110.1900474 564.840000
   7832   7833   7837     1   107.9700462 569.024000
   7832   7833   7849     1   107.9700462 569.024000
   7832   7831   7839     1   110.1900474 564.840000
   7833   7832   7838     1   110.1900474 564.840000
   7837   7833   7849     1   108.2900466 608.353600
   7841   7827   7849     1   107.9700462 569.024000
   7850   7851   7854     1   111.5100476 526.347200
   7850   7851   7863     1   110.1900474 564.840000
   7850   7864   7870     1   110.1900474 564.840000
   7850   7872   7856     1   112.4800480 524.673600
   7851   7850   7864     1   111.5100476 526.347200
   7851   7850   7872     1   107.9700462 569.024000
   7851   7854   7855     1   111.5100476 526.347200
   7851   7854   7862     1   110.1900474 564.840000
   7854   7851   7863     1   110.1900474 564.840000
   7854   7855   7856     1   111.5100476 526.347200
   7854   7855   7861     1   110.1900474 564.840000
   7855   7854   7862     1   110.1900474 564.840000
   7855   7856   7860     1   107.9700462 569.024000
   7855   7856   7872     1   107.9700462 569.024000
   7856   7855   7861     1   110.1900474 564.840000
   7860   7856   7872     1   108.2900466 608.353600
   7864   7850   7872     1   107.9700462 569.024000
   7873   7874   7877     1   111.5100476 526.347200
   7873   7874   7886     1   110.1900474 564.840000
   7873   7887   7893     1   110.1900474 564.840000
   7873   7895   7879     1   112.4800480 524.673600
   7874   7877   7878     1   111.5100476 526.347200
   7874   7877   7885     1   110.1900474 564.840000
   7874   7873   7887     1   111.5100476 526.347200
   7874   7873   7895     1   107.9700462 569.024000
   7877   7878   7879     1   111.5100476 526.347200
   7877   7878   7884     1   110.1900474 564.840000
   7877   7874   7886     1   110.1900474 564.840000
   7878   7879   7883     1   107.9700462 569.024000
   7878   7879   7895     1   107.9700462 569.024000
   7878   7877   7885     1   110.1900474 564.840000
   7879   7878   7884     1   110.1900474 564.840000
   7883   7879   7895     1   108.2900466 608.353600
   7887   7873   7895     1   107.9700462 569.024000
   7896   7897   7900     1   111.5100476 526.347200
   7896   7897   7909     1   110.1900474 564.840000
   7896   7910   7916     1   110.1900474 564.840000
   7896   7918   7902     1   112.4800480 524.673600
   7897   7896   7910     1   111.5100476 526.347200
   7897   7896   7918     1   107.9700462 569.024000
   7897   7900   7901     1   111.5100476 526.347200
   7897   7900   7908     1   110.1900474 564.840000
   7900   7897   7909     1   110.1900474 564.840000
   7900   7901   7902     1   111.5100476 526.347200
   7900   7901   7907     1   110.1900474 564.840000
   7901   7900   7908     1   110.1900474 564.840000
   7901   7902   7906     1   107.9700462 569.024000
   7901   7902   7918     1   107.9700462 569.024000
   7902   7901   7907     1   110.1900474 564.840000
   7906   7902   7918     1   108.2900466 608.353600
   7910   7896   7918     1   107.9700462 569.024000
   7919   7920   7923     1   111.5100476 526.347200
   7919   7920   7932     1   110.1900474 564.840000
   7919   7933   7939     1   110.1900474 564.840000
   7919   7941   7925     1   112.4800480 524.673600
   7920   7923   7924     1   111.5100476 526.347200
   7920   7923   7931     1   110.1900474 564.840000
   7920   7919   7933     1   111.5100476 526.347200
   7920   7919   7941     1   107.9700462 569.024000
   7923   7924   7925     1   111.5100476 526.347200
   7923   7924   7930     1   110.1900474 564.840000
   7923   7920   7932     1   110.1900474 564.840000
   7924   7925   7929     1   107.9700462 569.024000
   7924   7925   7941     1   107.9700462 569.024000
   7924   7923   7931     1   110.1900474 564.840000
   7925   7924   7930     1   110.1900474 564.840000
   7929   7925   7941     1   108.2900466 608.353600
   7933   7919   7941     1   107.9700462 569.024000
   7942   7943   7946     1   111.5100476 526.347200
   7942   7943   7955     1   110.1900474 564.840000
   7942   7956   7962     1   110.1900474 564.840000
   7942   7964   7948     1   112.4800480 524.673600
   7943   7942   7956     1   111.5100476 526.347200
   7943   7942   7964     1   107.9700462 569.024000
   7943   7946   7947     1   111.5100476 526.347200
   7943   7946   7954     1   110.1900474 564.840000
   7946   7943   7955     1   110.1900474 564.840000
   7946   7947   7948     1   111.5100476 526.347200
   7946   7947   7953     1   110.1900474 564.840000
   7947   7946   7954     1   110.1900474 564.840000
   7947   7948   7952     1   107.9700462 569.024000
   7947   7948   7964     1   107.9700462 569.024000
   7948   7947   7953     1   110.1900474 564.840000
   7952   7948   7964     1   108.2900466 608.353600
   7956   7942   7964     1   107.9700462 569.024000
   7965   7966   7969     1   111.5100476 526.347200
   7965   7966   7978     1   110.1900474 564.840000
   7965   7979   7985     1   110.1900474 564.840000
   7965   7987   7971     1   112.4800480 524.673600
   7966   7969   7970     1   111.5100476 526.347200
   7966   7969   7977     1   110.1900474 564.840000
   7966   7965   7979     1   111.5100476 526.347200
   7966   7965   7987     1   107.9700462 569.024000
   7969   7970   7971     1   111.5100476 526.347200
   7969   7970   7976     1   110.1900474 564.840000
   7969   7966   7978     1   110.1900474 564.840000
   7970   7971   7975     1   107.9700462 569.024000
   7970   7971   7987     1   107.9700462 569.024000
   7970   7969   7977     1   110.1900474 564.840000
   7971   7970   7976     1   110.1900474 564.840000
   7975   7971   7987     1   108.2900466 608.353600
   7979   7965   7987     1   107.9700462 569.024000
   7988   7989   7992     1   111.5100476 526.347200
   7988   7989   8001     1   110.1900474 564.840000
   7988   8002   8008     1   110.1900474 564.840000
   7988   8010   7994     1   112.4800480 524.673600
   7989   7988   8002     1   111.5100476 526.347200
   7989   7988   8010     1   107.9700462 569.024000
   7989   7992   7993     1   111.5100476 526.347200
   7989   7992   8000     1   110.1900474 564.840000
   7992   7989   8001     1   110.1900474 564.840000
   7992   7993   7994     1   111.5100476 526.347200
   7992   7993   7999     1   110.1900474 564.840000
   7993   7992   8000     1   110.1900474 564.840000
   7993   7994   7998     1   107.9700462 569.024000
   7993   7994   8010     1   107.9700462 569.024000
   7994   7993   7999     1   110.1900474 564.840000
   7998   7994   8010     1   108.2900466 608.353600
   8002   7988   8010     1   107.9700462 569.024000
   8011   8012   8015     1   111.5100476 526.347200
   8011   8012   8024     1   110.1900474 564.840000
   8011   8025   8031     1   110.1900474 564.840000
   8011   8033   8017     1   112.4800480 524.673600
   8012   8015   8016     1   111.5100476 526.347200
   8012   8015   8023     1   110.1900474 564.840000
   8012   8011   8025     1   111.5100476 526.347200
   8012   8011   8033     1   107.9700462 569.024000
   8015   8016   8017     1   111.5100476 526.347200
   8015   8016   8022     1   110.1900474 564.840000
   8015   8012   8024     1   110.1900474 564.840000
   8016   8017   8021     1   107.9700462 569.024000
   8016   8017   8033     1   107.9700462 569.024000
   8016   8015   8023     1   110.1900474 564.840000
   8017   8016   8022     1   110.1900474 564.840000
   8021   8017   8033     1   108.2900466 608.353600
   8025   8011   8033     1   107.9700462 569.024000
   8034   8035   8038     1   111.5100476 526.347200
   8034   8035   8047     1   110.1900474 564.840000
   8034   8048   8054     1   110.1900474 564.840000
   8034   8056   8040     1   112.4800480 524.673600
   8035   8034   8048     1   111.5100476 526.347200
   8035   8034   8056     1   107.9700462 569.024000
   8035   8038   8039     1   111.5100476 526.347200
   8035   8038   8046     1   110.1900474 564.840000
   8038   8035   8047     1   110.1900474 564.840000
   8038   8039   8040     1   111.5100476 526.347200
   8038   8039   8045     1   110.1900474 564.840000
   8039   8038   8046     1   110.1900474 564.840000
   8039   8040   8044     1   107.9700462 569.024000
   8039   8040   8056     1   107.9700462 569.024000
   8040   8039   8045     1   110.1900474 564.840000
   8044   8040   8056     1   108.2900466 608.353600
   8048   8034   8056     1   107.9700462 569.024000
   8057   8058   8061     1   111.5100476 526.347200
   8057   8058   8070     1   110.1900474 564.840000
   8057   8071   8077     1   110.1900474 564.840000
   8057   8079   8063     1   112.4800480 524.673600
   8058   8061   8062     1   111.5100476 526.347200
   8058   8061   8069     1   110.1900474 564.840000
   8058   8057   8071     1   111.5100476 526.347200
   8058   8057   8079     1   107.9700462 569.024000
   8061   8062   8063     1   111.5100476 526.347200
   8061   8062   8068     1   110.1900474 564.840000
   8061   8058   8070     1   110.1900474 564.840000
   8062   8063   8067     1   107.9700462 569.024000
   8062   8063   8079     1   107.9700462 569.024000
   8062   8061   8069     1   110.1900474 564.840000
   8063   8062   8068     1   110.1900474 564.840000
   8067   8063   8079     1   108.2900466 608.353600
   8071   8057   8079     1   107.9700462 569.024000
   8080   8081   8084     1   111.5100476 526.347200
   8080   8081   8093     1   110.1900474 564.840000
   8080   8094   8100     1   110.1900474 564.840000
   8080   8102   8086     1   112.4800480 524.673600
   8081   8080   8094     1   111.5100476 526.347200
   8081   8080   8102     1   107.9700462 569.024000
   8081   8084   8085     1   111.5100476 526.347200
   8081   8084   8092     1   110.1900474 564.840000
   8084   8081   8093     1   110.1900474 564.840000
   8084   8085   8086     1   111.5100476 526.347200
   8084   8085   8091     1   110.1900474 564.840000
   8085   8084   8092     1   110.1900474 564.840000
   8085   8086   8090     1   107.9700462 569.024000
   8085   8086   8102     1   107.9700462 569.024000
   8086   8085   8091     1   110.1900474 564.840000
   8090   8086   8102     1   108.2900466 608.353600
   8094   8080   8102     1   107.9700462 569.024000
   8103   8104   8107     1   111.5100476 526.347200
   8103   8104   8116     1   110.1900474 564.840000
   8103   8117   8123     1   110.1900474 564.840000
   8103   8125   8109     1   112.4800480 524.673600
   8104   8107   8108     1   111.5100476 526.347200
   8104   8107   8115     1   110.1900474 564.840000
   8104   8103   8117     1   111.5100476 526.347200
   8104   8103   8125     1   107.9700462 569.024000
   8107   8108   8109     1   111.5100476 526.347200
   8107   8108   8114     1   110.1900474 564.840000
   8107   8104   8116     1   110.1900474 564.840000
   8108   8109   8113     1   107.9700462 569.024000
   8108   8109   8125     1   107.9700462 569.024000
   8108   8107   8115     1   110.1900474 564.840000
   8109   8108   8114     1   110.1900474 564.840000
   8113   8109   8125     1   108.2900466 608.353600
   8117   8103   8125     1   107.9700462 569.024000
   8126   8127   8130     1   111.5100476 526.347200
   8126   8127   8139     1   110.1900474 564.840000
   8126   8140   8146     1   110.1900474 564.840000
   8126   8148   8132     1   112.4800480 524.673600
   8127   8126   8140     1   111.5100476 526.347200
   8127   8126   8148     1   107.9700462 569.024000
   8127   8130   8131     1   111.5100476 526.347200
   8127   8130   8138     1   110.1900474 564.840000
   8130   8127   8139     1   110.1900474 564.840000
   8130   8131   8132     1   111.5100476 526.347200
   8130   8131   8137     1   110.1900474 564.840000
   8131   8130   8138     1   110.1900474 564.840000
   8131   8132   8136     1   107.9700462 569.024000
   8131   8132   8148     1   107.9700462 569.024000
   8132   8131   8137     1   110.1900474 564.840000
   8136   8132   8148     1   108.2900466 608.353600
   8140   8126   8148     1   107.9700462 569.024000
   8149   8150   8153     1   111.5100476 526.347200
   8149   8150   8162     1   110.1900474 564.840000
   8149   8163   8169     1   110.1900474 564.840000
   8149   8171   8155     1   112.4800480 524.673600
   8150   8153   8154     1   111.5100476 526.347200
   8150   8153   8161     1   110.1900474 564.840000
   8150   8149   8163     1   111.5100476 526.347200
   8150   8149   8171     1   107.9700462 569.024000
   8153   8154   8155     1   111.5100476 526.347200
   8153   8154   8160     1   110.1900474 564.840000
   8153   8150   8162     1   110.1900474 564.840000
   8154   8155   8159     1   107.9700462 569.024000
   8154   8155   8171     1   107.9700462 569.024000
   8154   8153   8161     1   110.1900474 564.840000
   8155   8154   8160     1   110.1900474 564.840000
   8159   8155   8171     1   108.2900466 608.353600
   8163   8149   8171     1   107.9700462 569.024000
   8172   8173   8176     1   111.5100476 526.347200
   8172   8173   8185     1   110.1900474 564.840000
   8172   8186   8192     1   110.1900474 564.840000
   8172   8194   8178     1   112.4800480 524.673600
   8173   8172   8186     1   111.5100476 526.347200
   8173   8172   8194     1   107.9700462 569.024000
   8173   8176   8177     1   111.5100476 526.347200
   8173   8176   8184     1   110.1900474 564.840000
   8176   8173   8185     1   110.1900474 564.840000
   8176   8177   8178     1   111.5100476 526.347200
   8176   8177   8183     1   110.1900474 564.840000
   8177   8176   8184     1   110.1900474 564.840000
   8177   8178   8182     1   107.9700462 569.024000
   8177   8178   8194     1   107.9700462 569.024000
   8178   8177   8183     1   110.1900474 564.840000
   8182   8178   8194     1   108.2900466 608.353600
   8186   8172   8194     1   107.9700462 569.024000
   8195   8196   8199     1   111.5100476 526.347200
   8195   8196   8208     1   110.1900474 564.840000
   8195   8209   8215     1   110.1900474 564.840000
   8195   8217   8201     1   112.4800480 524.673600
   8196   8199   8200     1   111.5100476 526.347200
   8196   8199   8207     1   110.1900474 564.840000
   8196   8195   8209     1   111.5100476 526.347200
   8196   8195   8217     1   107.9700462 569.024000
   8199   8200   8201     1   111.5100476 526.347200
   8199   8200   8206     1   110.1900474 564.840000
   8199   8196   8208     1   110.1900474 564.840000
   8200   8201   8205     1   107.9700462 569.024000
   8200   8201   8217     1   107.9700462 569.024000
   8200   8199   8207     1   110.1900474 564.840000
   8201   8200   8206     1   110.1900474 564.840000
   8205   8201   8217     1   108.2900466 608.353600
   8209   8195   8217     1   107.9700462 569.024000
   8218   8219   8222     1   111.5100476 526.347200
   8218   8219   8231     1   110.1900474 564.840000
   8218   8232   8238     1   110.1900474 564.840000
   8218   8240   8224     1   112.4800480 524.673600
   8219   8218   8232     1   111.5100476 526.347200
   8219   8218   8240     1   107.9700462 569.024000
   8219   8222   8223     1   111.5100476 526.347200
   8219   8222   8230     1   110.1900474 564.840000
   8222   8219   8231     1   110.1900474 564.840000
   8222   8223   8224     1   111.5100476 526.347200
   8222   8223   8229     1   110.1900474 564.840000
   8223   8222   8230     1   110.1900474 564.840000
   8223   8224   8228     1   107.9700462 569.024000
   8223   8224   8240     1   107.9700462 569.024000
   8224   8223   8229     1   110.1900474 564.840000
   8228   8224   8240     1   108.2900466 608.353600
   8232   8218   8240     1   107.9700462 569.024000
   8241   8242   8245     1   111.5100476 526.347200
   8241   8242   8254     1   110.1900474 564.840000
   8241   8255   8261     1   110.1900474 564.840000
   8241   8263   8247     1   112.4800480 524.673600
   8242   8245   8246     1   111.5100476 526.347200
   8242   8245   8253     1   110.1900474 564.840000
   8242   8241   8255     1   111.5100476 526.347200
   8242   8241   8263     1   107.9700462 569.024000
   8245   8246   8247     1   111.5100476 526.347200
   8245   8246   8252     1   110.1900474 564.840000
   8245   8242   8254     1   110.1900474 564.840000
   8246   8247   8251     1   107.9700462 569.024000
   8246   8247   8263     1   107.9700462 569.024000
   8246   8245   8253     1   110.1900474 564.840000
   8247   8246   8252     1   110.1900474 564.840000
   8251   8247   8263     1   108.2900466 608.353600
   8255   8241   8263     1   107.9700462 569.024000
   8264   8265   8268     1   111.5100476 526.347200
   8264   8265   8277     1   110.1900474 564.840000
   8264   8278   8284     1   110.1900474 564.840000
   8264   8286   8270     1   112.4800480 524.673600
   8265   8264   8278     1   111.5100476 526.347200
   8265   8264   8286     1   107.9700462 569.024000
   8265   8268   8269     1   111.5100476 526.347200
   8265   8268   8276     1   110.1900474 564.840000
   8268   8265   8277     1   110.1900474 564.840000
   8268   8269   8270     1   111.5100476 526.347200
   8268   8269   8275     1   110.1900474 564.840000
   8269   8268   8276     1   110.1900474 564.840000
   8269   8270   8274     1   107.9700462 569.024000
   8269   8270   8286     1   107.9700462 569.024000
   8270   8269   8275     1   110.1900474 564.840000
   8274   8270   8286     1   108.2900466 608.353600
   8278   8264   8286     1   107.9700462 569.024000
   8287   8288   8291     1   111.5100476 526.347200
   8287   8288   8300     1   110.1900474 564.840000
   8287   8301   8307     1   110.1900474 564.840000
   8287   8309   8293     1   112.4800480 524.673600
   8288   8291   8292     1   111.5100476 526.347200
   8288   8291   8299     1   110.1900474 564.840000
   8288   8287   8301     1   111.5100476 526.347200
   8288   8287   8309     1   107.9700462 569.024000
   8291   8292   8293     1   111.5100476 526.347200
   8291   8292   8298     1   110.1900474 564.840000
   8291   8288   8300     1   110.1900474 564.840000
   8292   8293   8297     1   107.9700462 569.024000
   8292   8293   8309     1   107.9700462 569.024000
   8292   8291   8299     1   110.1900474 564.840000
   8293   8292   8298     1   110.1900474 564.840000
   8297   8293   8309     1   108.2900466 608.353600
   8301   8287   8309     1   107.9700462 569.024000
   8310   8311   8314     1   111.5100476 526.347200
   8310   8311   8323     1   110.1900474 564.840000
   8310   8324   8330     1   110.1900474 564.840000
   8310   8332   8316     1   112.4800480 524.673600
   8311   8310   8324     1   111.5100476 526.347200
   8311   8310   8332     1   107.9700462 569.024000
   8311   8314   8315     1   111.5100476 526.347200
   8311   8314   8322     1   110.1900474 564.840000
   8314   8311   8323     1   110.1900474 564.840000
   8314   8315   8316     1   111.5100476 526.347200
   8314   8315   8321     1   110.1900474 564.840000
   8315   8314   8322     1   110.1900474 564.840000
   8315   8316   8320     1   107.9700462 569.024000
   8315   8316   8332     1   107.9700462 569.024000
   8316   8315   8321     1   110.1900474 564.840000
   8320   8316   8332     1   108.2900466 608.353600
   8324   8310   8332     1   107.9700462 569.024000
   8333   8334   8337     1   111.5100476 526.347200
   8333   8334   8346     1   110.1900474 564.840000
   8333   8347   8353     1   110.1900474 564.840000
   8333   8355   8339     1   112.4800480 524.673600
   8334   8337   8338     1   111.5100476 526.347200
   8334   8337   8345     1   110.1900474 564.840000
   8334   8333   8347     1   111.5100476 526.347200
   8334   8333   8355     1   107.9700462 569.024000
   8337   8338   8339     1   111.5100476 526.347200
   8337   8338   8344     1   110.1900474 564.840000
   8337   8334   8346     1   110.1900474 564.840000
   8338   8339   8343     1   107.9700462 569.024000
   8338   8339   8355     1   107.9700462 569.024000
   8338   8337   8345     1   110.1900474 564.840000
   8339   8338   8344     1   110.1900474 564.840000
   8343   8339   8355     1   108.2900466 608.353600
   8347   8333   8355     1   107.9700462 569.024000
   8356   8357   8360     1   111.5100476 526.347200
   8356   8357   8369     1   110.1900474 564.840000
   8356   8370   8376     1   110.1900474 564.840000
   8356   8378   8362     1   112.4800480 524.673600
   8357   8356   8370     1   111.5100476 526.347200
   8357   8356   8378     1   107.9700462 569.024000
   8357   8360   8361     1   111.5100476 526.347200
   8357   8360   8368     1   110.1900474 564.840000
   8360   8357   8369     1   110.1900474 564.840000
   8360   8361   8362     1   111.5100476 526.347200
   8360   8361   8367     1   110.1900474 564.840000
   8361   8360   8368     1   110.1900474 564.840000
   8361   8362   8366     1   107.9700462 569.024000
   8361   8362   8378     1   107.9700462 569.024000
   8362   8361   8367     1   110.1900474 564.840000
   8366   8362   8378     1   108.2900466 608.353600
   8370   8356   8378     1   107.9700462 569.024000
   8379   8380   8383     1   111.5100476 526.347200
   8379   8380   8392     1   110.1900474 564.840000
   8379   8393   8399     1   110.1900474 564.840000
   8379   8401   8385     1   112.4800480 524.673600
   8380   8383   8384     1   111.5100476 526.347200
   8380   8383   8391     1   110.1900474 564.840000
   8380   8379   8393     1   111.5100476 526.347200
   8380   8379   8401     1   107.9700462 569.024000
   8383   8384   8385     1   111.5100476 526.347200
   8383   8384   8390     1   110.1900474 564.840000
   8383   8380   8392     1   110.1900474 564.840000
   8384   8385   8389     1   107.9700462 569.024000
   8384   8385   8401     1   107.9700462 569.024000
   8384   8383   8391     1   110.1900474 564.840000
   8385   8384   8390     1   110.1900474 564.840000
   8389   8385   8401     1   108.2900466 608.353600
   8393   8379   8401     1   107.9700462 569.024000
   8402   8403   8406     1   111.5100476 526.347200
   8402   8403   8415     1   110.1900474 564.840000
   8402   8416   8422     1   110.1900474 564.840000
   8402   8424   8408     1   112.4800480 524.673600
   8403   8402   8416     1   111.5100476 526.347200
   8403   8402   8424     1   107.9700462 569.024000
   8403   8406   8407     1   111.5100476 526.347200
   8403   8406   8414     1   110.1900474 564.840000
   8406   8403   8415     1   110.1900474 564.840000
   8406   8407   8408     1   111.5100476 526.347200
   8406   8407   8413     1   110.1900474 564.840000
   8407   8406   8414     1   110.1900474 564.840000
   8407   8408   8412     1   107.9700462 569.024000
   8407   8408   8424     1   107.9700462 569.024000
   8408   8407   8413     1   110.1900474 564.840000
   8412   8408   8424     1   108.2900466 608.353600
   8416   8402   8424     1   107.9700462 569.024000
   8425   8426   8429     1   111.5100476 526.347200
   8425   8426   8438     1   110.1900474 564.840000
   8425   8439   8445     1   110.1900474 564.840000
   8425   8447   8431     1   112.4800480 524.673600
   8426   8429   8430     1   111.5100476 526.347200
   8426   8429   8437     1   110.1900474 564.840000
   8426   8425   8439     1   111.5100476 526.347200
   8426   8425   8447     1   107.9700462 569.024000
   8429   8430   8431     1   111.5100476 526.347200
   8429   8430   8436     1   110.1900474 564.840000
   8429   8426   8438     1   110.1900474 564.840000
   8430   8431   8435     1   107.9700462 569.024000
   8430   8431   8447     1   107.9700462 569.024000
   8430   8429   8437     1   110.1900474 564.840000
   8431   8430   8436     1   110.1900474 564.840000
   8435   8431   8447     1   108.2900466 608.353600
   8439   8425   8447     1   107.9700462 569.024000
   8448   8449   8452     1   111.5100476 526.347200
   8448   8449   8461     1   110.1900474 564.840000
   8448   8462   8468     1   110.1900474 564.840000
   8448   8470   8454     1   112.4800480 524.673600
   8449   8448   8462     1   111.5100476 526.347200
   8449   8448   8470     1   107.9700462 569.024000
   8449   8452   8453     1   111.5100476 526.347200
   8449   8452   8460     1   110.1900474 564.840000
   8452   8449   8461     1   110.1900474 564.840000
   8452   8453   8454     1   111.5100476 526.347200
   8452   8453   8459     1   110.1900474 564.840000
   8453   8452   8460     1   110.1900474 564.840000
   8453   8454   8458     1   107.9700462 569.024000
   8453   8454   8470     1   107.9700462 569.024000
   8454   8453   8459     1   110.1900474 564.840000
   8458   8454   8470     1   108.2900466 608.353600
   8462   8448   8470     1   107.9700462 569.024000
   8471   8472   8475     1   111.5100476 526.347200
   8471   8472   8484     1   110.1900474 564.840000
   8471   8485   8491     1   110.1900474 564.840000
   8471   8493   8477     1   112.4800480 524.673600
   8472   8475   8476     1   111.5100476 526.347200
   8472   8475   8483     1   110.1900474 564.840000
   8472   8471   8485     1   111.5100476 526.347200
   8472   8471   8493     1   107.9700462 569.024000
   8475   8476   8477     1   111.5100476 526.347200
   8475   8476   8482     1   110.1900474 564.840000
   8475   8472   8484     1   110.1900474 564.840000
   8476   8477   8481     1   107.9700462 569.024000
   8476   8477   8493     1   107.9700462 569.024000
   8476   8475   8483     1   110.1900474 564.840000
   8477   8476   8482     1   110.1900474 564.840000
   8481   8477   8493     1   108.2900466 608.353600
   8485   8471   8493     1   107.9700462 569.024000
   8494   8495   8498     1   111.5100476 526.347200
   8494   8495   8507     1   110.1900474 564.840000
   8494   8508   8514     1   110.1900474 564.840000
   8494   8516   8500     1   112.4800480 524.673600
   8495   8494   8508     1   111.5100476 526.347200
   8495   8494   8516     1   107.9700462 569.024000
   8495   8498   8499     1   111.5100476 526.347200
   8495   8498   8506     1   110.1900474 564.840000
   8498   8495   8507     1   110.1900474 564.840000
   8498   8499   8500     1   111.5100476 526.347200
   8498   8499   8505     1   110.1900474 564.840000
   8499   8498   8506     1   110.1900474 564.840000
   8499   8500   8504     1   107.9700462 569.024000
   8499   8500   8516     1   107.9700462 569.024000
   8500   8499   8505     1   110.1900474 564.840000
   8504   8500   8516     1   108.2900466 608.353600
   8508   8494   8516     1   107.9700462 569.024000
   8517   8518   8521     1   111.5100476 526.347200
   8517   8518   8530     1   110.1900474 564.840000
   8517   8531   8537     1   110.1900474 564.840000
   8517   8539   8523     1   112.4800480 524.673600
   8518   8521   8522     1   111.5100476 526.347200
   8518   8521   8529     1   110.1900474 564.840000
   8518   8517   8531     1   111.5100476 526.347200
   8518   8517   8539     1   107.9700462 569.024000
   8521   8522   8523     1   111.5100476 526.347200
   8521   8522   8528     1   110.1900474 564.840000
   8521   8518   8530     1   110.1900474 564.840000
   8522   8523   8527     1   107.9700462 569.024000
   8522   8523   8539     1   107.9700462 569.024000
   8522   8521   8529     1   110.1900474 564.840000
   8523   8522   8528     1   110.1900474 564.840000
   8527   8523   8539     1   108.2900466 608.353600
   8531   8517   8539     1   107.9700462 569.024000
   8540   8541   8544     1   111.5100476 526.347200
   8540   8541   8553     1   110.1900474 564.840000
   8540   8554   8560     1   110.1900474 564.840000
   8540   8562   8546     1   112.4800480 524.673600
   8541   8540   8554     1   111.5100476 526.347200
   8541   8540   8562     1   107.9700462 569.024000
   8541   8544   8545     1   111.5100476 526.347200
   8541   8544   8552     1   110.1900474 564.840000
   8544   8541   8553     1   110.1900474 564.840000
   8544   8545   8546     1   111.5100476 526.347200
   8544   8545   8551     1   110.1900474 564.840000
   8545   8544   8552     1   110.1900474 564.840000
   8545   8546   8550     1   107.9700462 569.024000
   8545   8546   8562     1   107.9700462 569.024000
   8546   8545   8551     1   110.1900474 564.840000
   8550   8546   8562     1   108.2900466 608.353600
   8554   8540   8562     1   107.9700462 569.024000
   8563   8564   8567     1   111.5100476 526.347200
   8563   8564   8576     1   110.1900474 564.840000
   8563   8577   8583     1   110.1900474 564.840000
   8563   8585   8569     1   112.4800480 524.673600
   8564   8567   8568     1   111.5100476 526.347200
   8564   8567   8575     1   110.1900474 564.840000
   8564   8563   8577     1   111.5100476 526.347200
   8564   8563   8585     1   107.9700462 569.024000
   8567   8568   8569     1   111.5100476 526.347200
   8567   8568   8574     1   110.1900474 564.840000
   8567   8564   8576     1   110.1900474 564.840000
   8568   8569   8573     1   107.9700462 569.024000
   8568   8569   8585     1   107.9700462 569.024000
   8568   8567   8575     1   110.1900474 564.840000
   8569   8568   8574     1   110.1900474 564.840000
   8573   8569   8585     1   108.2900466 608.353600
   8577   8563   8585     1   107.9700462 569.024000
   8586   8587   8590     1   111.5100476 526.347200
   8586   8587   8599     1   110.1900474 564.840000
   8586   8600   8606     1   110.1900474 564.840000
   8586   8608   8592     1   112.4800480 524.673600
   8587   8586   8600     1   111.5100476 526.347200
   8587   8586   8608     1   107.9700462 569.024000
   8587   8590   8591     1   111.5100476 526.347200
   8587   8590   8598     1   110.1900474 564.840000
   8590   8587   8599     1   110.1900474 564.840000
   8590   8591   8592     1   111.5100476 526.347200
   8590   8591   8597     1   110.1900474 564.840000
   8591   8590   8598     1   110.1900474 564.840000
   8591   8592   8596     1   107.9700462 569.024000
   8591   8592   8608     1   107.9700462 569.024000
   8592   8591   8597     1   110.1900474 564.840000
   8596   8592   8608     1   108.2900466 608.353600
   8600   8586   8608     1   107.9700462 569.024000
   8609   8610   8613     1   111.5100476 526.347200
   8609   8610   8622     1   110.1900474 564.840000
   8609   8623   8629     1   110.1900474 564.840000
   8609   8631   8615     1   112.4800480 524.673600
   8610   8613   8614     1   111.5100476 526.347200
   8610   8613   8621     1   110.1900474 564.840000
   8610   8609   8623     1   111.5100476 526.347200
   8610   8609   8631     1   107.9700462 569.024000
   8613   8614   8615     1   111.5100476 526.347200
   8613   8614   8620     1   110.1900474 564.840000
   8613   8610   8622     1   110.1900474 564.840000
   8614   8615   8619     1   107.9700462 569.024000
   8614   8615   8631     1   107.9700462 569.024000
   8614   8613   8621     1   110.1900474 564.840000
   8615   8614   8620     1   110.1900474 564.840000
   8619   8615   8631     1   108.2900466 608.353600
   8623   8609   8631     1   107.9700462 569.024000
   8632   8633   8636     1   111.5100476 526.347200
   8632   8633   8645     1   110.1900474 564.840000
   8632   8646   8652     1   110.1900474 564.840000
   8632   8654   8638     1   112.4800480 524.673600
   8633   8632   8646     1   111.5100476 526.347200
   8633   8632   8654     1   107.9700462 569.024000
   8633   8636   8637     1   111.5100476 526.347200
   8633   8636   8644     1   110.1900474 564.840000
   8636   8633   8645     1   110.1900474 564.840000
   8636   8637   8638     1   111.5100476 526.347200
   8636   8637   8643     1   110.1900474 564.840000
   8637   8636   8644     1   110.1900474 564.840000
   8637   8638   8642     1   107.9700462 569.024000
   8637   8638   8654     1   107.9700462 569.024000
   8638   8637   8643     1   110.1900474 564.840000
   8642   8638   8654     1   108.2900466 608.353600
   8646   8632   8654     1   107.9700462 569.024000
   8655   8656   8659     1   111.5100476 526.347200
   8655   8656   8668     1   110.1900474 564.840000
   8655   8669   8675     1   110.1900474 564.840000
   8655   8677   8661     1   112.4800480 524.673600
   8656   8659   8660     1   111.5100476 526.347200
   8656   8659   8667     1   110.1900474 564.840000
   8656   8655   8669     1   111.5100476 526.347200
   8656   8655   8677     1   107.9700462 569.024000
   8659   8660   8661     1   111.5100476 526.347200
   8659   8660   8666     1   110.1900474 564.840000
   8659   8656   8668     1   110.1900474 564.840000
   8660   8661   8665     1   107.9700462 569.024000
   8660   8661   8677     1   107.9700462 569.024000
   8660   8659   8667     1   110.1900474 564.840000
   8661   8660   8666     1   110.1900474 564.840000
   8665   8661   8677     1   108.2900466 608.353600
   8669   8655   8677     1   107.9700462 569.024000
   8678   8679   8682     1   111.5100476 526.347200
   8678   8679   8691     1   110.1900474 564.840000
   8678   8692   8698     1   110.1900474 564.840000
   8678   8700   8684     1   112.4800480 524.673600
   8679   8678   8692     1   111.5100476 526.347200
   8679   8678   8700     1   107.9700462 569.024000
   8679   8682   8683     1   111.5100476 526.347200
   8679   8682   8690     1   110.1900474 564.840000
   8682   8679   8691     1   110.1900474 564.840000
   8682   8683   8684     1   111.5100476 526.347200
   8682   8683   8689     1   110.1900474 564.840000
   8683   8682   8690     1   110.1900474 564.840000
   8683   8684   8688     1   107.9700462 569.024000
   8683   8684   8700     1   107.9700462 569.024000
   8684   8683   8689     1   110.1900474 564.840000
   8688   8684   8700     1   108.2900466 608.353600
   8692   8678   8700     1   107.9700462 569.024000
   8701   8702   8705     1   111.5100476 526.347200
   8701   8702   8714     1   110.1900474 564.840000
   8701   8715   8721     1   110.1900474 564.840000
   8701   8723   8707     1   112.4800480 524.673600
   8702   8705   8706     1   111.5100476 526.347200
   8702   8705   8713     1   110.1900474 564.840000
   8702   8701   8715     1   111.5100476 526.347200
   8702   8701   8723     1   107.9700462 569.024000
   8705   8706   8707     1   111.5100476 526.347200
   8705   8706   8712     1   110.1900474 564.840000
   8705   8702   8714     1   110.1900474 564.840000
   8706   8707   8711     1   107.9700462 569.024000
   8706   8707   8723     1   107.9700462 569.024000
   8706   8705   8713     1   110.1900474 564.840000
   8707   8706   8712     1   110.1900474 564.840000
   8711   8707   8723     1   108.2900466 608.353600
   8715   8701   8723     1   107.9700462 569.024000
   8724   8725   8728     1   111.5100476 526.347200
   8724   8725   8737     1   110.1900474 564.840000
   8724   8738   8744     1   110.1900474 564.840000
   8724   8746   8730     1   112.4800480 524.673600
   8725   8724   8738     1   111.5100476 526.347200
   8725   8724   8746     1   107.9700462 569.024000
   8725   8728   8729     1   111.5100476 526.347200
   8725   8728   8736     1   110.1900474 564.840000
   8728   8725   8737     1   110.1900474 564.840000
   8728   8729   8730     1   111.5100476 526.347200
   8728   8729   8735     1   110.1900474 564.840000
   8729   8728   8736     1   110.1900474 564.840000
   8729   8730   8734     1   107.9700462 569.024000
   8729   8730   8746     1   107.9700462 569.024000
   8730   8729   8735     1   110.1900474 564.840000
   8734   8730   8746     1   108.2900466 608.353600
   8738   8724   8746     1   107.9700462 569.024000
   8747   8748   8751     1   111.5100476 526.347200
   8747   8748   8760     1   110.1900474 564.840000
   8747   8761   8767     1   110.1900474 564.840000
   8747   8769   8753     1   112.4800480 524.673600
   8748   8751   8752     1   111.5100476 526.347200
   8748   8751   8759     1   110.1900474 564.840000
   8748   8747   8761     1   111.5100476 526.347200
   8748   8747   8769     1   107.9700462 569.024000
   8751   8752   8753     1   111.5100476 526.347200
   8751   8752   8758     1   110.1900474 564.840000
   8751   8748   8760     1   110.1900474 564.840000
   8752   8753   8757     1   107.9700462 569.024000
   8752   8753   8769     1   107.9700462 569.024000
   8752   8751   8759     1   110.1900474 564.840000
   8753   8752   8758     1   110.1900474 564.840000
   8757   8753   8769     1   108.2900466 608.353600
   8761   8747   8769     1   107.9700462 569.024000
   8770   8771   8774     1   111.5100476 526.347200
   8770   8771   8783     1   110.1900474 564.840000
   8770   8784   8790     1   110.1900474 564.840000
   8770   8792   8776     1   112.4800480 524.673600
   8771   8770   8784     1   111.5100476 526.347200
   8771   8770   8792     1   107.9700462 569.024000
   8771   8774   8775     1   111.5100476 526.347200
   8771   8774   8782     1   110.1900474 564.840000
   8774   8771   8783     1   110.1900474 564.840000
   8774   8775   8776     1   111.5100476 526.347200
   8774   8775   8781     1   110.1900474 564.840000
   8775   8774   8782     1   110.1900474 564.840000
   8775   8776   8780     1   107.9700462 569.024000
   8775   8776   8792     1   107.9700462 569.024000
   8776   8775   8781     1   110.1900474 564.840000
   8780   8776   8792     1   108.2900466 608.353600
   8784   8770   8792     1   107.9700462 569.024000
   8793   8794   8797     1   111.5100476 526.347200
   8793   8794   8806     1   110.1900474 564.840000
   8793   8807   8813     1   110.1900474 564.840000
   8793   8815   8799     1   112.4800480 524.673600
   8794   8797   8798     1   111.5100476 526.347200
   8794   8797   8805     1   110.1900474 564.840000
   8794   8793   8807     1   111.5100476 526.347200
   8794   8793   8815     1   107.9700462 569.024000
   8797   8798   8799     1   111.5100476 526.347200
   8797   8798   8804     1   110.1900474 564.840000
   8797   8794   8806     1   110.1900474 564.840000
   8798   8799   8803     1   107.9700462 569.024000
   8798   8799   8815     1   107.9700462 569.024000
   8798   8797   8805     1   110.1900474 564.840000
   8799   8798   8804     1   110.1900474 564.840000
   8803   8799   8815     1   108.2900466 608.353600
   8807   8793   8815     1   107.9700462 569.024000
   8816   8817   8820     1   111.5100476 526.347200
   8816   8817   8829     1   110.1900474 564.840000
   8816   8830   8836     1   110.1900474 564.840000
   8816   8838   8822     1   112.4800480 524.673600
   8817   8816   8830     1   111.5100476 526.347200
   8817   8816   8838     1   107.9700462 569.024000
   8817   8820   8821     1   111.5100476 526.347200
   8817   8820   8828     1   110.1900474 564.840000
   8820   8817   8829     1   110.1900474 564.840000
   8820   8821   8822     1   111.5100476 526.347200
   8820   8821   8827     1   110.1900474 564.840000
   8821   8820   8828     1   110.1900474 564.840000
   8821   8822   8826     1   107.9700462 569.024000
   8821   8822   8838     1   107.9700462 569.024000
   8822   8821   8827     1   110.1900474 564.840000
   8826   8822   8838     1   108.2900466 608.353600
   8830   8816   8838     1   107.9700462 569.024000
   8839   8840   8843     1   111.5100476 526.347200
   8839   8840   8852     1   110.1900474 564.840000
   8839   8853   8859     1   110.1900474 564.840000
   8839   8861   8845     1   112.4800480 524.673600
   8840   8843   8844     1   111.5100476 526.347200
   8840   8843   8851     1   110.1900474 564.840000
   8840   8839   8853     1   111.5100476 526.347200
   8840   8839   8861     1   107.9700462 569.024000
   8843   8844   8845     1   111.5100476 526.347200
   8843   8844   8850     1   110.1900474 564.840000
   8843   8840   8852     1   110.1900474 564.840000
   8844   8845   8849     1   107.9700462 569.024000
   8844   8845   8861     1   107.9700462 569.024000
   8844   8843   8851     1   110.1900474 564.840000
   8845   8844   8850     1   110.1900474 564.840000
   8849   8845   8861     1   108.2900466 608.353600
   8853   8839   8861     1   107.9700462 569.024000
   8862   8863   8866     1   111.5100476 526.347200
   8862   8863   8875     1   110.1900474 564.840000
   8862   8876   8882     1   110.1900474 564.840000
   8862   8884   8868     1   112.4800480 524.673600
   8863   8862   8876     1   111.5100476 526.347200
   8863   8862   8884     1   107.9700462 569.024000
   8863   8866   8867     1   111.5100476 526.347200
   8863   8866   8874     1   110.1900474 564.840000
   8866   8863   8875     1   110.1900474 564.840000
   8866   8867   8868     1   111.5100476 526.347200
   8866   8867   8873     1   110.1900474 564.840000
   8867   8866   8874     1   110.1900474 564.840000
   8867   8868   8872     1   107.9700462 569.024000
   8867   8868   8884     1   107.9700462 569.024000
   8868   8867   8873     1   110.1900474 564.840000
   8872   8868   8884     1   108.2900466 608.353600
   8876   8862   8884     1   107.9700462 569.024000
   8885   8886   8889     1   111.5100476 526.347200
   8885   8886   8898     1   110.1900474 564.840000
   8885   8899   8905     1   110.1900474 564.840000
   8885   8907   8891     1   112.4800480 524.673600
   8886   8889   8890     1   111.5100476 526.347200
   8886   8889   8897     1   110.1900474 564.840000
   8886   8885   8899     1   111.5100476 526.347200
   8886   8885   8907     1   107.9700462 569.024000
   8889   8890   8891     1   111.5100476 526.347200
   8889   8890   8896     1   110.1900474 564.840000
   8889   8886   8898     1   110.1900474 564.840000
   8890   8891   8895     1   107.9700462 569.024000
   8890   8891   8907     1   107.9700462 569.024000
   8890   8889   8897     1   110.1900474 564.840000
   8891   8890   8896     1   110.1900474 564.840000
   8895   8891   8907     1   108.2900466 608.353600
   8899   8885   8907     1   107.9700462 569.024000
   8908   8909   8912     1   111.5100476 526.347200
   8908   8909   8921     1   110.1900474 564.840000
   8908   8922   8928     1   110.1900474 564.840000
   8908   8930   8914     1   112.4800480 524.673600
   8909   8908   8922     1   111.5100476 526.347200
   8909   8908   8930     1   107.9700462 569.024000
   8909   8912   8913     1   111.5100476 526.347200
   8909   8912   8920     1   110.1900474 564.840000
   8912   8909   8921     1   110.1900474 564.840000
   8912   8913   8914     1   111.5100476 526.347200
   8912   8913   8919     1   110.1900474 564.840000
   8913   8912   8920     1   110.1900474 564.840000
   8913   8914   8918     1   107.9700462 569.024000
   8913   8914   8930     1   107.9700462 569.024000
   8914   8913   8919     1   110.1900474 564.840000
   8918   8914   8930     1   108.2900466 608.353600
   8922   8908   8930     1   107.9700462 569.024000
   8931   8932   8935     1   111.5100476 526.347200
   8931   8932   8944     1   110.1900474 564.840000
   8931   8945   8951     1   110.1900474 564.840000
   8931   8953   8937     1   112.4800480 524.673600
   8932   8935   8936     1   111.5100476 526.347200
   8932   8935   8943     1   110.1900474 564.840000
   8932   8931   8945     1   111.5100476 526.347200
   8932   8931   8953     1   107.9700462 569.024000
   8935   8936   8937     1   111.5100476 526.347200
   8935   8936   8942     1   110.1900474 564.840000
   8935   8932   8944     1   110.1900474 564.840000
   8936   8937   8941     1   107.9700462 569.024000
   8936   8937   8953     1   107.9700462 569.024000
   8936   8935   8943     1   110.1900474 564.840000
   8937   8936   8942     1   110.1900474 564.840000
   8941   8937   8953     1   108.2900466 608.353600
   8945   8931   8953     1   107.9700462 569.024000
   8954   8955   8958     1   111.5100476 526.347200
   8954   8955   8967     1   110.1900474 564.840000
   8954   8968   8974     1   110.1900474 564.840000
   8954   8976   8960     1   112.4800480 524.673600
   8955   8954   8968     1   111.5100476 526.347200
   8955   8954   8976     1   107.9700462 569.024000
   8955   8958   8959     1   111.5100476 526.347200
   8955   8958   8966     1   110.1900474 564.840000
   8958   8955   8967     1   110.1900474 564.840000
   8958   8959   8960     1   111.5100476 526.347200
   8958   8959   8965     1   110.1900474 564.840000
   8959   8958   8966     1   110.1900474 564.840000
   8959   8960   8964     1   107.9700462 569.024000
   8959   8960   8976     1   107.9700462 569.024000
   8960   8959   8965     1   110.1900474 564.840000
   8964   8960   8976     1   108.2900466 608.353600
   8968   8954   8976     1   107.9700462 569.024000
   8977   8978   8981     1   111.5100476 526.347200
   8977   8978   8990     1   110.1900474 564.840000
   8977   8991   8997     1   110.1900474 564.840000
   8977   8999   8983     1   112.4800480 524.673600
   8978   8981   8982     1   111.5100476 526.347200
   8978   8981   8989     1   110.1900474 564.840000
   8978   8977   8991     1   111.5100476 526.347200
   8978   8977   8999     1   107.9700462 569.024000
   8981   8982   8983     1   111.5100476 526.347200
   8981   8982   8988     1   110.1900474 564.840000
   8981   8978   8990     1   110.1900474 564.840000
   8982   8983   8987     1   107.9700462 569.024000
   8982   8983   8999     1   107.9700462 569.024000
   8982   8981   8989     1   110.1900474 564.840000
   8983   8982   8988     1   110.1900474 564.840000
   8987   8983   8999     1   108.2900466 608.353600
   8991   8977   8999     1   107.9700462 569.024000
   9000   9001   9004     1   111.5100476 526.347200
   9000   9001   9013     1   110.1900474 564.840000
   9000   9014   9020     1   110.1900474 564.840000
   9000   9022   9006     1   112.4800480 524.673600
   9001   9000   9014     1   111.5100476 526.347200
   9001   9000   9022     1   107.9700462 569.024000
   9001   9004   9005     1   111.5100476 526.347200
   9001   9004   9012     1   110.1900474 564.840000
   9004   9001   9013     1   110.1900474 564.840000
   9004   9005   9006     1   111.5100476 526.347200
   9004   9005   9011     1   110.1900474 564.840000
   9005   9004   9012     1   110.1900474 564.840000
   9005   9006   9010     1   107.9700462 569.024000
   9005   9006   9022     1   107.9700462 569.024000
   9006   9005   9011     1   110.1900474 564.840000
   9010   9006   9022     1   108.2900466 608.353600
   9014   9000   9022     1   107.9700462 569.024000
   9023   9024   9027     1   111.5100476 526.347200
   9023   9024   9036     1   110.1900474 564.840000
   9023   9037   9043     1   110.1900474 564.840000
   9023   9045   9029     1   112.4800480 524.673600
   9024   9027   9028     1   111.5100476 526.347200
   9024   9027   9035     1   110.1900474 564.840000
   9024   9023   9037     1   111.5100476 526.347200
   9024   9023   9045     1   107.9700462 569.024000
   9027   9028   9029     1   111.5100476 526.347200
   9027   9028   9034     1   110.1900474 564.840000
   9027   9024   9036     1   110.1900474 564.840000
   9028   9029   9033     1   107.9700462 569.024000
   9028   9029   9045     1   107.9700462 569.024000
   9028   9027   9035     1   110.1900474 564.840000
   9029   9028   9034     1   110.1900474 564.840000
   9033   9029   9045     1   108.2900466 608.353600
   9037   9023   9045     1   107.9700462 569.024000
   9046   9047   9050     1   111.5100476 526.347200
   9046   9047   9059     1   110.1900474 564.840000
   9046   9060   9066     1   110.1900474 564.840000
   9046   9068   9052     1   112.4800480 524.673600
   9047   9046   9060     1   111.5100476 526.347200
   9047   9046   9068     1   107.9700462 569.024000
   9047   9050   9051     1   111.5100476 526.347200
   9047   9050   9058     1   110.1900474 564.840000
   9050   9047   9059     1   110.1900474 564.840000
   9050   9051   9052     1   111.5100476 526.347200
   9050   9051   9057     1   110.1900474 564.840000
   9051   9050   9058     1   110.1900474 564.840000
   9051   9052   9056     1   107.9700462 569.024000
   9051   9052   9068     1   107.9700462 569.024000
   9052   9051   9057     1   110.1900474 564.840000
   9056   9052   9068     1   108.2900466 608.353600
   9060   9046   9068     1   107.9700462 569.024000
   9069   9070   9073     1   111.5100476 526.347200
   9069   9070   9082     1   110.1900474 564.840000
   9069   9083   9089     1   110.1900474 564.840000
   9069   9091   9075     1   112.4800480 524.673600
   9070   9073   9074     1   111.5100476 526.347200
   9070   9073   9081     1   110.1900474 564.840000
   9070   9069   9083     1   111.5100476 526.347200
   9070   9069   9091     1   107.9700462 569.024000
   9073   9074   9075     1   111.5100476 526.347200
   9073   9074   9080     1   110.1900474 564.840000
   9073   9070   9082     1   110.1900474 564.840000
   9074   9075   9079     1   107.9700462 569.024000
   9074   9075   9091     1   107.9700462 569.024000
   9074   9073   9081     1   110.1900474 564.840000
   9075   9074   9080     1   110.1900474 564.840000
   9079   9075   9091     1   108.2900466 608.353600
   9083   9069   9091     1   107.9700462 569.024000
   9092   9093   9096     1   111.5100476 526.347200
   9092   9093   9105     1   110.1900474 564.840000
   9092   9106   9112     1   110.1900474 564.840000
   9092   9114   9098     1   112.4800480 524.673600
   9093   9092   9106     1   111.5100476 526.347200
   9093   9092   9114     1   107.9700462 569.024000
   9093   9096   9097     1   111.5100476 526.347200
   9093   9096   9104     1   110.1900474 564.840000
   9096   9093   9105     1   110.1900474 564.840000
   9096   9097   9098     1   111.5100476 526.347200
   9096   9097   9103     1   110.1900474 564.840000
   9097   9096   9104     1   110.1900474 564.840000
   9097   9098   9102     1   107.9700462 569.024000
   9097   9098   9114     1   107.9700462 569.024000
   9098   9097   9103     1   110.1900474 564.840000
   9102   9098   9114     1   108.2900466 608.353600
   9106   9092   9114     1   107.9700462 569.024000
   9115   9116   9119     1   111.5100476 526.347200
   9115   9116   9128     1   110.1900474 564.840000
   9115   9129   9135     1   110.1900474 564.840000
   9115   9137   9121     1   112.4800480 524.673600
   9116   9119   9120     1   111.5100476 526.347200
   9116   9119   9127     1   110.1900474 564.840000
   9116   9115   9129     1   111.5100476 526.347200
   9116   9115   9137     1   107.9700462 569.024000
   9119   9120   9121     1   111.5100476 526.347200
   9119   9120   9126     1   110.1900474 564.840000
   9119   9116   9128     1   110.1900474 564.840000
   9120   9121   9125     1   107.9700462 569.024000
   9120   9121   9137     1   107.9700462 569.024000
   9120   9119   9127     1   110.1900474 564.840000
   9121   9120   9126     1   110.1900474 564.840000
   9125   9121   9137     1   108.2900466 608.353600
   9129   9115   9137     1   107.9700462 569.024000
   9138   9139   9142     1   111.5100476 526.347200
   9138   9139   9151     1   110.1900474 564.840000
   9138   9152   9158     1   110.1900474 564.840000
   9138   9160   9144     1   112.4800480 524.673600
   9139   9138   9152     1   111.5100476 526.347200
   9139   9138   9160     1   107.9700462 569.024000
   9139   9142   9143     1   111.5100476 526.347200
   9139   9142   9150     1   110.1900474 564.840000
   9142   9139   9151     1   110.1900474 564.840000
   9142   9143   9144     1   111.5100476 526.347200
   9142   9143   9149     1   110.1900474 564.840000
   9143   9142   9150     1   110.1900474 564.840000
   9143   9144   9148     1   107.9700462 569.024000
   9143   9144   9160     1   107.9700462 569.024000
   9144   9143   9149     1   110.1900474 564.840000
   9148   9144   9160     1   108.2900466 608.353600
   9152   9138   9160     1   107.9700462 569.024000
   9161   9162   9165     1   111.5100476 526.347200
   9161   9162   9174     1   110.1900474 564.840000
   9161   9175   9181     1   110.1900474 564.840000
   9161   9183   9167     1   112.4800480 524.673600
   9162   9165   9166     1   111.5100476 526.347200
   9162   9165   9173     1   110.1900474 564.840000
   9162   9161   9175     1   111.5100476 526.347200
   9162   9161   9183     1   107.9700462 569.024000
   9165   9166   9167     1   111.5100476 526.347200
   9165   9166   9172     1   110.1900474 564.840000
   9165   9162   9174     1   110.1900474 564.840000
   9166   9167   9171     1   107.9700462 569.024000
   9166   9167   9183     1   107.9700462 569.024000
   9166   9165   9173     1   110.1900474 564.840000
   9167   9166   9172     1   110.1900474 564.840000
   9171   9167   9183     1   108.2900466 608.353600
   9175   9161   9183     1   107.9700462 569.024000
   9184   9185   9188     1   111.5100476 526.347200
   9184   9185   9197     1   110.1900474 564.840000
   9184   9198   9204     1   110.1900474 564.840000
   9184   9206   9190     1   112.4800480 524.673600
   9185   9184   9198     1   111.5100476 526.347200
   9185   9184   9206     1   107.9700462 569.024000
   9185   9188   9189     1   111.5100476 526.347200
   9185   9188   9196     1   110.1900474 564.840000
   9188   9185   9197     1   110.1900474 564.840000
   9188   9189   9190     1   111.5100476 526.347200
   9188   9189   9195     1   110.1900474 564.840000
   9189   9188   9196     1   110.1900474 564.840000
   9189   9190   9194     1   107.9700462 569.024000
   9189   9190   9206     1   107.9700462 569.024000
   9190   9189   9195     1   110.1900474 564.840000
   9194   9190   9206     1   108.2900466 608.353600
   9198   9184   9206     1   107.9700462 569.024000
   9207   9208   9211     1   111.5100476 526.347200
   9207   9208   9220     1   110.1900474 564.840000
   9207   9221   9227     1   110.1900474 564.840000
   9207   9229   9213     1   112.4800480 524.673600
   9208   9211   9212     1   111.5100476 526.347200
   9208   9211   9219     1   110.1900474 564.840000
   9208   9207   9221     1   111.5100476 526.347200
   9208   9207   9229     1   107.9700462 569.024000
   9211   9212   9213     1   111.5100476 526.347200
   9211   9212   9218     1   110.1900474 564.840000
   9211   9208   9220     1   110.1900474 564.840000
   9212   9213   9217     1   107.9700462 569.024000
   9212   9213   9229     1   107.9700462 569.024000
   9212   9211   9219     1   110.1900474 564.840000
   9213   9212   9218     1   110.1900474 564.840000
   9217   9213   9229     1   108.2900466 608.353600
   9221   9207   9229     1   107.9700462 569.024000
   9230   9231   9234     1   111.5100476 526.347200
   9230   9231   9243     1   110.1900474 564.840000
   9230   9244   9250     1   110.1900474 564.840000
   9230   9252   9236     1   112.4800480 524.673600
   9231   9230   9244     1   111.5100476 526.347200
   9231   9230   9252     1   107.9700462 569.024000
   9231   9234   9235     1   111.5100476 526.347200
   9231   9234   9242     1   110.1900474 564.840000
   9234   9231   9243     1   110.1900474 564.840000
   9234   9235   9236     1   111.5100476 526.347200
   9234   9235   9241     1   110.1900474 564.840000
   9235   9234   9242     1   110.1900474 564.840000
   9235   9236   9240     1   107.9700462 569.024000
   9235   9236   9252     1   107.9700462 569.024000
   9236   9235   9241     1   110.1900474 564.840000
   9240   9236   9252     1   108.2900466 608.353600
   9244   9230   9252     1   107.9700462 569.024000
   9253   9254   9257     1   111.5100476 526.347200
   9253   9254   9266     1   110.1900474 564.840000
   9253   9267   9273     1   110.1900474 564.840000
   9253   9275   9259     1   112.4800480 524.673600
   9254   9257   9258     1   111.5100476 526.347200
   9254   9257   9265     1   110.1900474 564.840000
   9254   9253   9267     1   111.5100476 526.347200
   9254   9253   9275     1   107.9700462 569.024000
   9257   9258   9259     1   111.5100476 526.347200
   9257   9258   9264     1   110.1900474 564.840000
   9257   9254   9266     1   110.1900474 564.840000
   9258   9259   9263     1   107.9700462 569.024000
   9258   9259   9275     1   107.9700462 569.024000
   9258   9257   9265     1   110.1900474 564.840000
   9259   9258   9264     1   110.1900474 564.840000
   9263   9259   9275     1   108.2900466 608.353600
   9267   9253   9275     1   107.9700462 569.024000
   9276   9277   9280     1   111.5100476 526.347200
   9276   9277   9289     1   110.1900474 564.840000
   9276   9290   9296     1   110.1900474 564.840000
   9276   9298   9282     1   112.4800480 524.673600
   9277   9276   9290     1   111.5100476 526.347200
   9277   9276   9298     1   107.9700462 569.024000
   9277   9280   9281     1   111.5100476 526.347200
   9277   9280   9288     1   110.1900474 564.840000
   9280   9277   9289     1   110.1900474 564.840000
   9280   9281   9282     1   111.5100476 526.347200
   9280   9281   9287     1   110.1900474 564.840000
   9281   9280   9288     1   110.1900474 564.840000
   9281   9282   9286     1   107.9700462 569.024000
   9281   9282   9298     1   107.9700462 569.024000
   9282   9281   9287     1   110.1900474 564.840000
   9286   9282   9298     1   108.2900466 608.353600
   9290   9276   9298     1   107.9700462 569.024000
   9299   9300   9303     1   111.5100476 526.347200
   9299   9300   9312     1   110.1900474 564.840000
   9299   9313   9319     1   110.1900474 564.840000
   9299   9321   9305     1   112.4800480 524.673600
   9300   9303   9304     1   111.5100476 526.347200
   9300   9303   9311     1   110.1900474 564.840000
   9300   9299   9313     1   111.5100476 526.347200
   9300   9299   9321     1   107.9700462 569.024000
   9303   9304   9305     1   111.5100476 526.347200
   9303   9304   9310     1   110.1900474 564.840000
   9303   9300   9312     1   110.1900474 564.840000
   9304   9305   9309     1   107.9700462 569.024000
   9304   9305   9321     1   107.9700462 569.024000
   9304   9303   9311     1   110.1900474 564.840000
   9305   9304   9310     1   110.1900474 564.840000
   9309   9305   9321     1   108.2900466 608.353600
   9313   9299   9321     1   107.9700462 569.024000
   9322   9323   9326     1   111.5100476 526.347200
   9322   9323   9335     1   110.1900474 564.840000
   9322   9336   9342     1   110.1900474 564.840000
   9322   9344   9328     1   112.4800480 524.673600
   9323   9322   9336     1   111.5100476 526.347200
   9323   9322   9344     1   107.9700462 569.024000
   9323   9326   9327     1   111.5100476 526.347200
   9323   9326   9334     1   110.1900474 564.840000
   9326   9323   9335     1   110.1900474 564.840000
   9326   9327   9328     1   111.5100476 526.347200
   9326   9327   9333     1   110.1900474 564.840000
   9327   9326   9334     1   110.1900474 564.840000
   9327   9328   9332     1   107.9700462 569.024000
   9327   9328   9344     1   107.9700462 569.024000
   9328   9327   9333     1   110.1900474 564.840000
   9332   9328   9344     1   108.2900466 608.353600
   9336   9322   9344     1   107.9700462 569.024000
   9345   9346   9349     1   111.5100476 526.347200
   9345   9346   9358     1   110.1900474 564.840000
   9345   9359   9365     1   110.1900474 564.840000
   9345   9367   9351     1   112.4800480 524.673600
   9346   9349   9350     1   111.5100476 526.347200
   9346   9349   9357     1   110.1900474 564.840000
   9346   9345   9359     1   111.5100476 526.347200
   9346   9345   9367     1   107.9700462 569.024000
   9349   9350   9351     1   111.5100476 526.347200
   9349   9350   9356     1   110.1900474 564.840000
   9349   9346   9358     1   110.1900474 564.840000
   9350   9351   9355     1   107.9700462 569.024000
   9350   9351   9367     1   107.9700462 569.024000
   9350   9349   9357     1   110.1900474 564.840000
   9351   9350   9356     1   110.1900474 564.840000
   9355   9351   9367     1   108.2900466 608.353600
   9359   9345   9367     1   107.9700462 569.024000
   9368   9369   9372     1   111.5100476 526.347200
   9368   9369   9381     1   110.1900474 564.840000
   9368   9382   9388     1   110.1900474 564.840000
   9368   9390   9374     1   112.4800480 524.673600
   9369   9368   9382     1   111.5100476 526.347200
   9369   9368   9390     1   107.9700462 569.024000
   9369   9372   9373     1   111.5100476 526.347200
   9369   9372   9380     1   110.1900474 564.840000
   9372   9369   9381     1   110.1900474 564.840000
   9372   9373   9374     1   111.5100476 526.347200
   9372   9373   9379     1   110.1900474 564.840000
   9373   9372   9380     1   110.1900474 564.840000
   9373   9374   9378     1   107.9700462 569.024000
   9373   9374   9390     1   107.9700462 569.024000
   9374   9373   9379     1   110.1900474 564.840000
   9378   9374   9390     1   108.2900466 608.353600
   9382   9368   9390     1   107.9700462 569.024000
   9391   9392   9395     1   111.5100476 526.347200
   9391   9392   9404     1   110.1900474 564.840000
   9391   9405   9411     1   110.1900474 564.840000
   9391   9413   9397     1   112.4800480 524.673600
   9392   9395   9396     1   111.5100476 526.347200
   9392   9395   9403     1   110.1900474 564.840000
   9392   9391   9405     1   111.5100476 526.347200
   9392   9391   9413     1   107.9700462 569.024000
   9395   9396   9397     1   111.5100476 526.347200
   9395   9396   9402     1   110.1900474 564.840000
   9395   9392   9404     1   110.1900474 564.840000
   9396   9397   9401     1   107.9700462 569.024000
   9396   9397   9413     1   107.9700462 569.024000
   9396   9395   9403     1   110.1900474 564.840000
   9397   9396   9402     1   110.1900474 564.840000
   9401   9397   9413     1   108.2900466 608.353600
   9405   9391   9413     1   107.9700462 569.024000
   9414   9415   9418     1   111.5100476 526.347200
   9414   9415   9427     1   110.1900474 564.840000
   9414   9428   9434     1   110.1900474 564.840000
   9414   9436   9420     1   112.4800480 524.673600
   9415   9414   9428     1   111.5100476 526.347200
   9415   9414   9436     1   107.9700462 569.024000
   9415   9418   9419     1   111.5100476 526.347200
   9415   9418   9426     1   110.1900474 564.840000
   9418   9415   9427     1   110.1900474 564.840000
   9418   9419   9420     1   111.5100476 526.347200
   9418   9419   9425     1   110.1900474 564.840000
   9419   9418   9426     1   110.1900474 564.840000
   9419   9420   9424     1   107.9700462 569.024000
   9419   9420   9436     1   107.9700462 569.024000
   9420   9419   9425     1   110.1900474 564.840000
   9424   9420   9436     1   108.2900466 608.353600
   9428   9414   9436     1   107.9700462 569.024000
   9437   9438   9441     1   111.5100476 526.347200
   9437   9438   9450     1   110.1900474 564.840000
   9437   9451   9457     1   110.1900474 564.840000
   9437   9459   9443     1   112.4800480 524.673600
   9438   9441   9442     1   111.5100476 526.347200
   9438   9441   9449     1   110.1900474 564.840000
   9438   9437   9451     1   111.5100476 526.347200
   9438   9437   9459     1   107.9700462 569.024000
   9441   9442   9443     1   111.5100476 526.347200
   9441   9442   9448     1   110.1900474 564.840000
   9441   9438   9450     1   110.1900474 564.840000
   9442   9443   9447     1   107.9700462 569.024000
   9442   9443   9459     1   107.9700462 569.024000
   9442   9441   9449     1   110.1900474 564.840000
   9443   9442   9448     1   110.1900474 564.840000
   9447   9443   9459     1   108.2900466 608.353600
   9451   9437   9459     1   107.9700462 569.024000
   9460   9461   9464     1   111.5100476 526.347200
   9460   9461   9473     1   110.1900474 564.840000
   9460   9474   9480     1   110.1900474 564.840000
   9460   9482   9466     1   112.4800480 524.673600
   9461   9460   9474     1   111.5100476 526.347200
   9461   9460   9482     1   107.9700462 569.024000
   9461   9464   9465     1   111.5100476 526.347200
   9461   9464   9472     1   110.1900474 564.840000
   9464   9461   9473     1   110.1900474 564.840000
   9464   9465   9466     1   111.5100476 526.347200
   9464   9465   9471     1   110.1900474 564.840000
   9465   9464   9472     1   110.1900474 564.840000
   9465   9466   9470     1   107.9700462 569.024000
   9465   9466   9482     1   107.9700462 569.024000
   9466   9465   9471     1   110.1900474 564.840000
   9470   9466   9482     1   108.2900466 608.353600
   9474   9460   9482     1   107.9700462 569.024000
   9483   9484   9487     1   111.5100476 526.347200
   9483   9484   9496     1   110.1900474 564.840000
   9483   9497   9503     1   110.1900474 564.840000
   9483   9505   9489     1   112.4800480 524.673600
   9484   9487   9488     1   111.5100476 526.347200
   9484   9487   9495     1   110.1900474 564.840000
   9484   9483   9497     1   111.5100476 526.347200
   9484   9483   9505     1   107.9700462 569.024000
   9487   9488   9489     1   111.5100476 526.347200
   9487   9488   9494     1   110.1900474 564.840000
   9487   9484   9496     1   110.1900474 564.840000
   9488   9489   9493     1   107.9700462 569.024000
   9488   9489   9505     1   107.9700462 569.024000
   9488   9487   9495     1   110.1900474 564.840000
   9489   9488   9494     1   110.1900474 564.840000
   9493   9489   9505     1   108.2900466 608.353600
   9497   9483   9505     1   107.9700462 569.024000
   9506   9507   9510     1   111.5100476 526.347200
   9506   9507   9519     1   110.1900474 564.840000
   9506   9520   9526     1   110.1900474 564.840000
   9506   9528   9512     1   112.4800480 524.673600
   9507   9506   9520     1   111.5100476 526.347200
   9507   9506   9528     1   107.9700462 569.024000
   9507   9510   9511     1   111.5100476 526.347200
   9507   9510   9518     1   110.1900474 564.840000
   9510   9507   9519     1   110.1900474 564.840000
   9510   9511   9512     1   111.5100476 526.347200
   9510   9511   9517     1   110.1900474 564.840000
   9511   9510   9518     1   110.1900474 564.840000
   9511   9512   9516     1   107.9700462 569.024000
   9511   9512   9528     1   107.9700462 569.024000
   9512   9511   9517     1   110.1900474 564.840000
   9516   9512   9528     1   108.2900466 608.353600
   9520   9506   9528     1   107.9700462 569.024000
   9529   9530   9533     1   111.5100476 526.347200
   9529   9530   9542     1   110.1900474 564.840000
   9529   9543   9549     1   110.1900474 564.840000
   9529   9551   9535     1   112.4800480 524.673600
   9530   9533   9534     1   111.5100476 526.347200
   9530   9533   9541     1   110.1900474 564.840000
   9530   9529   9543     1   111.5100476 526.347200
   9530   9529   9551     1   107.9700462 569.024000
   9533   9534   9535     1   111.5100476 526.347200
   9533   9534   9540     1   110.1900474 564.840000
   9533   9530   9542     1   110.1900474 564.840000
   9534   9535   9539     1   107.9700462 569.024000
   9534   9535   9551     1   107.9700462 569.024000
   9534   9533   9541     1   110.1900474 564.840000
   9535   9534   9540     1   110.1900474 564.840000
   9539   9535   9551     1   108.2900466 608.353600
   9543   9529   9551     1   107.9700462 569.024000
   9552   9553   9556     1   111.5100476 526.347200
   9552   9553   9565     1   110.1900474 564.840000
   9552   9566   9572     1   110.1900474 564.840000
   9552   9574   9558     1   112.4800480 524.673600
   9553   9552   9566     1   111.5100476 526.347200
   9553   9552   9574     1   107.9700462 569.024000
   9553   9556   9557     1   111.5100476 526.347200
   9553   9556   9564     1   110.1900474 564.840000
   9556   9553   9565     1   110.1900474 564.840000
   9556   9557   9558     1   111.5100476 526.347200
   9556   9557   9563     1   110.1900474 564.840000
   9557   9556   9564     1   110.1900474 564.840000
   9557   9558   9562     1   107.9700462 569.024000
   9557   9558   9574     1   107.9700462 569.024000
   9558   9557   9563     1   110.1900474 564.840000
   9562   9558   9574     1   108.2900466 608.353600
   9566   9552   9574     1   107.9700462 569.024000
   9575   9576   9579     1   111.5100476 526.347200
   9575   9576   9588     1   110.1900474 564.840000
   9575   9589   9595     1   110.1900474 564.840000
   9575   9597   9581     1   112.4800480 524.673600
   9576   9579   9580     1   111.5100476 526.347200
   9576   9579   9587     1   110.1900474 564.840000
   9576   9575   9589     1   111.5100476 526.347200
   9576   9575   9597     1   107.9700462 569.024000
   9579   9580   9581     1   111.5100476 526.347200
   9579   9580   9586     1   110.1900474 564.840000
   9579   9576   9588     1   110.1900474 564.840000
   9580   9581   9585     1   107.9700462 569.024000
   9580   9581   9597     1   107.9700462 569.024000
   9580   9579   9587     1   110.1900474 564.840000
   9581   9580   9586     1   110.1900474 564.840000
   9585   9581   9597     1   108.2900466 608.353600
   9589   9575   9597     1   107.9700462 569.024000
   9598   9599   9602     1   111.5100476 526.347200
   9598   9599   9611     1   110.1900474 564.840000
   9598   9612   9618     1   110.1900474 564.840000
   9598   9620   9604     1   112.4800480 524.673600
   9599   9598   9612     1   111.5100476 526.347200
   9599   9598   9620     1   107.9700462 569.024000
   9599   9602   9603     1   111.5100476 526.347200
   9599   9602   9610     1   110.1900474 564.840000
   9602   9599   9611     1   110.1900474 564.840000
   9602   9603   9604     1   111.5100476 526.347200
   9602   9603   9609     1   110.1900474 564.840000
   9603   9602   9610     1   110.1900474 564.840000
   9603   9604   9608     1   107.9700462 569.024000
   9603   9604   9620     1   107.9700462 569.024000
   9604   9603   9609     1   110.1900474 564.840000
   9608   9604   9620     1   108.2900466 608.353600
   9612   9598   9620     1   107.9700462 569.024000
   9621   9622   9625     1   111.5100476 526.347200
   9621   9622   9634     1   110.1900474 564.840000
   9621   9635   9641     1   110.1900474 564.840000
   9621   9643   9627     1   112.4800480 524.673600
   9622   9625   9626     1   111.5100476 526.347200
   9622   9625   9633     1   110.1900474 564.840000
   9622   9621   9635     1   111.5100476 526.347200
   9622   9621   9643     1   107.9700462 569.024000
   9625   9626   9627     1   111.5100476 526.347200
   9625   9626   9632     1   110.1900474 564.840000
   9625   9622   9634     1   110.1900474 564.840000
   9626   9627   9631     1   107.9700462 569.024000
   9626   9627   9643     1   107.9700462 569.024000
   9626   9625   9633     1   110.1900474 564.840000
   9627   9626   9632     1   110.1900474 564.840000
   9631   9627   9643     1   108.2900466 608.353600
   9635   9621   9643     1   107.9700462 569.024000
   9644   9645   9648     1   111.5100476 526.347200
   9644   9645   9657     1   110.1900474 564.840000
   9644   9658   9664     1   110.1900474 564.840000
   9644   9666   9650     1   112.4800480 524.673600
   9645   9644   9658     1   111.5100476 526.347200
   9645   9644   9666     1   107.9700462 569.024000
   9645   9648   9649     1   111.5100476 526.347200
   9645   9648   9656     1   110.1900474 564.840000
   9648   9645   9657     1   110.1900474 564.840000
   9648   9649   9650     1   111.5100476 526.347200
   9648   9649   9655     1   110.1900474 564.840000
   9649   9648   9656     1   110.1900474 564.840000
   9649   9650   9654     1   107.9700462 569.024000
   9649   9650   9666     1   107.9700462 569.024000
   9650   9649   9655     1   110.1900474 564.840000
   9654   9650   9666     1   108.2900466 608.353600
   9658   9644   9666     1   107.9700462 569.024000
   9667   9668   9671     1   111.5100476 526.347200
   9667   9668   9680     1   110.1900474 564.840000
   9667   9681   9687     1   110.1900474 564.840000
   9667   9689   9673     1   112.4800480 524.673600
   9668   9671   9672     1   111.5100476 526.347200
   9668   9671   9679     1   110.1900474 564.840000
   9668   9667   9681     1   111.5100476 526.347200
   9668   9667   9689     1   107.9700462 569.024000
   9671   9672   9673     1   111.5100476 526.347200
   9671   9672   9678     1   110.1900474 564.840000
   9671   9668   9680     1   110.1900474 564.840000
   9672   9673   9677     1   107.9700462 569.024000
   9672   9673   9689     1   107.9700462 569.024000
   9672   9671   9679     1   110.1900474 564.840000
   9673   9672   9678     1   110.1900474 564.840000
   9677   9673   9689     1   108.2900466 608.353600
   9681   9667   9689     1   107.9700462 569.024000
   9690   9691   9694     1   111.5100476 526.347200
   9690   9691   9703     1   110.1900474 564.840000
   9690   9704   9710     1   110.1900474 564.840000
   9690   9712   9696     1   112.4800480 524.673600
   9691   9690   9704     1   111.5100476 526.347200
   9691   9690   9712     1   107.9700462 569.024000
   9691   9694   9695     1   111.5100476 526.347200
   9691   9694   9702     1   110.1900474 564.840000
   9694   9691   9703     1   110.1900474 564.840000
   9694   9695   9696     1   111.5100476 526.347200
   9694   9695   9701     1   110.1900474 564.840000
   9695   9694   9702     1   110.1900474 564.840000
   9695   9696   9700     1   107.9700462 569.024000
   9695   9696   9712     1   107.9700462 569.024000
   9696   9695   9701     1   110.1900474 564.840000
   9700   9696   9712     1   108.2900466 608.353600
   9704   9690   9712     1   107.9700462 569.024000
   9713   9714   9717     1   111.5100476 526.347200
   9713   9714   9726     1   110.1900474 564.840000
   9713   9727   9733     1   110.1900474 564.840000
   9713   9735   9719     1   112.4800480 524.673600
   9714   9717   9718     1   111.5100476 526.347200
   9714   9717   9725     1   110.1900474 564.840000
   9714   9713   9727     1   111.5100476 526.347200
   9714   9713   9735     1   107.9700462 569.024000
   9717   9718   9719     1   111.5100476 526.347200
   9717   9718   9724     1   110.1900474 564.840000
   9717   9714   9726     1   110.1900474 564.840000
   9718   9719   9723     1   107.9700462 569.024000
   9718   9719   9735     1   107.9700462 569.024000
   9718   9717   9725     1   110.1900474 564.840000
   9719   9718   9724     1   110.1900474 564.840000
   9723   9719   9735     1   108.2900466 608.353600
   9727   9713   9735     1   107.9700462 569.024000
   9736   9737   9740     1   111.5100476 526.347200
   9736   9737   9749     1   110.1900474 564.840000
   9736   9750   9756     1   110.1900474 564.840000
   9736   9758   9742     1   112.4800480 524.673600
   9737   9736   9750     1   111.5100476 526.347200
   9737   9736   9758     1   107.9700462 569.024000
   9737   9740   9741     1   111.5100476 526.347200
   9737   9740   9748     1   110.1900474 564.840000
   9740   9737   9749     1   110.1900474 564.840000
   9740   9741   9742     1   111.5100476 526.347200
   9740   9741   9747     1   110.1900474 564.840000
   9741   9740   9748     1   110.1900474 564.840000
   9741   9742   9746     1   107.9700462 569.024000
   9741   9742   9758     1   107.9700462 569.024000
   9742   9741   9747     1   110.1900474 564.840000
   9746   9742   9758     1   108.2900466 608.353600
   9750   9736   9758     1   107.9700462 569.024000
   9759   9760   9763     1   111.5100476 526.347200
   9759   9760   9772     1   110.1900474 564.840000
   9759   9773   9779     1   110.1900474 564.840000
   9759   9781   9765     1   112.4800480 524.673600
   9760   9763   9764     1   111.5100476 526.347200
   9760   9763   9771     1   110.1900474 564.840000
   9760   9759   9773     1   111.5100476 526.347200
   9760   9759   9781     1   107.9700462 569.024000
   9763   9764   9765     1   111.5100476 526.347200
   9763   9764   9770     1   110.1900474 564.840000
   9763   9760   9772     1   110.1900474 564.840000
   9764   9765   9769     1   107.9700462 569.024000
   9764   9765   9781     1   107.9700462 569.024000
   9764   9763   9771     1   110.1900474 564.840000
   9765   9764   9770     1   110.1900474 564.840000
   9769   9765   9781     1   108.2900466 608.353600
   9773   9759   9781     1   107.9700462 569.024000
   9782   9783   9786     1   111.5100476 526.347200
   9782   9783   9795     1   110.1900474 564.840000
   9782   9796   9802     1   110.1900474 564.840000
   9782   9804   9788     1   112.4800480 524.673600
   9783   9782   9796     1   111.5100476 526.347200
   9783   9782   9804     1   107.9700462 569.024000
   9783   9786   9787     1   111.5100476 526.347200
   9783   9786   9794     1   110.1900474 564.840000
   9786   9783   9795     1   110.1900474 564.840000
   9786   9787   9788     1   111.5100476 526.347200
   9786   9787   9793     1   110.1900474 564.840000
   9787   9786   9794     1   110.1900474 564.840000
   9787   9788   9792     1   107.9700462 569.024000
   9787   9788   9804     1   107.9700462 569.024000
   9788   9787   9793     1   110.1900474 564.840000
   9792   9788   9804     1   108.2900466 608.353600
   9796   9782   9804     1   107.9700462 569.024000
   9805   9806   9809     1   111.5100476 526.347200
   9805   9806   9818     1   110.1900474 564.840000
   9805   9819   9825     1   110.1900474 564.840000
   9805   9827   9811     1   112.4800480 524.673600
   9806   9809   9810     1   111.5100476 526.347200
   9806   9809   9817     1   110.1900474 564.840000
   9806   9805   9819     1   111.5100476 526.347200
   9806   9805   9827     1   107.9700462 569.024000
   9809   9810   9811     1   111.5100476 526.347200
   9809   9810   9816     1   110.1900474 564.840000
   9809   9806   9818     1   110.1900474 564.840000
   9810   9811   9815     1   107.9700462 569.024000
   9810   9811   9827     1   107.9700462 569.024000
   9810   9809   9817     1   110.1900474 564.840000
   9811   9810   9816     1   110.1900474 564.840000
   9815   9811   9827     1   108.2900466 608.353600
   9819   9805   9827     1   107.9700462 569.024000
   9828   9829   9832     1   111.5100476 526.347200
   9828   9829   9841     1   110.1900474 564.840000
   9828   9842   9848     1   110.1900474 564.840000
   9828   9850   9834     1   112.4800480 524.673600
   9829   9828   9842     1   111.5100476 526.347200
   9829   9828   9850     1   107.9700462 569.024000
   9829   9832   9833     1   111.5100476 526.347200
   9829   9832   9840     1   110.1900474 564.840000
   9832   9829   9841     1   110.1900474 564.840000
   9832   9833   9834     1   111.5100476 526.347200
   9832   9833   9839     1   110.1900474 564.840000
   9833   9832   9840     1   110.1900474 564.840000
   9833   9834   9838     1   107.9700462 569.024000
   9833   9834   9850     1   107.9700462 569.024000
   9834   9833   9839     1   110.1900474 564.840000
   9838   9834   9850     1   108.2900466 608.353600
   9842   9828   9850     1   107.9700462 569.024000
   9851   9852   9855     1   111.5100476 526.347200
   9851   9852   9864     1   110.1900474 564.840000
   9851   9865   9871     1   110.1900474 564.840000
   9851   9873   9857     1   112.4800480 524.673600
   9852   9855   9856     1   111.5100476 526.347200
   9852   9855   9863     1   110.1900474 564.840000
   9852   9851   9865     1   111.5100476 526.347200
   9852   9851   9873     1   107.9700462 569.024000
   9855   9856   9857     1   111.5100476 526.347200
   9855   9856   9862     1   110.1900474 564.840000
   9855   9852   9864     1   110.1900474 564.840000
   9856   9857   9861     1   107.9700462 569.024000
   9856   9857   9873     1   107.9700462 569.024000
   9856   9855   9863     1   110.1900474 564.840000
   9857   9856   9862     1   110.1900474 564.840000
   9861   9857   9873     1   108.2900466 608.353600
   9865   9851   9873     1   107.9700462 569.024000
   9874   9875   9878     1   111.5100476 526.347200
   9874   9875   9887     1   110.1900474 564.840000
   9874   9888   9894     1   110.1900474 564.840000
   9874   9896   9880     1   112.4800480 524.673600
   9875   9874   9888     1   111.5100476 526.347200
   9875   9874   9896     1   107.9700462 569.024000
   9875   9878   9879     1   111.5100476 526.347200
   9875   9878   9886     1   110.1900474 564.840000
   9878   9875   9887     1   110.1900474 564.840000
   9878   9879   9880     1   111.5100476 526.347200
   9878   9879   9885     1   110.1900474 564.840000
   9879   9878   9886     1   110.1900474 564.840000
   9879   9880   9884     1   107.9700462 569.024000
   9879   9880   9896     1   107.9700462 569.024000
   9880   9879   9885     1   110.1900474 564.840000
   9884   9880   9896     1   108.2900466 608.353600
   9888   9874   9896     1   107.9700462 569.024000
   9897   9898   9901     1   111.5100476 526.347200
   9897   9898   9910     1   110.1900474 564.840000
   9897   9911   9917     1   110.1900474 564.840000
   9897   9919   9903     1   112.4800480 524.673600
   9898   9901   9902     1   111.5100476 526.347200
   9898   9901   9909     1   110.1900474 564.840000
   9898   9897   9911     1   111.5100476 526.347200
   9898   9897   9919     1   107.9700462 569.024000
   9901   9902   9903     1   111.5100476 526.347200
   9901   9902   9908     1   110.1900474 564.840000
   9901   9898   9910     1   110.1900474 564.840000
   9902   9903   9907     1   107.9700462 569.024000
   9902   9903   9919     1   107.9700462 569.024000
   9902   9901   9909     1   110.1900474 564.840000
   9903   9902   9908     1   110.1900474 564.840000
   9907   9903   9919     1   108.2900466 608.353600
   9911   9897   9919     1   107.9700462 569.024000
   9920   9921   9924     1   111.5100476 526.347200
   9920   9921   9933     1   110.1900474 564.840000
   9920   9934   9940     1   110.1900474 564.840000
   9920   9942   9926     1   112.4800480 524.673600
   9921   9920   9934     1   111.5100476 526.347200
   9921   9920   9942     1   107.9700462 569.024000
   9921   9924   9925     1   111.5100476 526.347200
   9921   9924   9932     1   110.1900474 564.840000
   9924   9921   9933     1   110.1900474 564.840000
   9924   9925   9926     1   111.5100476 526.347200
   9924   9925   9931     1   110.1900474 564.840000
   9925   9924   9932     1   110.1900474 564.840000
   9925   9926   9930     1   107.9700462 569.024000
   9925   9926   9942     1   107.9700462 569.024000
   9926   9925   9931     1   110.1900474 564.840000
   9930   9926   9942     1   108.2900466 608.353600
   9934   9920   9942     1   107.9700462 569.024000
   9943   9944   9947     1   111.5100476 526.347200
   9943   9944   9956     1   110.1900474 564.840000
   9943   9957   9963     1   110.1900474 564.840000
   9943   9965   9949     1   112.4800480 524.673600
   9944   9947   9948     1   111.5100476 526.347200
   9944   9947   9955     1   110.1900474 564.840000
   9944   9943   9957     1   111.5100476 526.347200
   9944   9943   9965     1   107.9700462 569.024000
   9947   9948   9949     1   111.5100476 526.347200
   9947   9948   9954     1   110.1900474 564.840000
   9947   9944   9956     1   110.1900474 564.840000
   9948   9949   9953     1   107.9700462 569.024000
   9948   9949   9965     1   107.9700462 569.024000
   9948   9947   9955     1   110.1900474 564.840000
   9949   9948   9954     1   110.1900474 564.840000
   9953   9949   9965     1   108.2900466 608.353600
   9957   9943   9965     1   107.9700462 569.024000
   9966   9967   9970     1   111.5100476 526.347200
   9966   9967   9979     1   110.1900474 564.840000
   9966   9980   9986     1   110.1900474 564.840000
   9966   9988   9972     1   112.4800480 524.673600
   9967   9966   9980     1   111.5100476 526.347200
   9967   9966   9988     1   107.9700462 569.024000
   9967   9970   9971     1   111.5100476 526.347200
   9967   9970   9978     1   110.1900474 564.840000
   9970   9967   9979     1   110.1900474 564.840000
   9970   9971   9972     1   111.5100476 526.347200
   9970   9971   9977     1   110.1900474 564.840000
   9971   9970   9978     1   110.1900474 564.840000
   9971   9972   9976     1   107.9700462 569.024000
   9971   9972   9988     1   107.9700462 569.024000
   9972   9971   9977     1   110.1900474 564.840000
   9976   9972   9988     1   108.2900466 608.353600
   9980   9966   9988     1   107.9700462 569.024000
   9989   9990   9993     1   111.5100476 526.347200
   9989   9990  10002     1   110.1900474 564.840000
   9989  10003  10009     1   110.1900474 564.840000
   9989  10011   9995     1   112.4800480 524.673600
   9990   9993   9994     1   111.5100476 526.347200
   9990   9993  10001     1   110.1900474 564.840000
   9990   9989  10003     1   111.5100476 526.347200
   9990   9989  10011     1   107.9700462 569.024000
   9993   9994   9995     1   111.5100476 526.347200
   9993   9994  10000     1   110.1900474 564.840000
   9993   9990  10002     1   110.1900474 564.840000
   9994   9995   9999     1   107.9700462 569.024000
   9994   9995  10011     1   107.9700462 569.024000
   9994   9993  10001     1   110.1900474 564.840000
   9995   9994  10000     1   110.1900474 564.840000
   9999   9995  10011     1   108.2900466 608.353600
  10003   9989  10011     1   107.9700462 569.024000
  10012  10013  10016     1   111.5100476 526.347200
  10012  10013  10025     1   110.1900474 564.840000
  10012  10026  10032     1   110.1900474 564.840000
  10012  10034  10018     1   112.4800480 524.673600
  10013  10012  10026     1   111.5100476 526.347200
  10013  10012  10034     1   107.9700462 569.024000
  10013  10016  10017     1   111.5100476 526.347200
  10013  10016  10024     1   110.1900474 564.840000
  10016  10013  10025     1   110.1900474 564.840000
  10016  10017  10018     1   111.5100476 526.347200
  10016  10017  10023     1   110.1900474 564.840000
  10017  10016  10024     1   110.1900474 564.840000
  10017  10018  10022     1   107.9700462 569.024000
  10017  10018  10034     1   107.9700462 569.024000
  10018  10017  10023     1   110.1900474 564.840000
  10022  10018  10034     1   108.2900466 608.353600
  10026  10012  10034     1   107.9700462 569.024000
  10035  10036  10039     1   111.5100476 526.347200
  10035  10036  10048     1   110.1900474 564.840000
  10035  10049  10055     1   110.1900474 564.840000
  10035  10057  10041     1   112.4800480 524.673600
  10036  10039  10040     1   111.5100476 526.347200
  10036  10039  10047     1   110.1900474 564.840000
  10036  10035  10049     1   111.5100476 526.347200
  10036  10035  10057     1   107.9700462 569.024000
  10039  10040  10041     1   111.5100476 526.347200
  10039  10040  10046     1   110.1900474 564.840000
  10039  10036  10048     1   110.1900474 564.840000
  10040  10041  10045     1   107.9700462 569.024000
  10040  10041  10057     1   107.9700462 569.024000
  10040  10039  10047     1   110.1900474 564.840000
  10041  10040  10046     1   110.1900474 564.840000
  10045  10041  10057     1   108.2900466 608.353600
  10049  10035  10057     1   107.9700462 569.024000
  10058  10059  10062     1   111.5100476 526.347200
  10058  10059  10071     1   110.1900474 564.840000
  10058  10072  10078     1   110.1900474 564.840000
  10058  10080  10064     1   112.4800480 524.673600
  10059  10058  10072     1   111.5100476 526.347200
  10059  10058  10080     1   107.9700462 569.024000
  10059  10062  10063     1   111.5100476 526.347200
  10059  10062  10070     1   110.1900474 564.840000
  10062  10059  10071     1   110.1900474 564.840000
  10062  10063  10064     1   111.5100476 526.347200
  10062  10063  10069     1   110.1900474 564.840000
  10063  10062  10070     1   110.1900474 564.840000
  10063  10064  10068     1   107.9700462 569.024000
  10063  10064  10080     1   107.9700462 569.024000
  10064  10063  10069     1   110.1900474 564.840000
  10068  10064  10080     1   108.2900466 608.353600
  10072  10058  10080     1   107.9700462 569.024000
  10081  10082  10085     1   111.5100476 526.347200
  10081  10082  10094     1   110.1900474 564.840000
  10081  10095  10101     1   110.1900474 564.840000
  10081  10103  10087     1   112.4800480 524.673600
  10082  10085  10086     1   111.5100476 526.347200
  10082  10085  10093     1   110.1900474 564.840000
  10082  10081  10095     1   111.5100476 526.347200
  10082  10081  10103     1   107.9700462 569.024000
  10085  10086  10087     1   111.5100476 526.347200
  10085  10086  10092     1   110.1900474 564.840000
  10085  10082  10094     1   110.1900474 564.840000
  10086  10087  10091     1   107.9700462 569.024000
  10086  10087  10103     1   107.9700462 569.024000
  10086  10085  10093     1   110.1900474 564.840000
  10087  10086  10092     1   110.1900474 564.840000
  10091  10087  10103     1   108.2900466 608.353600
  10095  10081  10103     1   107.9700462 569.024000
  10104  10105  10108     1   111.5100476 526.347200
  10104  10105  10117     1   110.1900474 564.840000
  10104  10118  10124     1   110.1900474 564.840000
  10104  10126  10110     1   112.4800480 524.673600
  10105  10104  10118     1   111.5100476 526.347200
  10105  10104  10126     1   107.9700462 569.024000
  10105  10108  10109     1   111.5100476 526.347200
  10105  10108  10116     1   110.1900474 564.840000
  10108  10105  10117     1   110.1900474 564.840000
  10108  10109  10110     1   111.5100476 526.347200
  10108  10109  10115     1   110.1900474 564.840000
  10109  10108  10116     1   110.1900474 564.840000
  10109  10110  10114     1   107.9700462 569.024000
  10109  10110  10126     1   107.9700462 569.024000
  10110  10109  10115     1   110.1900474 564.840000
  10114  10110  10126     1   108.2900466 608.353600
  10118  10104  10126     1   107.9700462 569.024000
  10127  10128  10131     1   111.5100476 526.347200
  10127  10128  10140     1   110.1900474 564.840000
  10127  10141  10147     1   110.1900474 564.840000
  10127  10149  10133     1   112.4800480 524.673600
  10128  10131  10132     1   111.5100476 526.347200
  10128  10131  10139     1   110.1900474 564.840000
  10128  10127  10141     1   111.5100476 526.347200
  10128  10127  10149     1   107.9700462 569.024000
  10131  10132  10133     1   111.5100476 526.347200
  10131  10132  10138     1   110.1900474 564.840000
  10131  10128  10140     1   110.1900474 564.840000
  10132  10133  10137     1   107.9700462 569.024000
  10132  10133  10149     1   107.9700462 569.024000
  10132  10131  10139     1   110.1900474 564.840000
  10133  10132  10138     1   110.1900474 564.840000
  10137  10133  10149     1   108.2900466 608.353600
  10141  10127  10149     1   107.9700462 569.024000
  10150  10151  10154     1   111.5100476 526.347200
  10150  10151  10163     1   110.1900474 564.840000
  10150  10164  10170     1   110.1900474 564.840000
  10150  10172  10156     1   112.4800480 524.673600
  10151  10150  10164     1   111.5100476 526.347200
  10151  10150  10172     1   107.9700462 569.024000
  10151  10154  10155     1   111.5100476 526.347200
  10151  10154  10162     1   110.1900474 564.840000
  10154  10151  10163     1   110.1900474 564.840000
  10154  10155  10156     1   111.5100476 526.347200
  10154  10155  10161     1   110.1900474 564.840000
  10155  10154  10162     1   110.1900474 564.840000
  10155  10156  10160     1   107.9700462 569.024000
  10155  10156  10172     1   107.9700462 569.024000
  10156  10155  10161     1   110.1900474 564.840000
  10160  10156  10172     1   108.2900466 608.353600
  10164  10150  10172     1   107.9700462 569.024000
  10173  10174  10177     1   111.5100476 526.347200
  10173  10174  10186     1   110.1900474 564.840000
  10173  10187  10193     1   110.1900474 564.840000
  10173  10195  10179     1   112.4800480 524.673600
  10174  10177  10178     1   111.5100476 526.347200
  10174  10177  10185     1   110.1900474 564.840000
  10174  10173  10187     1   111.5100476 526.347200
  10174  10173  10195     1   107.9700462 569.024000
  10177  10178  10179     1   111.5100476 526.347200
  10177  10178  10184     1   110.1900474 564.840000
  10177  10174  10186     1   110.1900474 564.840000
  10178  10179  10183     1   107.9700462 569.024000
  10178  10179  10195     1   107.9700462 569.024000
  10178  10177  10185     1   110.1900474 564.840000
  10179  10178  10184     1   110.1900474 564.840000
  10183  10179  10195     1   108.2900466 608.353600
  10187  10173  10195     1   107.9700462 569.024000
  10196  10197  10200     1   111.5100476 526.347200
  10196  10197  10209     1   110.1900474 564.840000
  10196  10210  10216     1   110.1900474 564.840000
  10196  10218  10202     1   112.4800480 524.673600
  10197  10196  10210     1   111.5100476 526.347200
  10197  10196  10218     1   107.9700462 569.024000
  10197  10200  10201     1   111.5100476 526.347200
  10197  10200  10208     1   110.1900474 564.840000
  10200  10197  10209     1   110.1900474 564.840000
  10200  10201  10202     1   111.5100476 526.347200
  10200  10201  10207     1   110.1900474 564.840000
  10201  10200  10208     1   110.1900474 564.840000
  10201  10202  10206     1   107.9700462 569.024000
  10201  10202  10218     1   107.9700462 569.024000
  10202  10201  10207     1   110.1900474 564.840000
  10206  10202  10218     1   108.2900466 608.353600
  10210  10196  10218     1   107.9700462 569.024000
  10219  10220  10223     1   111.5100476 526.347200
  10219  10220  10232     1   110.1900474 564.840000
  10219  10233  10239     1   110.1900474 564.840000
  10219  10241  10225     1   112.4800480 524.673600
  10220  10223  10224     1   111.5100476 526.347200
  10220  10223  10231     1   110.1900474 564.840000
  10220  10219  10233     1   111.5100476 526.347200
  10220  10219  10241     1   107.9700462 569.024000
  10223  10224  10225     1   111.5100476 526.347200
  10223  10224  10230     1   110.1900474 564.840000
  10223  10220  10232     1   110.1900474 564.840000
  10224  10225  10229     1   107.9700462 569.024000
  10224  10225  10241     1   107.9700462 569.024000
  10224  10223  10231     1   110.1900474 564.840000
  10225  10224  10230     1   110.1900474 564.840000
  10229  10225  10241     1   108.2900466 608.353600
  10233  10219  10241     1   107.9700462 569.024000
  10242  10243  10246     1   111.5100476 526.347200
  10242  10243  10255     1   110.1900474 564.840000
  10242  10256  10262     1   110.1900474 564.840000
  10242  10264  10248     1   112.4800480 524.673600
  10243  10242  10256     1   111.5100476 526.347200
  10243  10242  10264     1   107.9700462 569.024000
  10243  10246  10247     1   111.5100476 526.347200
  10243  10246  10254     1   110.1900474 564.840000
  10246  10243  10255     1   110.1900474 564.840000
  10246  10247  10248     1   111.5100476 526.347200
  10246  10247  10253     1   110.1900474 564.840000
  10247  10246  10254     1   110.1900474 564.840000
  10247  10248  10252     1   107.9700462 569.024000
  10247  10248  10264     1   107.9700462 569.024000
  10248  10247  10253     1   110.1900474 564.840000
  10252  10248  10264     1   108.2900466 608.353600
  10256  10242  10264     1   107.9700462 569.024000
  10265  10266  10269     1   111.5100476 526.347200
  10265  10266  10278     1   110.1900474 564.840000
  10265  10279  10285     1   110.1900474 564.840000
  10265  10287  10271     1   112.4800480 524.673600
  10266  10269  10270     1   111.5100476 526.347200
  10266  10269  10277     1   110.1900474 564.840000
  10266  10265  10279     1   111.5100476 526.347200
  10266  10265  10287     1   107.9700462 569.024000
  10269  10270  10271     1   111.5100476 526.347200
  10269  10270  10276     1   110.1900474 564.840000
  10269  10266  10278     1   110.1900474 564.840000
  10270  10271  10275     1   107.9700462 569.024000
  10270  10271  10287     1   107.9700462 569.024000
  10270  10269  10277     1   110.1900474 564.840000
  10271  10270  10276     1   110.1900474 564.840000
  10275  10271  10287     1   108.2900466 608.353600
  10279  10265  10287     1   107.9700462 569.024000
  10288  10289  10292     1   111.5100476 526.347200
  10288  10289  10301     1   110.1900474 564.840000
  10288  10302  10308     1   110.1900474 564.840000
  10288  10310  10294     1   112.4800480 524.673600
  10289  10288  10302     1   111.5100476 526.347200
  10289  10288  10310     1   107.9700462 569.024000
  10289  10292  10293     1   111.5100476 526.347200
  10289  10292  10300     1   110.1900474 564.840000
  10292  10289  10301     1   110.1900474 564.840000
  10292  10293  10294     1   111.5100476 526.347200
  10292  10293  10299     1   110.1900474 564.840000
  10293  10292  10300     1   110.1900474 564.840000
  10293  10294  10298     1   107.9700462 569.024000
  10293  10294  10310     1   107.9700462 569.024000
  10294  10293  10299     1   110.1900474 564.840000
  10298  10294  10310     1   108.2900466 608.353600
  10302  10288  10310     1   107.9700462 569.024000
  10311  10312  10315     1   111.5100476 526.347200
  10311  10312  10324     1   110.1900474 564.840000
  10311  10325  10331     1   110.1900474 564.840000
  10311  10333  10317     1   112.4800480 524.673600
  10312  10315  10316     1   111.5100476 526.347200
  10312  10315  10323     1   110.1900474 564.840000
  10312  10311  10325     1   111.5100476 526.347200
  10312  10311  10333     1   107.9700462 569.024000
  10315  10316  10317     1   111.5100476 526.347200
  10315  10316  10322     1   110.1900474 564.840000
  10315  10312  10324     1   110.1900474 564.840000
  10316  10317  10321     1   107.9700462 569.024000
  10316  10317  10333     1   107.9700462 569.024000
  10316  10315  10323     1   110.1900474 564.840000
  10317  10316  10322     1   110.1900474 564.840000
  10321  10317  10333     1   108.2900466 608.353600
  10325  10311  10333     1   107.9700462 569.024000
  10334  10335  10338     1   111.5100476 526.347200
  10334  10335  10347     1   110.1900474 564.840000
  10334  10348  10354     1   110.1900474 564.840000
  10334  10356  10340     1   112.4800480 524.673600
  10335  10334  10348     1   111.5100476 526.347200
  10335  10334  10356     1   107.9700462 569.024000
  10335  10338  10339     1   111.5100476 526.347200
  10335  10338  10346     1   110.1900474 564.840000
  10338  10335  10347     1   110.1900474 564.840000
  10338  10339  10340     1   111.5100476 526.347200
  10338  10339  10345     1   110.1900474 564.840000
  10339  10338  10346     1   110.1900474 564.840000
  10339  10340  10344     1   107.9700462 569.024000
  10339  10340  10356     1   107.9700462 569.024000
  10340  10339  10345     1   110.1900474 564.840000
  10344  10340  10356     1   108.2900466 608.353600
  10348  10334  10356     1   107.9700462 569.024000
  10357  10358  10361     1   111.5100476 526.347200
  10357  10358  10370     1   110.1900474 564.840000
  10357  10371  10377     1   110.1900474 564.840000
  10357  10379  10363     1   112.4800480 524.673600
  10358  10361  10362     1   111.5100476 526.347200
  10358  10361  10369     1   110.1900474 564.840000
  10358  10357  10371     1   111.5100476 526.347200
  10358  10357  10379     1   107.9700462 569.024000
  10361  10362  10363     1   111.5100476 526.347200
  10361  10362  10368     1   110.1900474 564.840000
  10361  10358  10370     1   110.1900474 564.840000
  10362  10363  10367     1   107.9700462 569.024000
  10362  10363  10379     1   107.9700462 569.024000
  10362  10361  10369     1   110.1900474 564.840000
  10363  10362  10368     1   110.1900474 564.840000
  10367  10363  10379     1   108.2900466 608.353600
  10371  10357  10379     1   107.9700462 569.024000
  10380  10381  10384     1   111.5100476 526.347200
  10380  10381  10393     1   110.1900474 564.840000
  10380  10394  10400     1   110.1900474 564.840000
  10380  10402  10386     1   112.4800480 524.673600
  10381  10380  10394     1   111.5100476 526.347200
  10381  10380  10402     1   107.9700462 569.024000
  10381  10384  10385     1   111.5100476 526.347200
  10381  10384  10392     1   110.1900474 564.840000
  10384  10381  10393     1   110.1900474 564.840000
  10384  10385  10386     1   111.5100476 526.347200
  10384  10385  10391     1   110.1900474 564.840000
  10385  10384  10392     1   110.1900474 564.840000
  10385  10386  10390     1   107.9700462 569.024000
  10385  10386  10402     1   107.9700462 569.024000
  10386  10385  10391     1   110.1900474 564.840000
  10390  10386  10402     1   108.2900466 608.353600
  10394  10380  10402     1   107.9700462 569.024000
  10403  10404  10407     1   111.5100476 526.347200
  10403  10404  10416     1   110.1900474 564.840000
  10403  10417  10423     1   110.1900474 564.840000
  10403  10425  10409     1   112.4800480 524.673600
  10404  10407  10408     1   111.5100476 526.347200
  10404  10407  10415     1   110.1900474 564.840000
  10404  10403  10417     1   111.5100476 526.347200
  10404  10403  10425     1   107.9700462 569.024000
  10407  10408  10409     1   111.5100476 526.347200
  10407  10408  10414     1   110.1900474 564.840000
  10407  10404  10416     1   110.1900474 564.840000
  10408  10409  10413     1   107.9700462 569.024000
  10408  10409  10425     1   107.9700462 569.024000
  10408  10407  10415     1   110.1900474 564.840000
  10409  10408  10414     1   110.1900474 564.840000
  10413  10409  10425     1   108.2900466 608.353600
  10417  10403  10425     1   107.9700462 569.024000
  10426  10427  10430     1   111.5100476 526.347200
  10426  10427  10439     1   110.1900474 564.840000
  10426  10440  10446     1   110.1900474 564.840000
  10426  10448  10432     1   112.4800480 524.673600
  10427  10426  10440     1   111.5100476 526.347200
  10427  10426  10448     1   107.9700462 569.024000
  10427  10430  10431     1   111.5100476 526.347200
  10427  10430  10438     1   110.1900474 564.840000
  10430  10427  10439     1   110.1900474 564.840000
  10430  10431  10432     1   111.5100476 526.347200
  10430  10431  10437     1   110.1900474 564.840000
  10431  10430  10438     1   110.1900474 564.840000
  10431  10432  10436     1   107.9700462 569.024000
  10431  10432  10448     1   107.9700462 569.024000
  10432  10431  10437     1   110.1900474 564.840000
  10436  10432  10448     1   108.2900466 608.353600
  10440  10426  10448     1   107.9700462 569.024000
  10449  10450  10453     1   111.5100476 526.347200
  10449  10450  10462     1   110.1900474 564.840000
  10449  10463  10469     1   110.1900474 564.840000
  10449  10471  10455     1   112.4800480 524.673600
  10450  10453  10454     1   111.5100476 526.347200
  10450  10453  10461     1   110.1900474 564.840000
  10450  10449  10463     1   111.5100476 526.347200
  10450  10449  10471     1   107.9700462 569.024000
  10453  10454  10455     1   111.5100476 526.347200
  10453  10454  10460     1   110.1900474 564.840000
  10453  10450  10462     1   110.1900474 564.840000
  10454  10455  10459     1   107.9700462 569.024000
  10454  10455  10471     1   107.9700462 569.024000
  10454  10453  10461     1   110.1900474 564.840000
  10455  10454  10460     1   110.1900474 564.840000
  10459  10455  10471     1   108.2900466 608.353600
  10463  10449  10471     1   107.9700462 569.024000
  10472  10473  10476     1   111.5100476 526.347200
  10472  10473  10485     1   110.1900474 564.840000
  10472  10486  10492     1   110.1900474 564.840000
  10472  10494  10478     1   112.4800480 524.673600
  10473  10472  10486     1   111.5100476 526.347200
  10473  10472  10494     1   107.9700462 569.024000
  10473  10476  10477     1   111.5100476 526.347200
  10473  10476  10484     1   110.1900474 564.840000
  10476  10473  10485     1   110.1900474 564.840000
  10476  10477  10478     1   111.5100476 526.347200
  10476  10477  10483     1   110.1900474 564.840000
  10477  10476  10484     1   110.1900474 564.840000
  10477  10478  10482     1   107.9700462 569.024000
  10477  10478  10494     1   107.9700462 569.024000
  10478  10477  10483     1   110.1900474 564.840000
  10482  10478  10494     1   108.2900466 608.353600
  10486  10472  10494     1   107.9700462 569.024000
  10495  10496  10499     1   111.5100476 526.347200
  10495  10496  10508     1   110.1900474 564.840000
  10495  10509  10515     1   110.1900474 564.840000
  10495  10517  10501     1   112.4800480 524.673600
  10496  10499  10500     1   111.5100476 526.347200
  10496  10499  10507     1   110.1900474 564.840000
  10496  10495  10509     1   111.5100476 526.347200
  10496  10495  10517     1   107.9700462 569.024000
  10499  10500  10501     1   111.5100476 526.347200
  10499  10500  10506     1   110.1900474 564.840000
  10499  10496  10508     1   110.1900474 564.840000
  10500  10501  10505     1   107.9700462 569.024000
  10500  10501  10517     1   107.9700462 569.024000
  10500  10499  10507     1   110.1900474 564.840000
  10501  10500  10506     1   110.1900474 564.840000
  10505  10501  10517     1   108.2900466 608.353600
  10509  10495  10517     1   107.9700462 569.024000
  10518  10519  10522     1   111.5100476 526.347200
  10518  10519  10531     1   110.1900474 564.840000
  10518  10532  10538     1   110.1900474 564.840000
  10518  10540  10524     1   112.4800480 524.673600
  10519  10518  10532     1   111.5100476 526.347200
  10519  10518  10540     1   107.9700462 569.024000
  10519  10522  10523     1   111.5100476 526.347200
  10519  10522  10530     1   110.1900474 564.840000
  10522  10519  10531     1   110.1900474 564.840000
  10522  10523  10524     1   111.5100476 526.347200
  10522  10523  10529     1   110.1900474 564.840000
  10523  10522  10530     1   110.1900474 564.840000
  10523  10524  10528     1   107.9700462 569.024000
  10523  10524  10540     1   107.9700462 569.024000
  10524  10523  10529     1   110.1900474 564.840000
  10528  10524  10540     1   108.2900466 608.353600
  10532  10518  10540     1   107.9700462 569.024000
  10541  10542  10545     1   111.5100476 526.347200
  10541  10542  10554     1   110.1900474 564.840000
  10541  10555  10561     1   110.1900474 564.840000
  10541  10563  10547     1   112.4800480 524.673600
  10542  10545  10546     1   111.5100476 526.347200
  10542  10545  10553     1   110.1900474 564.840000
  10542  10541  10555     1   111.5100476 526.347200
  10542  10541  10563     1   107.9700462 569.024000
  10545  10546  10547     1   111.5100476 526.347200
  10545  10546  10552     1   110.1900474 564.840000
  10545  10542  10554     1   110.1900474 564.840000
  10546  10547  10551     1   107.9700462 569.024000
  10546  10547  10563     1   107.9700462 569.024000
  10546  10545  10553     1   110.1900474 564.840000
  10547  10546  10552     1   110.1900474 564.840000
  10551  10547  10563     1   108.2900466 608.353600
  10555  10541  10563     1   107.9700462 569.024000
  10564  10565  10568     1   111.5100476 526.347200
  10564  10565  10577     1   110.1900474 564.840000
  10564  10578  10584     1   110.1900474 564.840000
  10564  10586  10570     1   112.4800480 524.673600
  10565  10564  10578     1   111.5100476 526.347200
  10565  10564  10586     1   107.9700462 569.024000
  10565  10568  10569     1   111.5100476 526.347200
  10565  10568  10576     1   110.1900474 564.840000
  10568  10565  10577     1   110.1900474 564.840000
  10568  10569  10570     1   111.5100476 526.347200
  10568  10569  10575     1   110.1900474 564.840000
  10569  10568  10576     1   110.1900474 564.840000
  10569  10570  10574     1   107.9700462 569.024000
  10569  10570  10586     1   107.9700462 569.024000
  10570  10569  10575     1   110.1900474 564.840000
  10574  10570  10586     1   108.2900466 608.353600
  10578  10564  10586     1   107.9700462 569.024000
  10587  10588  10591     1   111.5100476 526.347200
  10587  10588  10600     1   110.1900474 564.840000
  10587  10601  10607     1   110.1900474 564.840000
  10587  10609  10593     1   112.4800480 524.673600
  10588  10591  10592     1   111.5100476 526.347200
  10588  10591  10599     1   110.1900474 564.840000
  10588  10587  10601     1   111.5100476 526.347200
  10588  10587  10609     1   107.9700462 569.024000
  10591  10592  10593     1   111.5100476 526.347200
  10591  10592  10598     1   110.1900474 564.840000
  10591  10588  10600     1   110.1900474 564.840000
  10592  10593  10597     1   107.9700462 569.024000
  10592  10593  10609     1   107.9700462 569.024000
  10592  10591  10599     1   110.1900474 564.840000
  10593  10592  10598     1   110.1900474 564.840000
  10597  10593  10609     1   108.2900466 608.353600
  10601  10587  10609     1   107.9700462 569.024000
  10610  10611  10614     1   111.5100476 526.347200
  10610  10611  10623     1   110.1900474 564.840000
  10610  10624  10630     1   110.1900474 564.840000
  10610  10632  10616     1   112.4800480 524.673600
  10611  10610  10624     1   111.5100476 526.347200
  10611  10610  10632     1   107.9700462 569.024000
  10611  10614  10615     1   111.5100476 526.347200
  10611  10614  10622     1   110.1900474 564.840000
  10614  10611  10623     1   110.1900474 564.840000
  10614  10615  10616     1   111.5100476 526.347200
  10614  10615  10621     1   110.1900474 564.840000
  10615  10614  10622     1   110.1900474 564.840000
  10615  10616  10620     1   107.9700462 569.024000
  10615  10616  10632     1   107.9700462 569.024000
  10616  10615  10621     1   110.1900474 564.840000
  10620  10616  10632     1   108.2900466 608.353600
  10624  10610  10632     1   107.9700462 569.024000
  10633  10634  10637     1   111.5100476 526.347200
  10633  10634  10646     1   110.1900474 564.840000
  10633  10647  10653     1   110.1900474 564.840000
  10633  10655  10639     1   112.4800480 524.673600
  10634  10637  10638     1   111.5100476 526.347200
  10634  10637  10645     1   110.1900474 564.840000
  10634  10633  10647     1   111.5100476 526.347200
  10634  10633  10655     1   107.9700462 569.024000
  10637  10638  10639     1   111.5100476 526.347200
  10637  10638  10644     1   110.1900474 564.840000
  10637  10634  10646     1   110.1900474 564.840000
  10638  10639  10643     1   107.9700462 569.024000
  10638  10639  10655     1   107.9700462 569.024000
  10638  10637  10645     1   110.1900474 564.840000
  10639  10638  10644     1   110.1900474 564.840000
  10643  10639  10655     1   108.2900466 608.353600
  10647  10633  10655     1   107.9700462 569.024000
  10656  10657  10660     1   111.5100476 526.347200
  10656  10657  10669     1   110.1900474 564.840000
  10656  10670  10676     1   110.1900474 564.840000
  10656  10678  10662     1   112.4800480 524.673600
  10657  10656  10670     1   111.5100476 526.347200
  10657  10656  10678     1   107.9700462 569.024000
  10657  10660  10661     1   111.5100476 526.347200
  10657  10660  10668     1   110.1900474 564.840000
  10660  10657  10669     1   110.1900474 564.840000
  10660  10661  10662     1   111.5100476 526.347200
  10660  10661  10667     1   110.1900474 564.840000
  10661  10660  10668     1   110.1900474 564.840000
  10661  10662  10666     1   107.9700462 569.024000
  10661  10662  10678     1   107.9700462 569.024000
  10662  10661  10667     1   110.1900474 564.840000
  10666  10662  10678     1   108.2900466 608.353600
  10670  10656  10678     1   107.9700462 569.024000
  10679  10680  10683     1   111.5100476 526.347200
  10679  10680  10692     1   110.1900474 564.840000
  10679  10693  10699     1   110.1900474 564.840000
  10679  10701  10685     1   112.4800480 524.673600
  10680  10683  10684     1   111.5100476 526.347200
  10680  10683  10691     1   110.1900474 564.840000
  10680  10679  10693     1   111.5100476 526.347200
  10680  10679  10701     1   107.9700462 569.024000
  10683  10684  10685     1   111.5100476 526.347200
  10683  10684  10690     1   110.1900474 564.840000
  10683  10680  10692     1   110.1900474 564.840000
  10684  10685  10689     1   107.9700462 569.024000
  10684  10685  10701     1   107.9700462 569.024000
  10684  10683  10691     1   110.1900474 564.840000
  10685  10684  10690     1   110.1900474 564.840000
  10689  10685  10701     1   108.2900466 608.353600
  10693  10679  10701     1   107.9700462 569.024000
  10702  10703  10706     1   111.5100476 526.347200
  10702  10703  10715     1   110.1900474 564.840000
  10702  10716  10722     1   110.1900474 564.840000
  10702  10724  10708     1   112.4800480 524.673600
  10703  10702  10716     1   111.5100476 526.347200
  10703  10702  10724     1   107.9700462 569.024000
  10703  10706  10707     1   111.5100476 526.347200
  10703  10706  10714     1   110.1900474 564.840000
  10706  10703  10715     1   110.1900474 564.840000
  10706  10707  10708     1   111.5100476 526.347200
  10706  10707  10713     1   110.1900474 564.840000
  10707  10706  10714     1   110.1900474 564.840000
  10707  10708  10712     1   107.9700462 569.024000
  10707  10708  10724     1   107.9700462 569.024000
  10708  10707  10713     1   110.1900474 564.840000
  10712  10708  10724     1   108.2900466 608.353600
  10716  10702  10724     1   107.9700462 569.024000
  10725  10726  10729     1   111.5100476 526.347200
  10725  10726  10738     1   110.1900474 564.840000
  10725  10739  10745     1   110.1900474 564.840000
  10725  10747  10731     1   112.4800480 524.673600
  10726  10729  10730     1   111.5100476 526.347200
  10726  10729  10737     1   110.1900474 564.840000
  10726  10725  10739     1   111.5100476 526.347200
  10726  10725  10747     1   107.9700462 569.024000
  10729  10730  10731     1   111.5100476 526.347200
  10729  10730  10736     1   110.1900474 564.840000
  10729  10726  10738     1   110.1900474 564.840000
  10730  10731  10735     1   107.9700462 569.024000
  10730  10731  10747     1   107.9700462 569.024000
  10730  10729  10737     1   110.1900474 564.840000
  10731  10730  10736     1   110.1900474 564.840000
  10735  10731  10747     1   108.2900466 608.353600
  10739  10725  10747     1   107.9700462 569.024000
  10748  10749  10752     1   111.5100476 526.347200
  10748  10749  10761     1   110.1900474 564.840000
  10748  10762  10768     1   110.1900474 564.840000
  10748  10770  10754     1   112.4800480 524.673600
  10749  10748  10762     1   111.5100476 526.347200
  10749  10748  10770     1   107.9700462 569.024000
  10749  10752  10753     1   111.5100476 526.347200
  10749  10752  10760     1   110.1900474 564.840000
  10752  10749  10761     1   110.1900474 564.840000
  10752  10753  10754     1   111.5100476 526.347200
  10752  10753  10759     1   110.1900474 564.840000
  10753  10752  10760     1   110.1900474 564.840000
  10753  10754  10758     1   107.9700462 569.024000
  10753  10754  10770     1   107.9700462 569.024000
  10754  10753  10759     1   110.1900474 564.840000
  10758  10754  10770     1   108.2900466 608.353600
  10762  10748  10770     1   107.9700462 569.024000
  10771  10772  10775     1   111.5100476 526.347200
  10771  10772  10784     1   110.1900474 564.840000
  10771  10785  10791     1   110.1900474 564.840000
  10771  10793  10777     1   112.4800480 524.673600
  10772  10775  10776     1   111.5100476 526.347200
  10772  10775  10783     1   110.1900474 564.840000
  10772  10771  10785     1   111.5100476 526.347200
  10772  10771  10793     1   107.9700462 569.024000
  10775  10776  10777     1   111.5100476 526.347200
  10775  10776  10782     1   110.1900474 564.840000
  10775  10772  10784     1   110.1900474 564.840000
  10776  10777  10781     1   107.9700462 569.024000
  10776  10777  10793     1   107.9700462 569.024000
  10776  10775  10783     1   110.1900474 564.840000
  10777  10776  10782     1   110.1900474 564.840000
  10781  10777  10793     1   108.2900466 608.353600
  10785  10771  10793     1   107.9700462 569.024000
  10794  10795  10798     1   111.5100476 526.347200
  10794  10795  10807     1   110.1900474 564.840000
  10794  10808  10814     1   110.1900474 564.840000
  10794  10816  10800     1   112.4800480 524.673600
  10795  10794  10808     1   111.5100476 526.347200
  10795  10794  10816     1   107.9700462 569.024000
  10795  10798  10799     1   111.5100476 526.347200
  10795  10798  10806     1   110.1900474 564.840000
  10798  10795  10807     1   110.1900474 564.840000
  10798  10799  10800     1   111.5100476 526.347200
  10798  10799  10805     1   110.1900474 564.840000
  10799  10798  10806     1   110.1900474 564.840000
  10799  10800  10804     1   107.9700462 569.024000
  10799  10800  10816     1   107.9700462 569.024000
  10800  10799  10805     1   110.1900474 564.840000
  10804  10800  10816     1   108.2900466 608.353600
  10808  10794  10816     1   107.9700462 569.024000
  10817  10818  10821     1   111.5100476 526.347200
  10817  10818  10830     1   110.1900474 564.840000
  10817  10831  10837     1   110.1900474 564.840000
  10817  10839  10823     1   112.4800480 524.673600
  10818  10821  10822     1   111.5100476 526.347200
  10818  10821  10829     1   110.1900474 564.840000
  10818  10817  10831     1   111.5100476 526.347200
  10818  10817  10839     1   107.9700462 569.024000
  10821  10822  10823     1   111.5100476 526.347200
  10821  10822  10828     1   110.1900474 564.840000
  10821  10818  10830     1   110.1900474 564.840000
  10822  10823  10827     1   107.9700462 569.024000
  10822  10823  10839     1   107.9700462 569.024000
  10822  10821  10829     1   110.1900474 564.840000
  10823  10822  10828     1   110.1900474 564.840000
  10827  10823  10839     1   108.2900466 608.353600
  10831  10817  10839     1   107.9700462 569.024000
  10840  10841  10844     1   111.5100476 526.347200
  10840  10841  10853     1   110.1900474 564.840000
  10840  10854  10860     1   110.1900474 564.840000
  10840  10862  10846     1   112.4800480 524.673600
  10841  10840  10854     1   111.5100476 526.347200
  10841  10840  10862     1   107.9700462 569.024000
  10841  10844  10845     1   111.5100476 526.347200
  10841  10844  10852     1   110.1900474 564.840000
  10844  10841  10853     1   110.1900474 564.840000
  10844  10845  10846     1   111.5100476 526.347200
  10844  10845  10851     1   110.1900474 564.840000
  10845  10844  10852     1   110.1900474 564.840000
  10845  10846  10850     1   107.9700462 569.024000
  10845  10846  10862     1   107.9700462 569.024000
  10846  10845  10851     1   110.1900474 564.840000
  10850  10846  10862     1   108.2900466 608.353600
  10854  10840  10862     1   107.9700462 569.024000
  10863  10864  10867     1   111.5100476 526.347200
  10863  10864  10876     1   110.1900474 564.840000
  10863  10877  10883     1   110.1900474 564.840000
  10863  10885  10869     1   112.4800480 524.673600
  10864  10867  10868     1   111.5100476 526.347200
  10864  10867  10875     1   110.1900474 564.840000
  10864  10863  10877     1   111.5100476 526.347200
  10864  10863  10885     1   107.9700462 569.024000
  10867  10868  10869     1   111.5100476 526.347200
  10867  10868  10874     1   110.1900474 564.840000
  10867  10864  10876     1   110.1900474 564.840000
  10868  10869  10873     1   107.9700462 569.024000
  10868  10869  10885     1   107.9700462 569.024000
  10868  10867  10875     1   110.1900474 564.840000
  10869  10868  10874     1   110.1900474 564.840000
  10873  10869  10885     1   108.2900466 608.353600
  10877  10863  10885     1   107.9700462 569.024000
  10886  10887  10890     1   111.5100476 526.347200
  10886  10887  10899     1   110.1900474 564.840000
  10886  10900  10906     1   110.1900474 564.840000
  10886  10908  10892     1   112.4800480 524.673600
  10887  10886  10900     1   111.5100476 526.347200
  10887  10886  10908     1   107.9700462 569.024000
  10887  10890  10891     1   111.5100476 526.347200
  10887  10890  10898     1   110.1900474 564.840000
  10890  10887  10899     1   110.1900474 564.840000
  10890  10891  10892     1   111.5100476 526.347200
  10890  10891  10897     1   110.1900474 564.840000
  10891  10890  10898     1   110.1900474 564.840000
  10891  10892  10896     1   107.9700462 569.024000
  10891  10892  10908     1   107.9700462 569.024000
  10892  10891  10897     1   110.1900474 564.840000
  10896  10892  10908     1   108.2900466 608.353600
  10900  10886  10908     1   107.9700462 569.024000
  10909  10910  10913     1   111.5100476 526.347200
  10909  10910  10922     1   110.1900474 564.840000
  10909  10923  10929     1   110.1900474 564.840000
  10909  10931  10915     1   112.4800480 524.673600
  10910  10913  10914     1   111.5100476 526.347200
  10910  10913  10921     1   110.1900474 564.840000
  10910  10909  10923     1   111.5100476 526.347200
  10910  10909  10931     1   107.9700462 569.024000
  10913  10914  10915     1   111.5100476 526.347200
  10913  10914  10920     1   110.1900474 564.840000
  10913  10910  10922     1   110.1900474 564.840000
  10914  10915  10919     1   107.9700462 569.024000
  10914  10915  10931     1   107.9700462 569.024000
  10914  10913  10921     1   110.1900474 564.840000
  10915  10914  10920     1   110.1900474 564.840000
  10919  10915  10931     1   108.2900466 608.353600
  10923  10909  10931     1   107.9700462 569.024000
  10932  10933  10936     1   111.5100476 526.347200
  10932  10933  10945     1   110.1900474 564.840000
  10932  10946  10952     1   110.1900474 564.840000
  10932  10954  10938     1   112.4800480 524.673600
  10933  10932  10946     1   111.5100476 526.347200
  10933  10932  10954     1   107.9700462 569.024000
  10933  10936  10937     1   111.5100476 526.347200
  10933  10936  10944     1   110.1900474 564.840000
  10936  10933  10945     1   110.1900474 564.840000
  10936  10937  10938     1   111.5100476 526.347200
  10936  10937  10943     1   110.1900474 564.840000
  10937  10936  10944     1   110.1900474 564.840000
  10937  10938  10942     1   107.9700462 569.024000
  10937  10938  10954     1   107.9700462 569.024000
  10938  10937  10943     1   110.1900474 564.840000
  10942  10938  10954     1   108.2900466 608.353600
  10946  10932  10954     1   107.9700462 569.024000
  10955  10956  10959     1   111.5100476 526.347200
  10955  10956  10968     1   110.1900474 564.840000
  10955  10969  10975     1   110.1900474 564.840000
  10955  10977  10961     1   112.4800480 524.673600
  10956  10959  10960     1   111.5100476 526.347200
  10956  10959  10967     1   110.1900474 564.840000
  10956  10955  10969     1   111.5100476 526.347200
  10956  10955  10977     1   107.9700462 569.024000
  10959  10960  10961     1   111.5100476 526.347200
  10959  10960  10966     1   110.1900474 564.840000
  10959  10956  10968     1   110.1900474 564.840000
  10960  10961  10965     1   107.9700462 569.024000
  10960  10961  10977     1   107.9700462 569.024000
  10960  10959  10967     1   110.1900474 564.840000
  10961  10960  10966     1   110.1900474 564.840000
  10965  10961  10977     1   108.2900466 608.353600
  10969  10955  10977     1   107.9700462 569.024000
  10978  10979  10982     1   111.5100476 526.347200
  10978  10979  10991     1   110.1900474 564.840000
  10978  10992  10998     1   110.1900474 564.840000
  10978  11000  10984     1   112.4800480 524.673600
  10979  10978  10992     1   111.5100476 526.347200
  10979  10978  11000     1   107.9700462 569.024000
  10979  10982  10983     1   111.5100476 526.347200
  10979  10982  10990     1   110.1900474 564.840000
  10982  10979  10991     1   110.1900474 564.840000
  10982  10983  10984     1   111.5100476 526.347200
  10982  10983  10989     1   110.1900474 564.840000
  10983  10982  10990     1   110.1900474 564.840000
  10983  10984  10988     1   107.9700462 569.024000
  10983  10984  11000     1   107.9700462 569.024000
  10984  10983  10989     1   110.1900474 564.840000
  10988  10984  11000     1   108.2900466 608.353600
  10992  10978  11000     1   107.9700462 569.024000
  11001  11002  11005     1   111.5100476 526.347200
  11001  11002  11014     1   110.1900474 564.840000
  11001  11015  11021     1   110.1900474 564.840000
  11001  11023  11007     1   112.4800480 524.673600
  11002  11005  11006     1   111.5100476 526.347200
  11002  11005  11013     1   110.1900474 564.840000
  11002  11001  11015     1   111.5100476 526.347200
  11002  11001  11023     1   107.9700462 569.024000
  11005  11006  11007     1   111.5100476 526.347200
  11005  11006  11012     1   110.1900474 564.840000
  11005  11002  11014     1   110.1900474 564.840000
  11006  11007  11011     1   107.9700462 569.024000
  11006  11007  11023     1   107.9700462 569.024000
  11006  11005  11013     1   110.1900474 564.840000
  11007  11006  11012     1   110.1900474 564.840000
  11011  11007  11023     1   108.2900466 608.353600
  11015  11001  11023     1   107.9700462 569.024000
  11024  11025  11028     1   111.5100476 526.347200
  11024  11025  11037     1   110.1900474 564.840000
  11024  11038  11044     1   110.1900474 564.840000
  11024  11046  11030     1   112.4800480 524.673600
  11025  11024  11038     1   111.5100476 526.347200
  11025  11024  11046     1   107.9700462 569.024000
  11025  11028  11029     1   111.5100476 526.347200
  11025  11028  11036     1   110.1900474 564.840000
  11028  11025  11037     1   110.1900474 564.840000
  11028  11029  11030     1   111.5100476 526.347200
  11028  11029  11035     1   110.1900474 564.840000
  11029  11028  11036     1   110.1900474 564.840000
  11029  11030  11034     1   107.9700462 569.024000
  11029  11030  11046     1   107.9700462 569.024000
  11030  11029  11035     1   110.1900474 564.840000
  11034  11030  11046     1   108.2900466 608.353600
  11038  11024  11046     1   107.9700462 569.024000
  11047  11048  11051     1   111.5100476 526.347200
  11047  11048  11060     1   110.1900474 564.840000
  11047  11061  11067     1   110.1900474 564.840000
  11047  11069  11053     1   112.4800480 524.673600
  11048  11051  11052     1   111.5100476 526.347200
  11048  11051  11059     1   110.1900474 564.840000
  11048  11047  11061     1   111.5100476 526.347200
  11048  11047  11069     1   107.9700462 569.024000
  11051  11052  11053     1   111.5100476 526.347200
  11051  11052  11058     1   110.1900474 564.840000
  11051  11048  11060     1   110.1900474 564.840000
  11052  11053  11057     1   107.9700462 569.024000
  11052  11053  11069     1   107.9700462 569.024000
  11052  11051  11059     1   110.1900474 564.840000
  11053  11052  11058     1   110.1900474 564.840000
  11057  11053  11069     1   108.2900466 608.353600
  11061  11047  11069     1   107.9700462 569.024000
  11070  11071  11074     1   111.5100476 526.347200
  11070  11071  11083     1   110.1900474 564.840000
  11070  11084  11090     1   110.1900474 564.840000
  11070  11092  11076     1   112.4800480 524.673600
  11071  11070  11084     1   111.5100476 526.347200
  11071  11070  11092     1   107.9700462 569.024000
  11071  11074  11075     1   111.5100476 526.347200
  11071  11074  11082     1   110.1900474 564.840000
  11074  11071  11083     1   110.1900474 564.840000
  11074  11075  11076     1   111.5100476 526.347200
  11074  11075  11081     1   110.1900474 564.840000
  11075  11074  11082     1   110.1900474 564.840000
  11075  11076  11080     1   107.9700462 569.024000
  11075  11076  11092     1   107.9700462 569.024000
  11076  11075  11081     1   110.1900474 564.840000
  11080  11076  11092     1   108.2900466 608.353600
  11084  11070  11092     1   107.9700462 569.024000
  11093  11094  11097     1   111.5100476 526.347200
  11093  11094  11106     1   110.1900474 564.840000
  11093  11107  11113     1   110.1900474 564.840000
  11093  11115  11099     1   112.4800480 524.673600
  11094  11097  11098     1   111.5100476 526.347200
  11094  11097  11105     1   110.1900474 564.840000
  11094  11093  11107     1   111.5100476 526.347200
  11094  11093  11115     1   107.9700462 569.024000
  11097  11098  11099     1   111.5100476 526.347200
  11097  11098  11104     1   110.1900474 564.840000
  11097  11094  11106     1   110.1900474 564.840000
  11098  11099  11103     1   107.9700462 569.024000
  11098  11099  11115     1   107.9700462 569.024000
  11098  11097  11105     1   110.1900474 564.840000
  11099  11098  11104     1   110.1900474 564.840000
  11103  11099  11115     1   108.2900466 608.353600
  11107  11093  11115     1   107.9700462 569.024000
  11116  11117  11120     1   111.5100476 526.347200
  11116  11117  11129     1   110.1900474 564.840000
  11116  11130  11136     1   110.1900474 564.840000
  11116  11138  11122     1   112.4800480 524.673600
  11117  11116  11130     1   111.5100476 526.347200
  11117  11116  11138     1   107.9700462 569.024000
  11117  11120  11121     1   111.5100476 526.347200
  11117  11120  11128     1   110.1900474 564.840000
  11120  11117  11129     1   110.1900474 564.840000
  11120  11121  11122     1   111.5100476 526.347200
  11120  11121  11127     1   110.1900474 564.840000
  11121  11120  11128     1   110.1900474 564.840000
  11121  11122  11126     1   107.9700462 569.024000
  11121  11122  11138     1   107.9700462 569.024000
  11122  11121  11127     1   110.1900474 564.840000
  11126  11122  11138     1   108.2900466 608.353600
  11130  11116  11138     1   107.9700462 569.024000
  11139  11140  11143     1   111.5100476 526.347200
  11139  11140  11152     1   110.1900474 564.840000
  11139  11153  11159     1   110.1900474 564.840000
  11139  11161  11145     1   112.4800480 524.673600
  11140  11143  11144     1   111.5100476 526.347200
  11140  11143  11151     1   110.1900474 564.840000
  11140  11139  11153     1   111.5100476 526.347200
  11140  11139  11161     1   107.9700462 569.024000
  11143  11144  11145     1   111.5100476 526.347200
  11143  11144  11150     1   110.1900474 564.840000
  11143  11140  11152     1   110.1900474 564.840000
  11144  11145  11149     1   107.9700462 569.024000
  11144  11145  11161     1   107.9700462 569.024000
  11144  11143  11151     1   110.1900474 564.840000
  11145  11144  11150     1   110.1900474 564.840000
  11149  11145  11161     1   108.2900466 608.353600
  11153  11139  11161     1   107.9700462 569.024000
  11162  11163  11166     1   111.5100476 526.347200
  11162  11163  11175     1   110.1900474 564.840000
  11162  11176  11182     1   110.1900474 564.840000
  11162  11184  11168     1   112.4800480 524.673600
  11163  11162  11176     1   111.5100476 526.347200
  11163  11162  11184     1   107.9700462 569.024000
  11163  11166  11167     1   111.5100476 526.347200
  11163  11166  11174     1   110.1900474 564.840000
  11166  11163  11175     1   110.1900474 564.840000
  11166  11167  11168     1   111.5100476 526.347200
  11166  11167  11173     1   110.1900474 564.840000
  11167  11166  11174     1   110.1900474 564.840000
  11167  11168  11172     1   107.9700462 569.024000
  11167  11168  11184     1   107.9700462 569.024000
  11168  11167  11173     1   110.1900474 564.840000
  11172  11168  11184     1   108.2900466 608.353600
  11176  11162  11184     1   107.9700462 569.024000
  11185  11186  11189     1   111.5100476 526.347200
  11185  11186  11198     1   110.1900474 564.840000
  11185  11199  11205     1   110.1900474 564.840000
  11185  11207  11191     1   112.4800480 524.673600
  11186  11189  11190     1   111.5100476 526.347200
  11186  11189  11197     1   110.1900474 564.840000
  11186  11185  11199     1   111.5100476 526.347200
  11186  11185  11207     1   107.9700462 569.024000
  11189  11190  11191     1   111.5100476 526.347200
  11189  11190  11196     1   110.1900474 564.840000
  11189  11186  11198     1   110.1900474 564.840000
  11190  11191  11195     1   107.9700462 569.024000
  11190  11191  11207     1   107.9700462 569.024000
  11190  11189  11197     1   110.1900474 564.840000
  11191  11190  11196     1   110.1900474 564.840000
  11195  11191  11207     1   108.2900466 608.353600
  11199  11185  11207     1   107.9700462 569.024000
  11208  11209  11212     1   111.5100476 526.347200
  11208  11209  11221     1   110.1900474 564.840000
  11208  11222  11228     1   110.1900474 564.840000
  11208  11230  11214     1   112.4800480 524.673600
  11209  11208  11222     1   111.5100476 526.347200
  11209  11208  11230     1   107.9700462 569.024000
  11209  11212  11213     1   111.5100476 526.347200
  11209  11212  11220     1   110.1900474 564.840000
  11212  11209  11221     1   110.1900474 564.840000
  11212  11213  11214     1   111.5100476 526.347200
  11212  11213  11219     1   110.1900474 564.840000
  11213  11212  11220     1   110.1900474 564.840000
  11213  11214  11218     1   107.9700462 569.024000
  11213  11214  11230     1   107.9700462 569.024000
  11214  11213  11219     1   110.1900474 564.840000
  11218  11214  11230     1   108.2900466 608.353600
  11222  11208  11230     1   107.9700462 569.024000
  11231  11232  11235     1   111.5100476 526.347200
  11231  11232  11244     1   110.1900474 564.840000
  11231  11245  11251     1   110.1900474 564.840000
  11231  11253  11237     1   112.4800480 524.673600
  11232  11235  11236     1   111.5100476 526.347200
  11232  11235  11243     1   110.1900474 564.840000
  11232  11231  11245     1   111.5100476 526.347200
  11232  11231  11253     1   107.9700462 569.024000
  11235  11236  11237     1   111.5100476 526.347200
  11235  11236  11242     1   110.1900474 564.840000
  11235  11232  11244     1   110.1900474 564.840000
  11236  11237  11241     1   107.9700462 569.024000
  11236  11237  11253     1   107.9700462 569.024000
  11236  11235  11243     1   110.1900474 564.840000
  11237  11236  11242     1   110.1900474 564.840000
  11241  11237  11253     1   108.2900466 608.353600
  11245  11231  11253     1   107.9700462 569.024000
  11254  11255  11258     1   111.5100476 526.347200
  11254  11255  11267     1   110.1900474 564.840000
  11254  11268  11274     1   110.1900474 564.840000
  11254  11276  11260     1   112.4800480 524.673600
  11255  11254  11268     1   111.5100476 526.347200
  11255  11254  11276     1   107.9700462 569.024000
  11255  11258  11259     1   111.5100476 526.347200
  11255  11258  11266     1   110.1900474 564.840000
  11258  11255  11267     1   110.1900474 564.840000
  11258  11259  11260     1   111.5100476 526.347200
  11258  11259  11265     1   110.1900474 564.840000
  11259  11258  11266     1   110.1900474 564.840000
  11259  11260  11264     1   107.9700462 569.024000
  11259  11260  11276     1   107.9700462 569.024000
  11260  11259  11265     1   110.1900474 564.840000
  11264  11260  11276     1   108.2900466 608.353600
  11268  11254  11276     1   107.9700462 569.024000
  11277  11278  11281     1   111.5100476 526.347200
  11277  11278  11290     1   110.1900474 564.840000
  11277  11291  11297     1   110.1900474 564.840000
  11277  11299  11283     1   112.4800480 524.673600
  11278  11281  11282     1   111.5100476 526.347200
  11278  11281  11289     1   110.1900474 564.840000
  11278  11277  11291     1   111.5100476 526.347200
  11278  11277  11299     1   107.9700462 569.024000
  11281  11282  11283     1   111.5100476 526.347200
  11281  11282  11288     1   110.1900474 564.840000
  11281  11278  11290     1   110.1900474 564.840000
  11282  11283  11287     1   107.9700462 569.024000
  11282  11283  11299     1   107.9700462 569.024000
  11282  11281  11289     1   110.1900474 564.840000
  11283  11282  11288     1   110.1900474 564.840000
  11287  11283  11299     1   108.2900466 608.353600
  11291  11277  11299     1   107.9700462 569.024000
  11300  11301  11304     1   111.5100476 526.347200
  11300  11301  11313     1   110.1900474 564.840000
  11300  11314  11320     1   110.1900474 564.840000
  11300  11322  11306     1   112.4800480 524.673600
  11301  11300  11314     1   111.5100476 526.347200
  11301  11300  11322     1   107.9700462 569.024000
  11301  11304  11305     1   111.5100476 526.347200
  11301  11304  11312     1   110.1900474 564.840000
  11304  11301  11313     1   110.1900474 564.840000
  11304  11305  11306     1   111.5100476 526.347200
  11304  11305  11311     1   110.1900474 564.840000
  11305  11304  11312     1   110.1900474 564.840000
  11305  11306  11310     1   107.9700462 569.024000
  11305  11306  11322     1   107.9700462 569.024000
  11306  11305  11311     1   110.1900474 564.840000
  11310  11306  11322     1   108.2900466 608.353600
  11314  11300  11322     1   107.9700462 569.024000
  11323  11324  11327     1   111.5100476 526.347200
  11323  11324  11336     1   110.1900474 564.840000
  11323  11337  11343     1   110.1900474 564.840000
  11323  11345  11329     1   112.4800480 524.673600
  11324  11327  11328     1   111.5100476 526.347200
  11324  11327  11335     1   110.1900474 564.840000
  11324  11323  11337     1   111.5100476 526.347200
  11324  11323  11345     1   107.9700462 569.024000
  11327  11328  11329     1   111.5100476 526.347200
  11327  11328  11334     1   110.1900474 564.840000
  11327  11324  11336     1   110.1900474 564.840000
  11328  11329  11333     1   107.9700462 569.024000
  11328  11329  11345     1   107.9700462 569.024000
  11328  11327  11335     1   110.1900474 564.840000
  11329  11328  11334     1   110.1900474 564.840000
  11333  11329  11345     1   108.2900466 608.353600
  11337  11323  11345     1   107.9700462 569.024000
  11346  11347  11350     1   111.5100476 526.347200
  11346  11347  11359     1   110.1900474 564.840000
  11346  11360  11366     1   110.1900474 564.840000
  11346  11368  11352     1   112.4800480 524.673600
  11347  11346  11360     1   111.5100476 526.347200
  11347  11346  11368     1   107.9700462 569.024000
  11347  11350  11351     1   111.5100476 526.347200
  11347  11350  11358     1   110.1900474 564.840000
  11350  11347  11359     1   110.1900474 564.840000
  11350  11351  11352     1   111.5100476 526.347200
  11350  11351  11357     1   110.1900474 564.840000
  11351  11350  11358     1   110.1900474 564.840000
  11351  11352  11356     1   107.9700462 569.024000
  11351  11352  11368     1   107.9700462 569.024000
  11352  11351  11357     1   110.1900474 564.840000
  11356  11352  11368     1   108.2900466 608.353600
  11360  11346  11368     1   107.9700462 569.024000
  11369  11370  11373     1   111.5100476 526.347200
  11369  11370  11382     1   110.1900474 564.840000
  11369  11383  11389     1   110.1900474 564.840000
  11369  11391  11375     1   112.4800480 524.673600
  11370  11373  11374     1   111.5100476 526.347200
  11370  11373  11381     1   110.1900474 564.840000
  11370  11369  11383     1   111.5100476 526.347200
  11370  11369  11391     1   107.9700462 569.024000
  11373  11374  11375     1   111.5100476 526.347200
  11373  11374  11380     1   110.1900474 564.840000
  11373  11370  11382     1   110.1900474 564.840000
  11374  11375  11379     1   107.9700462 569.024000
  11374  11375  11391     1   107.9700462 569.024000
  11374  11373  11381     1   110.1900474 564.840000
  11375  11374  11380     1   110.1900474 564.840000
  11379  11375  11391     1   108.2900466 608.353600
  11383  11369  11391     1   107.9700462 569.024000
  11392  11393  11396     1   111.5100476 526.347200
  11392  11393  11405     1   110.1900474 564.840000
  11392  11406  11412     1   110.1900474 564.840000
  11392  11414  11398     1   112.4800480 524.673600
  11393  11392  11406     1   111.5100476 526.347200
  11393  11392  11414     1   107.9700462 569.024000
  11393  11396  11397     1   111.5100476 526.347200
  11393  11396  11404     1   110.1900474 564.840000
  11396  11393  11405     1   110.1900474 564.840000
  11396  11397  11398     1   111.5100476 526.347200
  11396  11397  11403     1   110.1900474 564.840000
  11397  11396  11404     1   110.1900474 564.840000
  11397  11398  11402     1   107.9700462 569.024000
  11397  11398  11414     1   107.9700462 569.024000
  11398  11397  11403     1   110.1900474 564.840000
  11402  11398  11414     1   108.2900466 608.353600
  11406  11392  11414     1   107.9700462 569.024000
  11415  11416  11419     1   111.5100476 526.347200
  11415  11416  11428     1   110.1900474 564.840000
  11415  11429  11435     1   110.1900474 564.840000
  11415  11437  11421     1   112.4800480 524.673600
  11416  11419  11420     1   111.5100476 526.347200
  11416  11419  11427     1   110.1900474 564.840000
  11416  11415  11429     1   111.5100476 526.347200
  11416  11415  11437     1   107.9700462 569.024000
  11419  11420  11421     1   111.5100476 526.347200
  11419  11420  11426     1   110.1900474 564.840000
  11419  11416  11428     1   110.1900474 564.840000
  11420  11421  11425     1   107.9700462 569.024000
  11420  11421  11437     1   107.9700462 569.024000
  11420  11419  11427     1   110.1900474 564.840000
  11421  11420  11426     1   110.1900474 564.840000
  11425  11421  11437     1   108.2900466 608.353600
  11429  11415  11437     1   107.9700462 569.024000
  11438  11439  11442     1   111.5100476 526.347200
  11438  11439  11451     1   110.1900474 564.840000
  11438  11452  11458     1   110.1900474 564.840000
  11438  11460  11444     1   112.4800480 524.673600
  11439  11438  11452     1   111.5100476 526.347200
  11439  11438  11460     1   107.9700462 569.024000
  11439  11442  11443     1   111.5100476 526.347200
  11439  11442  11450     1   110.1900474 564.840000
  11442  11439  11451     1   110.1900474 564.840000
  11442  11443  11444     1   111.5100476 526.347200
  11442  11443  11449     1   110.1900474 564.840000
  11443  11442  11450     1   110.1900474 564.840000
  11443  11444  11448     1   107.9700462 569.024000
  11443  11444  11460     1   107.9700462 569.024000
  11444  11443  11449     1   110.1900474 564.840000
  11448  11444  11460     1   108.2900466 608.353600
  11452  11438  11460     1   107.9700462 569.024000
  11461  11462  11465     1   111.5100476 526.347200
  11461  11462  11474     1   110.1900474 564.840000
  11461  11475  11481     1   110.1900474 564.840000
  11461  11483  11467     1   112.4800480 524.673600
  11462  11465  11466     1   111.5100476 526.347200
  11462  11465  11473     1   110.1900474 564.840000
  11462  11461  11475     1   111.5100476 526.347200
  11462  11461  11483     1   107.9700462 569.024000
  11465  11466  11467     1   111.5100476 526.347200
  11465  11466  11472     1   110.1900474 564.840000
  11465  11462  11474     1   110.1900474 564.840000
  11466  11467  11471     1   107.9700462 569.024000
  11466  11467  11483     1   107.9700462 569.024000
  11466  11465  11473     1   110.1900474 564.840000
  11467  11466  11472     1   110.1900474 564.840000
  11471  11467  11483     1   108.2900466 608.353600
  11475  11461  11483     1   107.9700462 569.024000
  11484  11485  11488     1   111.5100476 526.347200
  11484  11485  11497     1   110.1900474 564.840000
  11484  11498  11504     1   110.1900474 564.840000
  11484  11506  11490     1   112.4800480 524.673600
  11485  11484  11498     1   111.5100476 526.347200
  11485  11484  11506     1   107.9700462 569.024000
  11485  11488  11489     1   111.5100476 526.347200
  11485  11488  11496     1   110.1900474 564.840000
  11488  11485  11497     1   110.1900474 564.840000
  11488  11489  11490     1   111.5100476 526.347200
  11488  11489  11495     1   110.1900474 564.840000
  11489  11488  11496     1   110.1900474 564.840000
  11489  11490  11494     1   107.9700462 569.024000
  11489  11490  11506     1   107.9700462 569.024000
  11490  11489  11495     1   110.1900474 564.840000
  11494  11490  11506     1   108.2900466 608.353600
  11498  11484  11506     1   107.9700462 569.024000
  11507  11508  11511     1   111.5100476 526.347200
  11507  11508  11520     1   110.1900474 564.840000
  11507  11521  11527     1   110.1900474 564.840000
  11507  11529  11513     1   112.4800480 524.673600
  11508  11511  11512     1   111.5100476 526.347200
  11508  11511  11519     1   110.1900474 564.840000
  11508  11507  11521     1   111.5100476 526.347200
  11508  11507  11529     1   107.9700462 569.024000
  11511  11512  11513     1   111.5100476 526.347200
  11511  11512  11518     1   110.1900474 564.840000
  11511  11508  11520     1   110.1900474 564.840000
  11512  11513  11517     1   107.9700462 569.024000
  11512  11513  11529     1   107.9700462 569.024000
  11512  11511  11519     1   110.1900474 564.840000
  11513  11512  11518     1   110.1900474 564.840000
  11517  11513  11529     1   108.2900466 608.353600
  11521  11507  11529     1   107.9700462 569.024000
  11530  11531  11534     1   111.5100476 526.347200
  11530  11531  11543     1   110.1900474 564.840000
  11530  11544  11550     1   110.1900474 564.840000
  11530  11552  11536     1   112.4800480 524.673600
  11531  11530  11544     1   111.5100476 526.347200
  11531  11530  11552     1   107.9700462 569.024000
  11531  11534  11535     1   111.5100476 526.347200
  11531  11534  11542     1   110.1900474 564.840000
  11534  11531  11543     1   110.1900474 564.840000
  11534  11535  11536     1   111.5100476 526.347200
  11534  11535  11541     1   110.1900474 564.840000
  11535  11534  11542     1   110.1900474 564.840000
  11535  11536  11540     1   107.9700462 569.024000
  11535  11536  11552     1   107.9700462 569.024000
  11536  11535  11541     1   110.1900474 564.840000
  11540  11536  11552     1   108.2900466 608.353600
  11544  11530  11552     1   107.9700462 569.024000
  11553  11554  11557     1   111.5100476 526.347200
  11553  11554  11566     1   110.1900474 564.840000
  11553  11567  11573     1   110.1900474 564.840000
  11553  11575  11559     1   112.4800480 524.673600
  11554  11557  11558     1   111.5100476 526.347200
  11554  11557  11565     1   110.1900474 564.840000
  11554  11553  11567     1   111.5100476 526.347200
  11554  11553  11575     1   107.9700462 569.024000
  11557  11558  11559     1   111.5100476 526.347200
  11557  11558  11564     1   110.1900474 564.840000
  11557  11554  11566     1   110.1900474 564.840000
  11558  11559  11563     1   107.9700462 569.024000
  11558  11559  11575     1   107.9700462 569.024000
  11558  11557  11565     1   110.1900474 564.840000
  11559  11558  11564     1   110.1900474 564.840000
  11563  11559  11575     1   108.2900466 608.353600
  11567  11553  11575     1   107.9700462 569.024000
  11576  11577  11580     1   111.5100476 526.347200
  11576  11577  11589     1   110.1900474 564.840000
  11576  11590  11596     1   110.1900474 564.840000
  11576  11598  11582     1   112.4800480 524.673600
  11577  11576  11590     1   111.5100476 526.347200
  11577  11576  11598     1   107.9700462 569.024000
  11577  11580  11581     1   111.5100476 526.347200
  11577  11580  11588     1   110.1900474 564.840000
  11580  11577  11589     1   110.1900474 564.840000
  11580  11581  11582     1   111.5100476 526.347200
  11580  11581  11587     1   110.1900474 564.840000
  11581  11580  11588     1   110.1900474 564.840000
  11581  11582  11586     1   107.9700462 569.024000
  11581  11582  11598     1   107.9700462 569.024000
  11582  11581  11587     1   110.1900474 564.840000
  11586  11582  11598     1   108.2900466 608.353600
  11590  11576  11598     1   107.9700462 569.024000
  11599  11600  11603     1   111.5100476 526.347200
  11599  11600  11612     1   110.1900474 564.840000
  11599  11613  11619     1   110.1900474 564.840000
  11599  11621  11605     1   112.4800480 524.673600
  11600  11603  11604     1   111.5100476 526.347200
  11600  11603  11611     1   110.1900474 564.840000
  11600  11599  11613     1   111.5100476 526.347200
  11600  11599  11621     1   107.9700462 569.024000
  11603  11604  11605     1   111.5100476 526.347200
  11603  11604  11610     1   110.1900474 564.840000
  11603  11600  11612     1   110.1900474 564.840000
  11604  11605  11609     1   107.9700462 569.024000
  11604  11605  11621     1   107.9700462 569.024000
  11604  11603  11611     1   110.1900474 564.840000
  11605  11604  11610     1   110.1900474 564.840000
  11609  11605  11621     1   108.2900466 608.353600
  11613  11599  11621     1   107.9700462 569.024000
  11622  11623  11626     1   111.5100476 526.347200
  11622  11623  11635     1   110.1900474 564.840000
  11622  11636  11642     1   110.1900474 564.840000
  11622  11644  11628     1   112.4800480 524.673600
  11623  11622  11636     1   111.5100476 526.347200
  11623  11622  11644     1   107.9700462 569.024000
  11623  11626  11627     1   111.5100476 526.347200
  11623  11626  11634     1   110.1900474 564.840000
  11626  11623  11635     1   110.1900474 564.840000
  11626  11627  11628     1   111.5100476 526.347200
  11626  11627  11633     1   110.1900474 564.840000
  11627  11626  11634     1   110.1900474 564.840000
  11627  11628  11632     1   107.9700462 569.024000
  11627  11628  11644     1   107.9700462 569.024000
  11628  11627  11633     1   110.1900474 564.840000
  11632  11628  11644     1   108.2900466 608.353600
  11636  11622  11644     1   107.9700462 569.024000
  11645  11646  11649     1   111.5100476 526.347200
  11645  11646  11658     1   110.1900474 564.840000
  11645  11659  11665     1   110.1900474 564.840000
  11645  11667  11651     1   112.4800480 524.673600
  11646  11649  11650     1   111.5100476 526.347200
  11646  11649  11657     1   110.1900474 564.840000
  11646  11645  11659     1   111.5100476 526.347200
  11646  11645  11667     1   107.9700462 569.024000
  11649  11650  11651     1   111.5100476 526.347200
  11649  11650  11656     1   110.1900474 564.840000
  11649  11646  11658     1   110.1900474 564.840000
  11650  11651  11655     1   107.9700462 569.024000
  11650  11651  11667     1   107.9700462 569.024000
  11650  11649  11657     1   110.1900474 564.840000
  11651  11650  11656     1   110.1900474 564.840000
  11655  11651  11667     1   108.2900466 608.353600
  11659  11645  11667     1   107.9700462 569.024000
  11668  11669  11672     1   111.5100476 526.347200
  11668  11669  11681     1   110.1900474 564.840000
  11668  11682  11688     1   110.1900474 564.840000
  11668  11690  11674     1   112.4800480 524.673600
  11669  11668  11682     1   111.5100476 526.347200
  11669  11668  11690     1   107.9700462 569.024000
  11669  11672  11673     1   111.5100476 526.347200
  11669  11672  11680     1   110.1900474 564.840000
  11672  11669  11681     1   110.1900474 564.840000
  11672  11673  11674     1   111.5100476 526.347200
  11672  11673  11679     1   110.1900474 564.840000
  11673  11672  11680     1   110.1900474 564.840000
  11673  11674  11678     1   107.9700462 569.024000
  11673  11674  11690     1   107.9700462 569.024000
  11674  11673  11679     1   110.1900474 564.840000
  11678  11674  11690     1   108.2900466 608.353600
  11682  11668  11690     1   107.9700462 569.024000
  11691  11692  11695     1   111.5100476 526.347200
  11691  11692  11704     1   110.1900474 564.840000
  11691  11705  11711     1   110.1900474 564.840000
  11691  11713  11697     1   112.4800480 524.673600
  11692  11695  11696     1   111.5100476 526.347200
  11692  11695  11703     1   110.1900474 564.840000
  11692  11691  11705     1   111.5100476 526.347200
  11692  11691  11713     1   107.9700462 569.024000
  11695  11696  11697     1   111.5100476 526.347200
  11695  11696  11702     1   110.1900474 564.840000
  11695  11692  11704     1   110.1900474 564.840000
  11696  11697  11701     1   107.9700462 569.024000
  11696  11697  11713     1   107.9700462 569.024000
  11696  11695  11703     1   110.1900474 564.840000
  11697  11696  11702     1   110.1900474 564.840000
  11701  11697  11713     1   108.2900466 608.353600
  11705  11691  11713     1   107.9700462 569.024000
  11714  11715  11718     1   111.5100476 526.347200
  11714  11715  11727     1   110.1900474 564.840000
  11714  11728  11734     1   110.1900474 564.840000
  11714  11736  11720     1   112.4800480 524.673600
  11715  11714  11728     1   111.5100476 526.347200
  11715  11714  11736     1   107.9700462 569.024000
  11715  11718  11719     1   111.5100476 526.347200
  11715  11718  11726     1   110.1900474 564.840000
  11718  11715  11727     1   110.1900474 564.840000
  11718  11719  11720     1   111.5100476 526.347200
  11718  11719  11725     1   110.1900474 564.840000
  11719  11718  11726     1   110.1900474 564.840000
  11719  11720  11724     1   107.9700462 569.024000
  11719  11720  11736     1   107.9700462 569.024000
  11720  11719  11725     1   110.1900474 564.840000
  11724  11720  11736     1   108.2900466 608.353600
  11728  11714  11736     1   107.9700462 569.024000
  11737  11738  11741     1   111.5100476 526.347200
  11737  11738  11750     1   110.1900474 564.840000
  11737  11751  11757     1   110.1900474 564.840000
  11737  11759  11743     1   112.4800480 524.673600
  11738  11741  11742     1   111.5100476 526.347200
  11738  11741  11749     1   110.1900474 564.840000
  11738  11737  11751     1   111.5100476 526.347200
  11738  11737  11759     1   107.9700462 569.024000
  11741  11742  11743     1   111.5100476 526.347200
  11741  11742  11748     1   110.1900474 564.840000
  11741  11738  11750     1   110.1900474 564.840000
  11742  11743  11747     1   107.9700462 569.024000
  11742  11743  11759     1   107.9700462 569.024000
  11742  11741  11749     1   110.1900474 564.840000
  11743  11742  11748     1   110.1900474 564.840000
  11747  11743  11759     1   108.2900466 608.353600
  11751  11737  11759     1   107.9700462 569.024000
  11760  11761  11764     1   111.5100476 526.347200
  11760  11761  11773     1   110.1900474 564.840000
  11760  11774  11780     1   110.1900474 564.840000
  11760  11782  11766     1   112.4800480 524.673600
  11761  11760  11774     1   111.5100476 526.347200
  11761  11760  11782     1   107.9700462 569.024000
  11761  11764  11765     1   111.5100476 526.347200
  11761  11764  11772     1   110.1900474 564.840000
  11764  11761  11773     1   110.1900474 564.840000
  11764  11765  11766     1   111.5100476 526.347200
  11764  11765  11771     1   110.1900474 564.840000
  11765  11764  11772     1   110.1900474 564.840000
  11765  11766  11770     1   107.9700462 569.024000
  11765  11766  11782     1   107.9700462 569.024000
  11766  11765  11771     1   110.1900474 564.840000
  11770  11766  11782     1   108.2900466 608.353600
  11774  11760  11782     1   107.9700462 569.024000
  11783  11784  11787     1   111.5100476 526.347200
  11783  11784  11796     1   110.1900474 564.840000
  11783  11797  11803     1   110.1900474 564.840000
  11783  11805  11789     1   112.4800480 524.673600
  11784  11787  11788     1   111.5100476 526.347200
  11784  11787  11795     1   110.1900474 564.840000
  11784  11783  11797     1   111.5100476 526.347200
  11784  11783  11805     1   107.9700462 569.024000
  11787  11788  11789     1   111.5100476 526.347200
  11787  11788  11794     1   110.1900474 564.840000
  11787  11784  11796     1   110.1900474 564.840000
  11788  11789  11793     1   107.9700462 569.024000
  11788  11789  11805     1   107.9700462 569.024000
  11788  11787  11795     1   110.1900474 564.840000
  11789  11788  11794     1   110.1900474 564.840000
  11793  11789  11805     1   108.2900466 608.353600
  11797  11783  11805     1   107.9700462 569.024000
  11806  11807  11810     1   111.5100476 526.347200
  11806  11807  11819     1   110.1900474 564.840000
  11806  11820  11826     1   110.1900474 564.840000
  11806  11828  11812     1   112.4800480 524.673600
  11807  11806  11820     1   111.5100476 526.347200
  11807  11806  11828     1   107.9700462 569.024000
  11807  11810  11811     1   111.5100476 526.347200
  11807  11810  11818     1   110.1900474 564.840000
  11810  11807  11819     1   110.1900474 564.840000
  11810  11811  11812     1   111.5100476 526.347200
  11810  11811  11817     1   110.1900474 564.840000
  11811  11810  11818     1   110.1900474 564.840000
  11811  11812  11816     1   107.9700462 569.024000
  11811  11812  11828     1   107.9700462 569.024000
  11812  11811  11817     1   110.1900474 564.840000
  11816  11812  11828     1   108.2900466 608.353600
  11820  11806  11828     1   107.9700462 569.024000
  11829  11830  11833     1   111.5100476 526.347200
  11829  11830  11842     1   110.1900474 564.840000
  11829  11843  11849     1   110.1900474 564.840000
  11829  11851  11835     1   112.4800480 524.673600
  11830  11833  11834     1   111.5100476 526.347200
  11830  11833  11841     1   110.1900474 564.840000
  11830  11829  11843     1   111.5100476 526.347200
  11830  11829  11851     1   107.9700462 569.024000
  11833  11834  11835     1   111.5100476 526.347200
  11833  11834  11840     1   110.1900474 564.840000
  11833  11830  11842     1   110.1900474 564.840000
  11834  11835  11839     1   107.9700462 569.024000
  11834  11835  11851     1   107.9700462 569.024000
  11834  11833  11841     1   110.1900474 564.840000
  11835  11834  11840     1   110.1900474 564.840000
  11839  11835  11851     1   108.2900466 608.353600
  11843  11829  11851     1   107.9700462 569.024000
  11852  11853  11856     1   111.5100476 526.347200
  11852  11853  11865     1   110.1900474 564.840000
  11852  11866  11872     1   110.1900474 564.840000
  11852  11874  11858     1   112.4800480 524.673600
  11853  11852  11866     1   111.5100476 526.347200
  11853  11852  11874     1   107.9700462 569.024000
  11853  11856  11857     1   111.5100476 526.347200
  11853  11856  11864     1   110.1900474 564.840000
  11856  11853  11865     1   110.1900474 564.840000
  11856  11857  11858     1   111.5100476 526.347200
  11856  11857  11863     1   110.1900474 564.840000
  11857  11856  11864     1   110.1900474 564.840000
  11857  11858  11862     1   107.9700462 569.024000
  11857  11858  11874     1   107.9700462 569.024000
  11858  11857  11863     1   110.1900474 564.840000
  11862  11858  11874     1   108.2900466 608.353600
  11866  11852  11874     1   107.9700462 569.024000
  11875  11876  11879     1   111.5100476 526.347200
  11875  11876  11888     1   110.1900474 564.840000
  11875  11889  11895     1   110.1900474 564.840000
  11875  11897  11881     1   112.4800480 524.673600
  11876  11879  11880     1   111.5100476 526.347200
  11876  11879  11887     1   110.1900474 564.840000
  11876  11875  11889     1   111.5100476 526.347200
  11876  11875  11897     1   107.9700462 569.024000
  11879  11880  11881     1   111.5100476 526.347200
  11879  11880  11886     1   110.1900474 564.840000
  11879  11876  11888     1   110.1900474 564.840000
  11880  11881  11885     1   107.9700462 569.024000
  11880  11881  11897     1   107.9700462 569.024000
  11880  11879  11887     1   110.1900474 564.840000
  11881  11880  11886     1   110.1900474 564.840000
  11885  11881  11897     1   108.2900466 608.353600
  11889  11875  11897     1   107.9700462 569.024000
  11898  11899  11902     1   111.5100476 526.347200
  11898  11899  11911     1   110.1900474 564.840000
  11898  11912  11918     1   110.1900474 564.840000
  11898  11920  11904     1   112.4800480 524.673600
  11899  11898  11912     1   111.5100476 526.347200
  11899  11898  11920     1   107.9700462 569.024000
  11899  11902  11903     1   111.5100476 526.347200
  11899  11902  11910     1   110.1900474 564.840000
  11902  11899  11911     1   110.1900474 564.840000
  11902  11903  11904     1   111.5100476 526.347200
  11902  11903  11909     1   110.1900474 564.840000
  11903  11902  11910     1   110.1900474 564.840000
  11903  11904  11908     1   107.9700462 569.024000
  11903  11904  11920     1   107.9700462 569.024000
  11904  11903  11909     1   110.1900474 564.840000
  11908  11904  11920     1   108.2900466 608.353600
  11912  11898  11920     1   107.9700462 569.024000
  11921  11922  11925     1   111.5100476 526.347200
  11921  11922  11934     1   110.1900474 564.840000
  11921  11935  11941     1   110.1900474 564.840000
  11921  11943  11927     1   112.4800480 524.673600
  11922  11925  11926     1   111.5100476 526.347200
  11922  11925  11933     1   110.1900474 564.840000
  11922  11921  11935     1   111.5100476 526.347200
  11922  11921  11943     1   107.9700462 569.024000
  11925  11926  11927     1   111.5100476 526.347200
  11925  11926  11932     1   110.1900474 564.840000
  11925  11922  11934     1   110.1900474 564.840000
  11926  11927  11931     1   107.9700462 569.024000
  11926  11927  11943     1   107.9700462 569.024000
  11926  11925  11933     1   110.1900474 564.840000
  11927  11926  11932     1   110.1900474 564.840000
  11931  11927  11943     1   108.2900466 608.353600
  11935  11921  11943     1   107.9700462 569.024000
  11944  11945  11948     1   111.5100476 526.347200
  11944  11945  11957     1   110.1900474 564.840000
  11944  11958  11964     1   110.1900474 564.840000
  11944  11966  11950     1   112.4800480 524.673600
  11945  11944  11958     1   111.5100476 526.347200
  11945  11944  11966     1   107.9700462 569.024000
  11945  11948  11949     1   111.5100476 526.347200
  11945  11948  11956     1   110.1900474 564.840000
  11948  11945  11957     1   110.1900474 564.840000
  11948  11949  11950     1   111.5100476 526.347200
  11948  11949  11955     1   110.1900474 564.840000
  11949  11948  11956     1   110.1900474 564.840000
  11949  11950  11954     1   107.9700462 569.024000
  11949  11950  11966     1   107.9700462 569.024000
  11950  11949  11955     1   110.1900474 564.840000
  11954  11950  11966     1   108.2900466 608.353600
  11958  11944  11966     1   107.9700462 569.024000
  11967  11968  11971     1   111.5100476 526.347200
  11967  11968  11980     1   110.1900474 564.840000
  11967  11981  11987     1   110.1900474 564.840000
  11967  11989  11973     1   112.4800480 524.673600
  11968  11971  11972     1   111.5100476 526.347200
  11968  11971  11979     1   110.1900474 564.840000
  11968  11967  11981     1   111.5100476 526.347200
  11968  11967  11989     1   107.9700462 569.024000
  11971  11972  11973     1   111.5100476 526.347200
  11971  11972  11978     1   110.1900474 564.840000
  11971  11968  11980     1   110.1900474 564.840000
  11972  11973  11977     1   107.9700462 569.024000
  11972  11973  11989     1   107.9700462 569.024000
  11972  11971  11979     1   110.1900474 564.840000
  11973  11972  11978     1   110.1900474 564.840000
  11977  11973  11989     1   108.2900466 608.353600
  11981  11967  11989     1   107.9700462 569.024000
  11990  11991  11994     1   111.5100476 526.347200
  11990  11991  12003     1   110.1900474 564.840000
  11990  12004  12010     1   110.1900474 564.840000
  11990  12012  11996     1   112.4800480 524.673600
  11991  11990  12004     1   111.5100476 526.347200
  11991  11990  12012     1   107.9700462 569.024000
  11991  11994  11995     1   111.5100476 526.347200
  11991  11994  12002     1   110.1900474 564.840000
  11994  11991  12003     1   110.1900474 564.840000
  11994  11995  11996     1   111.5100476 526.347200
  11994  11995  12001     1   110.1900474 564.840000
  11995  11994  12002     1   110.1900474 564.840000
  11995  11996  12000     1   107.9700462 569.024000
  11995  11996  12012     1   107.9700462 569.024000
  11996  11995  12001     1   110.1900474 564.840000
  12000  11996  12012     1   108.2900466 608.353600
  12004  11990  12012     1   107.9700462 569.024000
  12013  12014  12017     1   111.5100476 526.347200
  12013  12014  12026     1   110.1900474 564.840000
  12013  12027  12033     1   110.1900474 564.840000
  12013  12035  12019     1   112.4800480 524.673600
  12014  12017  12018     1   111.5100476 526.347200
  12014  12017  12025     1   110.1900474 564.840000
  12014  12013  12027     1   111.5100476 526.347200
  12014  12013  12035     1   107.9700462 569.024000
  12017  12018  12019     1   111.5100476 526.347200
  12017  12018  12024     1   110.1900474 564.840000
  12017  12014  12026     1   110.1900474 564.840000
  12018  12019  12023     1   107.9700462 569.024000
  12018  12019  12035     1   107.9700462 569.024000
  12018  12017  12025     1   110.1900474 564.840000
  12019  12018  12024     1   110.1900474 564.840000
  12023  12019  12035     1   108.2900466 608.353600
  12027  12013  12035     1   107.9700462 569.024000
  12036  12037  12040     1   111.5100476 526.347200
  12036  12037  12049     1   110.1900474 564.840000
  12036  12050  12056     1   110.1900474 564.840000
  12036  12058  12042     1   112.4800480 524.673600
  12037  12036  12050     1   111.5100476 526.347200
  12037  12036  12058     1   107.9700462 569.024000
  12037  12040  12041     1   111.5100476 526.347200
  12037  12040  12048     1   110.1900474 564.840000
  12040  12037  12049     1   110.1900474 564.840000
  12040  12041  12042     1   111.5100476 526.347200
  12040  12041  12047     1   110.1900474 564.840000
  12041  12040  12048     1   110.1900474 564.840000
  12041  12042  12046     1   107.9700462 569.024000
  12041  12042  12058     1   107.9700462 569.024000
  12042  12041  12047     1   110.1900474 564.840000
  12046  12042  12058     1   108.2900466 608.353600
  12050  12036  12058     1   107.9700462 569.024000
  12059  12060  12063     1   111.5100476 526.347200
  12059  12060  12072     1   110.1900474 564.840000
  12059  12073  12079     1   110.1900474 564.840000
  12059  12081  12065     1   112.4800480 524.673600
  12060  12063  12064     1   111.5100476 526.347200
  12060  12063  12071     1   110.1900474 564.840000
  12060  12059  12073     1   111.5100476 526.347200
  12060  12059  12081     1   107.9700462 569.024000
  12063  12064  12065     1   111.5100476 526.347200
  12063  12064  12070     1   110.1900474 564.840000
  12063  12060  12072     1   110.1900474 564.840000
  12064  12065  12069     1   107.9700462 569.024000
  12064  12065  12081     1   107.9700462 569.024000
  12064  12063  12071     1   110.1900474 564.840000
  12065  12064  12070     1   110.1900474 564.840000
  12069  12065  12081     1   108.2900466 608.353600
  12073  12059  12081     1   107.9700462 569.024000
  12082  12083  12086     1   111.5100476 526.347200
  12082  12083  12095     1   110.1900474 564.840000
  12082  12096  12102     1   110.1900474 564.840000
  12082  12104  12088     1   112.4800480 524.673600
  12083  12082  12096     1   111.5100476 526.347200
  12083  12082  12104     1   107.9700462 569.024000
  12083  12086  12087     1   111.5100476 526.347200
  12083  12086  12094     1   110.1900474 564.840000
  12086  12083  12095     1   110.1900474 564.840000
  12086  12087  12088     1   111.5100476 526.347200
  12086  12087  12093     1   110.1900474 564.840000
  12087  12086  12094     1   110.1900474 564.840000
  12087  12088  12092     1   107.9700462 569.024000
  12087  12088  12104     1   107.9700462 569.024000
  12088  12087  12093     1   110.1900474 564.840000
  12092  12088  12104     1   108.2900466 608.353600
  12096  12082  12104     1   107.9700462 569.024000
  12105  12106  12109     1   111.5100476 526.347200
  12105  12106  12118     1   110.1900474 564.840000
  12105  12119  12125     1   110.1900474 564.840000
  12105  12127  12111     1   112.4800480 524.673600
  12106  12109  12110     1   111.5100476 526.347200
  12106  12109  12117     1   110.1900474 564.840000
  12106  12105  12119     1   111.5100476 526.347200
  12106  12105  12127     1   107.9700462 569.024000
  12109  12110  12111     1   111.5100476 526.347200
  12109  12110  12116     1   110.1900474 564.840000
  12109  12106  12118     1   110.1900474 564.840000
  12110  12111  12115     1   107.9700462 569.024000
  12110  12111  12127     1   107.9700462 569.024000
  12110  12109  12117     1   110.1900474 564.840000
  12111  12110  12116     1   110.1900474 564.840000
  12115  12111  12127     1   108.2900466 608.353600
  12119  12105  12127     1   107.9700462 569.024000
  12128  12129  12132     1   111.5100476 526.347200
  12128  12129  12141     1   110.1900474 564.840000
  12128  12142  12148     1   110.1900474 564.840000
  12128  12150  12134     1   112.4800480 524.673600
  12129  12128  12142     1   111.5100476 526.347200
  12129  12128  12150     1   107.9700462 569.024000
  12129  12132  12133     1   111.5100476 526.347200
  12129  12132  12140     1   110.1900474 564.840000
  12132  12129  12141     1   110.1900474 564.840000
  12132  12133  12134     1   111.5100476 526.347200
  12132  12133  12139     1   110.1900474 564.840000
  12133  12132  12140     1   110.1900474 564.840000
  12133  12134  12138     1   107.9700462 569.024000
  12133  12134  12150     1   107.9700462 569.024000
  12134  12133  12139     1   110.1900474 564.840000
  12138  12134  12150     1   108.2900466 608.353600
  12142  12128  12150     1   107.9700462 569.024000
  12151  12152  12155     1   111.5100476 526.347200
  12151  12152  12164     1   110.1900474 564.840000
  12151  12165  12171     1   110.1900474 564.840000
  12151  12173  12157     1   112.4800480 524.673600
  12152  12155  12156     1   111.5100476 526.347200
  12152  12155  12163     1   110.1900474 564.840000
  12152  12151  12165     1   111.5100476 526.347200
  12152  12151  12173     1   107.9700462 569.024000
  12155  12156  12157     1   111.5100476 526.347200
  12155  12156  12162     1   110.1900474 564.840000
  12155  12152  12164     1   110.1900474 564.840000
  12156  12157  12161     1   107.9700462 569.024000
  12156  12157  12173     1   107.9700462 569.024000
  12156  12155  12163     1   110.1900474 564.840000
  12157  12156  12162     1   110.1900474 564.840000
  12161  12157  12173     1   108.2900466 608.353600
  12165  12151  12173     1   107.9700462 569.024000
  12174  12175  12178     1   111.5100476 526.347200
  12174  12175  12187     1   110.1900474 564.840000
  12174  12188  12194     1   110.1900474 564.840000
  12174  12196  12180     1   112.4800480 524.673600
  12175  12174  12188     1   111.5100476 526.347200
  12175  12174  12196     1   107.9700462 569.024000
  12175  12178  12179     1   111.5100476 526.347200
  12175  12178  12186     1   110.1900474 564.840000
  12178  12175  12187     1   110.1900474 564.840000
  12178  12179  12180     1   111.5100476 526.347200
  12178  12179  12185     1   110.1900474 564.840000
  12179  12178  12186     1   110.1900474 564.840000
  12179  12180  12184     1   107.9700462 569.024000
  12179  12180  12196     1   107.9700462 569.024000
  12180  12179  12185     1   110.1900474 564.840000
  12184  12180  12196     1   108.2900466 608.353600
  12188  12174  12196     1   107.9700462 569.024000
  12197  12198  12201     1   111.5100476 526.347200
  12197  12198  12210     1   110.1900474 564.840000
  12197  12211  12217     1   110.1900474 564.840000
  12197  12219  12203     1   112.4800480 524.673600
  12198  12201  12202     1   111.5100476 526.347200
  12198  12201  12209     1   110.1900474 564.840000
  12198  12197  12211     1   111.5100476 526.347200
  12198  12197  12219     1   107.9700462 569.024000
  12201  12202  12203     1   111.5100476 526.347200
  12201  12202  12208     1   110.1900474 564.840000
  12201  12198  12210     1   110.1900474 564.840000
  12202  12203  12207     1   107.9700462 569.024000
  12202  12203  12219     1   107.9700462 569.024000
  12202  12201  12209     1   110.1900474 564.840000
  12203  12202  12208     1   110.1900474 564.840000
  12207  12203  12219     1   108.2900466 608.353600
  12211  12197  12219     1   107.9700462 569.024000
  12220  12221  12224     1   111.5100476 526.347200
  12220  12221  12233     1   110.1900474 564.840000
  12220  12234  12240     1   110.1900474 564.840000
  12220  12242  12226     1   112.4800480 524.673600
  12221  12220  12234     1   111.5100476 526.347200
  12221  12220  12242     1   107.9700462 569.024000
  12221  12224  12225     1   111.5100476 526.347200
  12221  12224  12232     1   110.1900474 564.840000
  12224  12221  12233     1   110.1900474 564.840000
  12224  12225  12226     1   111.5100476 526.347200
  12224  12225  12231     1   110.1900474 564.840000
  12225  12224  12232     1   110.1900474 564.840000
  12225  12226  12230     1   107.9700462 569.024000
  12225  12226  12242     1   107.9700462 569.024000
  12226  12225  12231     1   110.1900474 564.840000
  12230  12226  12242     1   108.2900466 608.353600
  12234  12220  12242     1   107.9700462 569.024000
  12243  12244  12247     1   111.5100476 526.347200
  12243  12244  12256     1   110.1900474 564.840000
  12243  12257  12263     1   110.1900474 564.840000
  12243  12265  12249     1   112.4800480 524.673600
  12244  12247  12248     1   111.5100476 526.347200
  12244  12247  12255     1   110.1900474 564.840000
  12244  12243  12257     1   111.5100476 526.347200
  12244  12243  12265     1   107.9700462 569.024000
  12247  12248  12249     1   111.5100476 526.347200
  12247  12248  12254     1   110.1900474 564.840000
  12247  12244  12256     1   110.1900474 564.840000
  12248  12249  12253     1   107.9700462 569.024000
  12248  12249  12265     1   107.9700462 569.024000
  12248  12247  12255     1   110.1900474 564.840000
  12249  12248  12254     1   110.1900474 564.840000
  12253  12249  12265     1   108.2900466 608.353600
  12257  12243  12265     1   107.9700462 569.024000
  12266  12267  12270     1   111.5100476 526.347200
  12266  12267  12279     1   110.1900474 564.840000
  12266  12280  12286     1   110.1900474 564.840000
  12266  12288  12272     1   112.4800480 524.673600
  12267  12266  12280     1   111.5100476 526.347200
  12267  12266  12288     1   107.9700462 569.024000
  12267  12270  12271     1   111.5100476 526.347200
  12267  12270  12278     1   110.1900474 564.840000
  12270  12267  12279     1   110.1900474 564.840000
  12270  12271  12272     1   111.5100476 526.347200
  12270  12271  12277     1   110.1900474 564.840000
  12271  12270  12278     1   110.1900474 564.840000
  12271  12272  12276     1   107.9700462 569.024000
  12271  12272  12288     1   107.9700462 569.024000
  12272  12271  12277     1   110.1900474 564.840000
  12276  12272  12288     1   108.2900466 608.353600
  12280  12266  12288     1   107.9700462 569.024000
  12289  12290  12293     1   111.5100476 526.347200
  12289  12290  12302     1   110.1900474 564.840000
  12289  12303  12309     1   110.1900474 564.840000
  12289  12311  12295     1   112.4800480 524.673600
  12290  12293  12294     1   111.5100476 526.347200
  12290  12293  12301     1   110.1900474 564.840000
  12290  12289  12303     1   111.5100476 526.347200
  12290  12289  12311     1   107.9700462 569.024000
  12293  12294  12295     1   111.5100476 526.347200
  12293  12294  12300     1   110.1900474 564.840000
  12293  12290  12302     1   110.1900474 564.840000
  12294  12295  12299     1   107.9700462 569.024000
  12294  12295  12311     1   107.9700462 569.024000
  12294  12293  12301     1   110.1900474 564.840000
  12295  12294  12300     1   110.1900474 564.840000
  12299  12295  12311     1   108.2900466 608.353600
  12303  12289  12311     1   107.9700462 569.024000
  12312  12313  12316     1   111.5100476 526.347200
  12312  12313  12325     1   110.1900474 564.840000
  12312  12326  12332     1   110.1900474 564.840000
  12312  12334  12318     1   112.4800480 524.673600
  12313  12312  12326     1   111.5100476 526.347200
  12313  12312  12334     1   107.9700462 569.024000
  12313  12316  12317     1   111.5100476 526.347200
  12313  12316  12324     1   110.1900474 564.840000
  12316  12313  12325     1   110.1900474 564.840000
  12316  12317  12318     1   111.5100476 526.347200
  12316  12317  12323     1   110.1900474 564.840000
  12317  12316  12324     1   110.1900474 564.840000
  12317  12318  12322     1   107.9700462 569.024000
  12317  12318  12334     1   107.9700462 569.024000
  12318  12317  12323     1   110.1900474 564.840000
  12322  12318  12334     1   108.2900466 608.353600
  12326  12312  12334     1   107.9700462 569.024000
  12335  12336  12339     1   111.5100476 526.347200
  12335  12336  12348     1   110.1900474 564.840000
  12335  12349  12355     1   110.1900474 564.840000
  12335  12357  12341     1   112.4800480 524.673600
  12336  12339  12340     1   111.5100476 526.347200
  12336  12339  12347     1   110.1900474 564.840000
  12336  12335  12349     1   111.5100476 526.347200
  12336  12335  12357     1   107.9700462 569.024000
  12339  12340  12341     1   111.5100476 526.347200
  12339  12340  12346     1   110.1900474 564.840000
  12339  12336  12348     1   110.1900474 564.840000
  12340  12341  12345     1   107.9700462 569.024000
  12340  12341  12357     1   107.9700462 569.024000
  12340  12339  12347     1   110.1900474 564.840000
  12341  12340  12346     1   110.1900474 564.840000
  12345  12341  12357     1   108.2900466 608.353600
  12349  12335  12357     1   107.9700462 569.024000
  12358  12359  12362     1   111.5100476 526.347200
  12358  12359  12371     1   110.1900474 564.840000
  12358  12372  12378     1   110.1900474 564.840000
  12358  12380  12364     1   112.4800480 524.673600
  12359  12358  12372     1   111.5100476 526.347200
  12359  12358  12380     1   107.9700462 569.024000
  12359  12362  12363     1   111.5100476 526.347200
  12359  12362  12370     1   110.1900474 564.840000
  12362  12359  12371     1   110.1900474 564.840000
  12362  12363  12364     1   111.5100476 526.347200
  12362  12363  12369     1   110.1900474 564.840000
  12363  12362  12370     1   110.1900474 564.840000
  12363  12364  12368     1   107.9700462 569.024000
  12363  12364  12380     1   107.9700462 569.024000
  12364  12363  12369     1   110.1900474 564.840000
  12368  12364  12380     1   108.2900466 608.353600
  12372  12358  12380     1   107.9700462 569.024000
  12381  12382  12385     1   111.5100476 526.347200
  12381  12382  12394     1   110.1900474 564.840000
  12381  12395  12401     1   110.1900474 564.840000
  12381  12403  12387     1   112.4800480 524.673600
  12382  12385  12386     1   111.5100476 526.347200
  12382  12385  12393     1   110.1900474 564.840000
  12382  12381  12395     1   111.5100476 526.347200
  12382  12381  12403     1   107.9700462 569.024000
  12385  12386  12387     1   111.5100476 526.347200
  12385  12386  12392     1   110.1900474 564.840000
  12385  12382  12394     1   110.1900474 564.840000
  12386  12387  12391     1   107.9700462 569.024000
  12386  12387  12403     1   107.9700462 569.024000
  12386  12385  12393     1   110.1900474 564.840000
  12387  12386  12392     1   110.1900474 564.840000
  12391  12387  12403     1   108.2900466 608.353600
  12395  12381  12403     1   107.9700462 569.024000
  12404  12405  12408     1   111.5100476 526.347200
  12404  12405  12417     1   110.1900474 564.840000
  12404  12418  12424     1   110.1900474 564.840000
  12404  12426  12410     1   112.4800480 524.673600
  12405  12404  12418     1   111.5100476 526.347200
  12405  12404  12426     1   107.9700462 569.024000
  12405  12408  12409     1   111.5100476 526.347200
  12405  12408  12416     1   110.1900474 564.840000
  12408  12405  12417     1   110.1900474 564.840000
  12408  12409  12410     1   111.5100476 526.347200
  12408  12409  12415     1   110.1900474 564.840000
  12409  12408  12416     1   110.1900474 564.840000
  12409  12410  12414     1   107.9700462 569.024000
  12409  12410  12426     1   107.9700462 569.024000
  12410  12409  12415     1   110.1900474 564.840000
  12414  12410  12426     1   108.2900466 608.353600
  12418  12404  12426     1   107.9700462 569.024000
  12427  12428  12431     1   111.5100476 526.347200
  12427  12428  12440     1   110.1900474 564.840000
  12427  12441  12447     1   110.1900474 564.840000
  12427  12449  12433     1   112.4800480 524.673600
  12428  12431  12432     1   111.5100476 526.347200
  12428  12431  12439     1   110.1900474 564.840000
  12428  12427  12441     1   111.5100476 526.347200
  12428  12427  12449     1   107.9700462 569.024000
  12431  12432  12433     1   111.5100476 526.347200
  12431  12432  12438     1   110.1900474 564.840000
  12431  12428  12440     1   110.1900474 564.840000
  12432  12433  12437     1   107.9700462 569.024000
  12432  12433  12449     1   107.9700462 569.024000
  12432  12431  12439     1   110.1900474 564.840000
  12433  12432  12438     1   110.1900474 564.840000
  12437  12433  12449     1   108.2900466 608.353600
  12441  12427  12449     1   107.9700462 569.024000
  12450  12451  12454     1   111.5100476 526.347200
  12450  12451  12463     1   110.1900474 564.840000
  12450  12464  12470     1   110.1900474 564.840000
  12450  12472  12456     1   112.4800480 524.673600
  12451  12450  12464     1   111.5100476 526.347200
  12451  12450  12472     1   107.9700462 569.024000
  12451  12454  12455     1   111.5100476 526.347200
  12451  12454  12462     1   110.1900474 564.840000
  12454  12451  12463     1   110.1900474 564.840000
  12454  12455  12456     1   111.5100476 526.347200
  12454  12455  12461     1   110.1900474 564.840000
  12455  12454  12462     1   110.1900474 564.840000
  12455  12456  12460     1   107.9700462 569.024000
  12455  12456  12472     1   107.9700462 569.024000
  12456  12455  12461     1   110.1900474 564.840000
  12460  12456  12472     1   108.2900466 608.353600
  12464  12450  12472     1   107.9700462 569.024000
  12473  12474  12477     1   111.5100476 526.347200
  12473  12474  12486     1   110.1900474 564.840000
  12473  12487  12493     1   110.1900474 564.840000
  12473  12495  12479     1   112.4800480 524.673600
  12474  12477  12478     1   111.5100476 526.347200
  12474  12477  12485     1   110.1900474 564.840000
  12474  12473  12487     1   111.5100476 526.347200
  12474  12473  12495     1   107.9700462 569.024000
  12477  12478  12479     1   111.5100476 526.347200
  12477  12478  12484     1   110.1900474 564.840000
  12477  12474  12486     1   110.1900474 564.840000
  12478  12479  12483     1   107.9700462 569.024000
  12478  12479  12495     1   107.9700462 569.024000
  12478  12477  12485     1   110.1900474 564.840000
  12479  12478  12484     1   110.1900474 564.840000
  12483  12479  12495     1   108.2900466 608.353600
  12487  12473  12495     1   107.9700462 569.024000
  12496  12497  12500     1   111.5100476 526.347200
  12496  12497  12509     1   110.1900474 564.840000
  12496  12510  12516     1   110.1900474 564.840000
  12496  12518  12502     1   112.4800480 524.673600
  12497  12496  12510     1   111.5100476 526.347200
  12497  12496  12518     1   107.9700462 569.024000
  12497  12500  12501     1   111.5100476 526.347200
  12497  12500  12508     1   110.1900474 564.840000
  12500  12497  12509     1   110.1900474 564.840000
  12500  12501  12502     1   111.5100476 526.347200
  12500  12501  12507     1   110.1900474 564.840000
  12501  12500  12508     1   110.1900474 564.840000
  12501  12502  12506     1   107.9700462 569.024000
  12501  12502  12518     1   107.9700462 569.024000
  12502  12501  12507     1   110.1900474 564.840000
  12506  12502  12518     1   108.2900466 608.353600
  12510  12496  12518     1   107.9700462 569.024000
  12519  12520  12523     1   111.5100476 526.347200
  12519  12520  12532     1   110.1900474 564.840000
  12519  12533  12539     1   110.1900474 564.840000
  12519  12541  12525     1   112.4800480 524.673600
  12520  12523  12524     1   111.5100476 526.347200
  12520  12523  12531     1   110.1900474 564.840000
  12520  12519  12533     1   111.5100476 526.347200
  12520  12519  12541     1   107.9700462 569.024000
  12523  12524  12525     1   111.5100476 526.347200
  12523  12524  12530     1   110.1900474 564.840000
  12523  12520  12532     1   110.1900474 564.840000
  12524  12525  12529     1   107.9700462 569.024000
  12524  12525  12541     1   107.9700462 569.024000
  12524  12523  12531     1   110.1900474 564.840000
  12525  12524  12530     1   110.1900474 564.840000
  12529  12525  12541     1   108.2900466 608.353600
  12533  12519  12541     1   107.9700462 569.024000
  12542  12543  12546     1   111.5100476 526.347200
  12542  12543  12555     1   110.1900474 564.840000
  12542  12556  12562     1   110.1900474 564.840000
  12542  12564  12548     1   112.4800480 524.673600
  12543  12542  12556     1   111.5100476 526.347200
  12543  12542  12564     1   107.9700462 569.024000
  12543  12546  12547     1   111.5100476 526.347200
  12543  12546  12554     1   110.1900474 564.840000
  12546  12543  12555     1   110.1900474 564.840000
  12546  12547  12548     1   111.5100476 526.347200
  12546  12547  12553     1   110.1900474 564.840000
  12547  12546  12554     1   110.1900474 564.840000
  12547  12548  12552     1   107.9700462 569.024000
  12547  12548  12564     1   107.9700462 569.024000
  12548  12547  12553     1   110.1900474 564.840000
  12552  12548  12564     1   108.2900466 608.353600
  12556  12542  12564     1   107.9700462 569.024000
  12565  12566  12569     1   111.5100476 526.347200
  12565  12566  12578     1   110.1900474 564.840000
  12565  12579  12585     1   110.1900474 564.840000
  12565  12587  12571     1   112.4800480 524.673600
  12566  12569  12570     1   111.5100476 526.347200
  12566  12569  12577     1   110.1900474 564.840000
  12566  12565  12579     1   111.5100476 526.347200
  12566  12565  12587     1   107.9700462 569.024000
  12569  12570  12571     1   111.5100476 526.347200
  12569  12570  12576     1   110.1900474 564.840000
  12569  12566  12578     1   110.1900474 564.840000
  12570  12571  12575     1   107.9700462 569.024000
  12570  12571  12587     1   107.9700462 569.024000
  12570  12569  12577     1   110.1900474 564.840000
  12571  12570  12576     1   110.1900474 564.840000
  12575  12571  12587     1   108.2900466 608.353600
  12579  12565  12587     1   107.9700462 569.024000
  12588  12589  12592     1   111.5100476 526.347200
  12588  12589  12601     1   110.1900474 564.840000
  12588  12602  12608     1   110.1900474 564.840000
  12588  12610  12594     1   112.4800480 524.673600
  12589  12588  12602     1   111.5100476 526.347200
  12589  12588  12610     1   107.9700462 569.024000
  12589  12592  12593     1   111.5100476 526.347200
  12589  12592  12600     1   110.1900474 564.840000
  12592  12589  12601     1   110.1900474 564.840000
  12592  12593  12594     1   111.5100476 526.347200
  12592  12593  12599     1   110.1900474 564.840000
  12593  12592  12600     1   110.1900474 564.840000
  12593  12594  12598     1   107.9700462 569.024000
  12593  12594  12610     1   107.9700462 569.024000
  12594  12593  12599     1   110.1900474 564.840000
  12598  12594  12610     1   108.2900466 608.353600
  12602  12588  12610     1   107.9700462 569.024000
  12611  12612  12615     1   111.5100476 526.347200
  12611  12612  12624     1   110.1900474 564.840000
  12611  12625  12631     1   110.1900474 564.840000
  12611  12633  12617     1   112.4800480 524.673600
  12612  12615  12616     1   111.5100476 526.347200
  12612  12615  12623     1   110.1900474 564.840000
  12612  12611  12625     1   111.5100476 526.347200
  12612  12611  12633     1   107.9700462 569.024000
  12615  12616  12617     1   111.5100476 526.347200
  12615  12616  12622     1   110.1900474 564.840000
  12615  12612  12624     1   110.1900474 564.840000
  12616  12617  12621     1   107.9700462 569.024000
  12616  12617  12633     1   107.9700462 569.024000
  12616  12615  12623     1   110.1900474 564.840000
  12617  12616  12622     1   110.1900474 564.840000
  12621  12617  12633     1   108.2900466 608.353600
  12625  12611  12633     1   107.9700462 569.024000
  12634  12635  12638     1   111.5100476 526.347200
  12634  12635  12647     1   110.1900474 564.840000
  12634  12648  12654     1   110.1900474 564.840000
  12634  12656  12640     1   112.4800480 524.673600
  12635  12634  12648     1   111.5100476 526.347200
  12635  12634  12656     1   107.9700462 569.024000
  12635  12638  12639     1   111.5100476 526.347200
  12635  12638  12646     1   110.1900474 564.840000
  12638  12635  12647     1   110.1900474 564.840000
  12638  12639  12640     1   111.5100476 526.347200
  12638  12639  12645     1   110.1900474 564.840000
  12639  12638  12646     1   110.1900474 564.840000
  12639  12640  12644     1   107.9700462 569.024000
  12639  12640  12656     1   107.9700462 569.024000
  12640  12639  12645     1   110.1900474 564.840000
  12644  12640  12656     1   108.2900466 608.353600
  12648  12634  12656     1   107.9700462 569.024000
  12657  12658  12661     1   111.5100476 526.347200
  12657  12658  12670     1   110.1900474 564.840000
  12657  12671  12677     1   110.1900474 564.840000
  12657  12679  12663     1   112.4800480 524.673600
  12658  12661  12662     1   111.5100476 526.347200
  12658  12661  12669     1   110.1900474 564.840000
  12658  12657  12671     1   111.5100476 526.347200
  12658  12657  12679     1   107.9700462 569.024000
  12661  12662  12663     1   111.5100476 526.347200
  12661  12662  12668     1   110.1900474 564.840000
  12661  12658  12670     1   110.1900474 564.840000
  12662  12663  12667     1   107.9700462 569.024000
  12662  12663  12679     1   107.9700462 569.024000
  12662  12661  12669     1   110.1900474 564.840000
  12663  12662  12668     1   110.1900474 564.840000
  12667  12663  12679     1   108.2900466 608.353600
  12671  12657  12679     1   107.9700462 569.024000
  12680  12681  12684     1   111.5100476 526.347200
  12680  12681  12693     1   110.1900474 564.840000
  12680  12694  12700     1   110.1900474 564.840000
  12680  12702  12686     1   112.4800480 524.673600
  12681  12680  12694     1   111.5100476 526.347200
  12681  12680  12702     1   107.9700462 569.024000
  12681  12684  12685     1   111.5100476 526.347200
  12681  12684  12692     1   110.1900474 564.840000
  12684  12681  12693     1   110.1900474 564.840000
  12684  12685  12686     1   111.5100476 526.347200
  12684  12685  12691     1   110.1900474 564.840000
  12685  12684  12692     1   110.1900474 564.840000
  12685  12686  12690     1   107.9700462 569.024000
  12685  12686  12702     1   107.9700462 569.024000
  12686  12685  12691     1   110.1900474 564.840000
  12690  12686  12702     1   108.2900466 608.353600
  12694  12680  12702     1   107.9700462 569.024000
  12703  12704  12707     1   111.5100476 526.347200
  12703  12704  12716     1   110.1900474 564.840000
  12703  12717  12723     1   110.1900474 564.840000
  12703  12725  12709     1   112.4800480 524.673600
  12704  12707  12708     1   111.5100476 526.347200
  12704  12707  12715     1   110.1900474 564.840000
  12704  12703  12717     1   111.5100476 526.347200
  12704  12703  12725     1   107.9700462 569.024000
  12707  12708  12709     1   111.5100476 526.347200
  12707  12708  12714     1   110.1900474 564.840000
  12707  12704  12716     1   110.1900474 564.840000
  12708  12709  12713     1   107.9700462 569.024000
  12708  12709  12725     1   107.9700462 569.024000
  12708  12707  12715     1   110.1900474 564.840000
  12709  12708  12714     1   110.1900474 564.840000
  12713  12709  12725     1   108.2900466 608.353600
  12717  12703  12725     1   107.9700462 569.024000
  12726  12727  12730     1   111.5100476 526.347200
  12726  12727  12739     1   110.1900474 564.840000
  12726  12740  12746     1   110.1900474 564.840000
  12726  12748  12732     1   112.4800480 524.673600
  12727  12726  12740     1   111.5100476 526.347200
  12727  12726  12748     1   107.9700462 569.024000
  12727  12730  12731     1   111.5100476 526.347200
  12727  12730  12738     1   110.1900474 564.840000
  12730  12727  12739     1   110.1900474 564.840000
  12730  12731  12732     1   111.5100476 526.347200
  12730  12731  12737     1   110.1900474 564.840000
  12731  12730  12738     1   110.1900474 564.840000
  12731  12732  12736     1   107.9700462 569.024000
  12731  12732  12748     1   107.9700462 569.024000
  12732  12731  12737     1   110.1900474 564.840000
  12736  12732  12748     1   108.2900466 608.353600
  12740  12726  12748     1   107.9700462 569.024000
  12749  12750  12753     1   111.5100476 526.347200
  12749  12750  12762     1   110.1900474 564.840000
  12749  12763  12769     1   110.1900474 564.840000
  12749  12771  12755     1   112.4800480 524.673600
  12750  12753  12754     1   111.5100476 526.347200
  12750  12753  12761     1   110.1900474 564.840000
  12750  12749  12763     1   111.5100476 526.347200
  12750  12749  12771     1   107.9700462 569.024000
  12753  12754  12755     1   111.5100476 526.347200
  12753  12754  12760     1   110.1900474 564.840000
  12753  12750  12762     1   110.1900474 564.840000
  12754  12755  12759     1   107.9700462 569.024000
  12754  12755  12771     1   107.9700462 569.024000
  12754  12753  12761     1   110.1900474 564.840000
  12755  12754  12760     1   110.1900474 564.840000
  12759  12755  12771     1   108.2900466 608.353600
  12763  12749  12771     1   107.9700462 569.024000
  12772  12773  12776     1   111.5100476 526.347200
  12772  12773  12785     1   110.1900474 564.840000
  12772  12786  12792     1   110.1900474 564.840000
  12772  12794  12778     1   112.4800480 524.673600
  12773  12772  12786     1   111.5100476 526.347200
  12773  12772  12794     1   107.9700462 569.024000
  12773  12776  12777     1   111.5100476 526.347200
  12773  12776  12784     1   110.1900474 564.840000
  12776  12773  12785     1   110.1900474 564.840000
  12776  12777  12778     1   111.5100476 526.347200
  12776  12777  12783     1   110.1900474 564.840000
  12777  12776  12784     1   110.1900474 564.840000
  12777  12778  12782     1   107.9700462 569.024000
  12777  12778  12794     1   107.9700462 569.024000
  12778  12777  12783     1   110.1900474 564.840000
  12782  12778  12794     1   108.2900466 608.353600
  12786  12772  12794     1   107.9700462 569.024000
  12795  12796  12799     1   111.5100476 526.347200
  12795  12796  12808     1   110.1900474 564.840000
  12795  12809  12815     1   110.1900474 564.840000
  12795  12817  12801     1   112.4800480 524.673600
  12796  12799  12800     1   111.5100476 526.347200
  12796  12799  12807     1   110.1900474 564.840000
  12796  12795  12809     1   111.5100476 526.347200
  12796  12795  12817     1   107.9700462 569.024000
  12799  12800  12801     1   111.5100476 526.347200
  12799  12800  12806     1   110.1900474 564.840000
  12799  12796  12808     1   110.1900474 564.840000
  12800  12801  12805     1   107.9700462 569.024000
  12800  12801  12817     1   107.9700462 569.024000
  12800  12799  12807     1   110.1900474 564.840000
  12801  12800  12806     1   110.1900474 564.840000
  12805  12801  12817     1   108.2900466 608.353600
  12809  12795  12817     1   107.9700462 569.024000
  12818  12819  12822     1   111.5100476 526.347200
  12818  12819  12831     1   110.1900474 564.840000
  12818  12832  12838     1   110.1900474 564.840000
  12818  12840  12824     1   112.4800480 524.673600
  12819  12818  12832     1   111.5100476 526.347200
  12819  12818  12840     1   107.9700462 569.024000
  12819  12822  12823     1   111.5100476 526.347200
  12819  12822  12830     1   110.1900474 564.840000
  12822  12819  12831     1   110.1900474 564.840000
  12822  12823  12824     1   111.5100476 526.347200
  12822  12823  12829     1   110.1900474 564.840000
  12823  12822  12830     1   110.1900474 564.840000
  12823  12824  12828     1   107.9700462 569.024000
  12823  12824  12840     1   107.9700462 569.024000
  12824  12823  12829     1   110.1900474 564.840000
  12828  12824  12840     1   108.2900466 608.353600
  12832  12818  12840     1   107.9700462 569.024000
  12841  12842  12845     1   111.5100476 526.347200
  12841  12842  12854     1   110.1900474 564.840000
  12841  12855  12861     1   110.1900474 564.840000
  12841  12863  12847     1   112.4800480 524.673600
  12842  12845  12846     1   111.5100476 526.347200
  12842  12845  12853     1   110.1900474 564.840000
  12842  12841  12855     1   111.5100476 526.347200
  12842  12841  12863     1   107.9700462 569.024000
  12845  12846  12847     1   111.5100476 526.347200
  12845  12846  12852     1   110.1900474 564.840000
  12845  12842  12854     1   110.1900474 564.840000
  12846  12847  12851     1   107.9700462 569.024000
  12846  12847  12863     1   107.9700462 569.024000
  12846  12845  12853     1   110.1900474 564.840000
  12847  12846  12852     1   110.1900474 564.840000
  12851  12847  12863     1   108.2900466 608.353600
  12855  12841  12863     1   107.9700462 569.024000
  12864  12865  12868     1   111.5100476 526.347200
  12864  12865  12877     1   110.1900474 564.840000
  12864  12878  12884     1   110.1900474 564.840000
  12864  12886  12870     1   112.4800480 524.673600
  12865  12864  12878     1   111.5100476 526.347200
  12865  12864  12886     1   107.9700462 569.024000
  12865  12868  12869     1   111.5100476 526.347200
  12865  12868  12876     1   110.1900474 564.840000
  12868  12865  12877     1   110.1900474 564.840000
  12868  12869  12870     1   111.5100476 526.347200
  12868  12869  12875     1   110.1900474 564.840000
  12869  12868  12876     1   110.1900474 564.840000
  12869  12870  12874     1   107.9700462 569.024000
  12869  12870  12886     1   107.9700462 569.024000
  12870  12869  12875     1   110.1900474 564.840000
  12874  12870  12886     1   108.2900466 608.353600
  12878  12864  12886     1   107.9700462 569.024000
  12887  12888  12891     1   111.5100476 526.347200
  12887  12888  12900     1   110.1900474 564.840000
  12887  12901  12907     1   110.1900474 564.840000
  12887  12909  12893     1   112.4800480 524.673600
  12888  12891  12892     1   111.5100476 526.347200
  12888  12891  12899     1   110.1900474 564.840000
  12888  12887  12901     1   111.5100476 526.347200
  12888  12887  12909     1   107.9700462 569.024000
  12891  12892  12893     1   111.5100476 526.347200
  12891  12892  12898     1   110.1900474 564.840000
  12891  12888  12900     1   110.1900474 564.840000
  12892  12893  12897     1   107.9700462 569.024000
  12892  12893  12909     1   107.9700462 569.024000
  12892  12891  12899     1   110.1900474 564.840000
  12893  12892  12898     1   110.1900474 564.840000
  12897  12893  12909     1   108.2900466 608.353600
  12901  12887  12909     1   107.9700462 569.024000
  12910  12911  12914     1   111.5100476 526.347200
  12910  12911  12923     1   110.1900474 564.840000
  12910  12924  12930     1   110.1900474 564.840000
  12910  12932  12916     1   112.4800480 524.673600
  12911  12910  12924     1   111.5100476 526.347200
  12911  12910  12932     1   107.9700462 569.024000
  12911  12914  12915     1   111.5100476 526.347200
  12911  12914  12922     1   110.1900474 564.840000
  12914  12911  12923     1   110.1900474 564.840000
  12914  12915  12916     1   111.5100476 526.347200
  12914  12915  12921     1   110.1900474 564.840000
  12915  12914  12922     1   110.1900474 564.840000
  12915  12916  12920     1   107.9700462 569.024000
  12915  12916  12932     1   107.9700462 569.024000
  12916  12915  12921     1   110.1900474 564.840000
  12920  12916  12932     1   108.2900466 608.353600
  12924  12910  12932     1   107.9700462 569.024000
  12933  12934  12937     1   111.5100476 526.347200
  12933  12934  12946     1   110.1900474 564.840000
  12933  12947  12953     1   110.1900474 564.840000
  12933  12955  12939     1   112.4800480 524.673600
  12934  12937  12938     1   111.5100476 526.347200
  12934  12937  12945     1   110.1900474 564.840000
  12934  12933  12947     1   111.5100476 526.347200
  12934  12933  12955     1   107.9700462 569.024000
  12937  12938  12939     1   111.5100476 526.347200
  12937  12938  12944     1   110.1900474 564.840000
  12937  12934  12946     1   110.1900474 564.840000
  12938  12939  12943     1   107.9700462 569.024000
  12938  12939  12955     1   107.9700462 569.024000
  12938  12937  12945     1   110.1900474 564.840000
  12939  12938  12944     1   110.1900474 564.840000
  12943  12939  12955     1   108.2900466 608.353600
  12947  12933  12955     1   107.9700462 569.024000
  12956  12957  12960     1   111.5100476 526.347200
  12956  12957  12969     1   110.1900474 564.840000
  12956  12970  12976     1   110.1900474 564.840000
  12956  12978  12962     1   112.4800480 524.673600
  12957  12956  12970     1   111.5100476 526.347200
  12957  12956  12978     1   107.9700462 569.024000
  12957  12960  12961     1   111.5100476 526.347200
  12957  12960  12968     1   110.1900474 564.840000
  12960  12957  12969     1   110.1900474 564.840000
  12960  12961  12962     1   111.5100476 526.347200
  12960  12961  12967     1   110.1900474 564.840000
  12961  12960  12968     1   110.1900474 564.840000
  12961  12962  12966     1   107.9700462 569.024000
  12961  12962  12978     1   107.9700462 569.024000
  12962  12961  12967     1   110.1900474 564.840000
  12966  12962  12978     1   108.2900466 608.353600
  12970  12956  12978     1   107.9700462 569.024000
  12979  12980  12983     1   111.5100476 526.347200
  12979  12980  12992     1   110.1900474 564.840000
  12979  12993  12999     1   110.1900474 564.840000
  12979  13001  12985     1   112.4800480 524.673600
  12980  12983  12984     1   111.5100476 526.347200
  12980  12983  12991     1   110.1900474 564.840000
  12980  12979  12993     1   111.5100476 526.347200
  12980  12979  13001     1   107.9700462 569.024000
  12983  12984  12985     1   111.5100476 526.347200
  12983  12984  12990     1   110.1900474 564.840000
  12983  12980  12992     1   110.1900474 564.840000
  12984  12985  12989     1   107.9700462 569.024000
  12984  12985  13001     1   107.9700462 569.024000
  12984  12983  12991     1   110.1900474 564.840000
  12985  12984  12990     1   110.1900474 564.840000
  12989  12985  13001     1   108.2900466 608.353600
  12993  12979  13001     1   107.9700462 569.024000
  13002  13003  13006     1   111.5100476 526.347200
  13002  13003  13015     1   110.1900474 564.840000
  13002  13016  13022     1   110.1900474 564.840000
  13002  13024  13008     1   112.4800480 524.673600
  13003  13002  13016     1   111.5100476 526.347200
  13003  13002  13024     1   107.9700462 569.024000
  13003  13006  13007     1   111.5100476 526.347200
  13003  13006  13014     1   110.1900474 564.840000
  13006  13003  13015     1   110.1900474 564.840000
  13006  13007  13008     1   111.5100476 526.347200
  13006  13007  13013     1   110.1900474 564.840000
  13007  13006  13014     1   110.1900474 564.840000
  13007  13008  13012     1   107.9700462 569.024000
  13007  13008  13024     1   107.9700462 569.024000
  13008  13007  13013     1   110.1900474 564.840000
  13012  13008  13024     1   108.2900466 608.353600
  13016  13002  13024     1   107.9700462 569.024000
  13025  13026  13029     1   111.5100476 526.347200
  13025  13026  13038     1   110.1900474 564.840000
  13025  13039  13045     1   110.1900474 564.840000
  13025  13047  13031     1   112.4800480 524.673600
  13026  13029  13030     1   111.5100476 526.347200
  13026  13029  13037     1   110.1900474 564.840000
  13026  13025  13039     1   111.5100476 526.347200
  13026  13025  13047     1   107.9700462 569.024000
  13029  13030  13031     1   111.5100476 526.347200
  13029  13030  13036     1   110.1900474 564.840000
  13029  13026  13038     1   110.1900474 564.840000
  13030  13031  13035     1   107.9700462 569.024000
  13030  13031  13047     1   107.9700462 569.024000
  13030  13029  13037     1   110.1900474 564.840000
  13031  13030  13036     1   110.1900474 564.840000
  13035  13031  13047     1   108.2900466 608.353600
  13039  13025  13047     1   107.9700462 569.024000
  13048  13049  13052     1   111.5100476 526.347200
  13048  13049  13061     1   110.1900474 564.840000
  13048  13062  13068     1   110.1900474 564.840000
  13048  13070  13054     1   112.4800480 524.673600
  13049  13048  13062     1   111.5100476 526.347200
  13049  13048  13070     1   107.9700462 569.024000
  13049  13052  13053     1   111.5100476 526.347200
  13049  13052  13060     1   110.1900474 564.840000
  13052  13049  13061     1   110.1900474 564.840000
  13052  13053  13054     1   111.5100476 526.347200
  13052  13053  13059     1   110.1900474 564.840000
  13053  13052  13060     1   110.1900474 564.840000
  13053  13054  13058     1   107.9700462 569.024000
  13053  13054  13070     1   107.9700462 569.024000
  13054  13053  13059     1   110.1900474 564.840000
  13058  13054  13070     1   108.2900466 608.353600
  13062  13048  13070     1   107.9700462 569.024000
  13071  13072  13075     1   111.5100476 526.347200
  13071  13072  13084     1   110.1900474 564.840000
  13071  13085  13091     1   110.1900474 564.840000
  13071  13093  13077     1   112.4800480 524.673600
  13072  13075  13076     1   111.5100476 526.347200
  13072  13075  13083     1   110.1900474 564.840000
  13072  13071  13085     1   111.5100476 526.347200
  13072  13071  13093     1   107.9700462 569.024000
  13075  13076  13077     1   111.5100476 526.347200
  13075  13076  13082     1   110.1900474 564.840000
  13075  13072  13084     1   110.1900474 564.840000
  13076  13077  13081     1   107.9700462 569.024000
  13076  13077  13093     1   107.9700462 569.024000
  13076  13075  13083     1   110.1900474 564.840000
  13077  13076  13082     1   110.1900474 564.840000
  13081  13077  13093     1   108.2900466 608.353600
  13085  13071  13093     1   107.9700462 569.024000
  13094  13095  13098     1   111.5100476 526.347200
  13094  13095  13107     1   110.1900474 564.840000
  13094  13108  13114     1   110.1900474 564.840000
  13094  13116  13100     1   112.4800480 524.673600
  13095  13094  13108     1   111.5100476 526.347200
  13095  13094  13116     1   107.9700462 569.024000
  13095  13098  13099     1   111.5100476 526.347200
  13095  13098  13106     1   110.1900474 564.840000
  13098  13095  13107     1   110.1900474 564.840000
  13098  13099  13100     1   111.5100476 526.347200
  13098  13099  13105     1   110.1900474 564.840000
  13099  13098  13106     1   110.1900474 564.840000
  13099  13100  13104     1   107.9700462 569.024000
  13099  13100  13116     1   107.9700462 569.024000
  13100  13099  13105     1   110.1900474 564.840000
  13104  13100  13116     1   108.2900466 608.353600
  13108  13094  13116     1   107.9700462 569.024000
  13117  13118  13121     1   111.5100476 526.347200
  13117  13118  13130     1   110.1900474 564.840000
  13117  13131  13137     1   110.1900474 564.840000
  13117  13139  13123     1   112.4800480 524.673600
  13118  13121  13122     1   111.5100476 526.347200
  13118  13121  13129     1   110.1900474 564.840000
  13118  13117  13131     1   111.5100476 526.347200
  13118  13117  13139     1   107.9700462 569.024000
  13121  13122  13123     1   111.5100476 526.347200
  13121  13122  13128     1   110.1900474 564.840000
  13121  13118  13130     1   110.1900474 564.840000
  13122  13123  13127     1   107.9700462 569.024000
  13122  13123  13139     1   107.9700462 569.024000
  13122  13121  13129     1   110.1900474 564.840000
  13123  13122  13128     1   110.1900474 564.840000
  13127  13123  13139     1   108.2900466 608.353600
  13131  13117  13139     1   107.9700462 569.024000
  13140  13141  13144     1   111.5100476 526.347200
  13140  13141  13153     1   110.1900474 564.840000
  13140  13154  13160     1   110.1900474 564.840000
  13140  13162  13146     1   112.4800480 524.673600
  13141  13140  13154     1   111.5100476 526.347200
  13141  13140  13162     1   107.9700462 569.024000
  13141  13144  13145     1   111.5100476 526.347200
  13141  13144  13152     1   110.1900474 564.840000
  13144  13141  13153     1   110.1900474 564.840000
  13144  13145  13146     1   111.5100476 526.347200
  13144  13145  13151     1   110.1900474 564.840000
  13145  13144  13152     1   110.1900474 564.840000
  13145  13146  13150     1   107.9700462 569.024000
  13145  13146  13162     1   107.9700462 569.024000
  13146  13145  13151     1   110.1900474 564.840000
  13150  13146  13162     1   108.2900466 608.353600
  13154  13140  13162     1   107.9700462 569.024000
  13163  13164  13167     1   111.5100476 526.347200
  13163  13164  13176     1   110.1900474 564.840000
  13163  13177  13183     1   110.1900474 564.840000
  13163  13185  13169     1   112.4800480 524.673600
  13164  13167  13168     1   111.5100476 526.347200
  13164  13167  13175     1   110.1900474 564.840000
  13164  13163  13177     1   111.5100476 526.347200
  13164  13163  13185     1   107.9700462 569.024000
  13167  13168  13169     1   111.5100476 526.347200
  13167  13168  13174     1   110.1900474 564.840000
  13167  13164  13176     1   110.1900474 564.840000
  13168  13169  13173     1   107.9700462 569.024000
  13168  13169  13185     1   107.9700462 569.024000
  13168  13167  13175     1   110.1900474 564.840000
  13169  13168  13174     1   110.1900474 564.840000
  13173  13169  13185     1   108.2900466 608.353600
  13177  13163  13185     1   107.9700462 569.024000
  13186  13187  13190     1   111.5100476 526.347200
  13186  13187  13199     1   110.1900474 564.840000
  13186  13200  13206     1   110.1900474 564.840000
  13186  13208  13192     1   112.4800480 524.673600
  13187  13186  13200     1   111.5100476 526.347200
  13187  13186  13208     1   107.9700462 569.024000
  13187  13190  13191     1   111.5100476 526.347200
  13187  13190  13198     1   110.1900474 564.840000
  13190  13187  13199     1   110.1900474 564.840000
  13190  13191  13192     1   111.5100476 526.347200
  13190  13191  13197     1   110.1900474 564.840000
  13191  13190  13198     1   110.1900474 564.840000
  13191  13192  13196     1   107.9700462 569.024000
  13191  13192  13208     1   107.9700462 569.024000
  13192  13191  13197     1   110.1900474 564.840000
  13196  13192  13208     1   108.2900466 608.353600
  13200  13186  13208     1   107.9700462 569.024000
  13209  13210  13213     1   111.5100476 526.347200
  13209  13210  13222     1   110.1900474 564.840000
  13209  13223  13229     1   110.1900474 564.840000
  13209  13231  13215     1   112.4800480 524.673600
  13210  13213  13214     1   111.5100476 526.347200
  13210  13213  13221     1   110.1900474 564.840000
  13210  13209  13223     1   111.5100476 526.347200
  13210  13209  13231     1   107.9700462 569.024000
  13213  13214  13215     1   111.5100476 526.347200
  13213  13214  13220     1   110.1900474 564.840000
  13213  13210  13222     1   110.1900474 564.840000
  13214  13215  13219     1   107.9700462 569.024000
  13214  13215  13231     1   107.9700462 569.024000
  13214  13213  13221     1   110.1900474 564.840000
  13215  13214  13220     1   110.1900474 564.840000
  13219  13215  13231     1   108.2900466 608.353600
  13223  13209  13231     1   107.9700462 569.024000
  13232  13233  13236     1   111.5100476 526.347200
  13232  13233  13245     1   110.1900474 564.840000
  13232  13246  13252     1   110.1900474 564.840000
  13232  13254  13238     1   112.4800480 524.673600
  13233  13232  13246     1   111.5100476 526.347200
  13233  13232  13254     1   107.9700462 569.024000
  13233  13236  13237     1   111.5100476 526.347200
  13233  13236  13244     1   110.1900474 564.840000
  13236  13233  13245     1   110.1900474 564.840000
  13236  13237  13238     1   111.5100476 526.347200
  13236  13237  13243     1   110.1900474 564.840000
  13237  13236  13244     1   110.1900474 564.840000
  13237  13238  13242     1   107.9700462 569.024000
  13237  13238  13254     1   107.9700462 569.024000
  13238  13237  13243     1   110.1900474 564.840000
  13242  13238  13254     1   108.2900466 608.353600
  13246  13232  13254     1   107.9700462 569.024000
  13255  13256  13259     1   111.5100476 526.347200
  13255  13256  13268     1   110.1900474 564.840000
  13255  13269  13275     1   110.1900474 564.840000
  13255  13277  13261     1   112.4800480 524.673600
  13256  13259  13260     1   111.5100476 526.347200
  13256  13259  13267     1   110.1900474 564.840000
  13256  13255  13269     1   111.5100476 526.347200
  13256  13255  13277     1   107.9700462 569.024000
  13259  13260  13261     1   111.5100476 526.347200
  13259  13260  13266     1   110.1900474 564.840000
  13259  13256  13268     1   110.1900474 564.840000
  13260  13261  13265     1   107.9700462 569.024000
  13260  13261  13277     1   107.9700462 569.024000
  13260  13259  13267     1   110.1900474 564.840000
  13261  13260  13266     1   110.1900474 564.840000
  13265  13261  13277     1   108.2900466 608.353600
  13269  13255  13277     1   107.9700462 569.024000
  13278  13279  13282     1   111.5100476 526.347200
  13278  13279  13291     1   110.1900474 564.840000
  13278  13292  13298     1   110.1900474 564.840000
  13278  13300  13284     1   112.4800480 524.673600
  13279  13278  13292     1   111.5100476 526.347200
  13279  13278  13300     1   107.9700462 569.024000
  13279  13282  13283     1   111.5100476 526.347200
  13279  13282  13290     1   110.1900474 564.840000
  13282  13279  13291     1   110.1900474 564.840000
  13282  13283  13284     1   111.5100476 526.347200
  13282  13283  13289     1   110.1900474 564.840000
  13283  13282  13290     1   110.1900474 564.840000
  13283  13284  13288     1   107.9700462 569.024000
  13283  13284  13300     1   107.9700462 569.024000
  13284  13283  13289     1   110.1900474 564.840000
  13288  13284  13300     1   108.2900466 608.353600
  13292  13278  13300     1   107.9700462 569.024000
  13301  13302  13305     1   111.5100476 526.347200
  13301  13302  13314     1   110.1900474 564.840000
  13301  13315  13321     1   110.1900474 564.840000
  13301  13323  13307     1   112.4800480 524.673600
  13302  13305  13306     1   111.5100476 526.347200
  13302  13305  13313     1   110.1900474 564.840000
  13302  13301  13315     1   111.5100476 526.347200
  13302  13301  13323     1   107.9700462 569.024000
  13305  13306  13307     1   111.5100476 526.347200
  13305  13306  13312     1   110.1900474 564.840000
  13305  13302  13314     1   110.1900474 564.840000
  13306  13307  13311     1   107.9700462 569.024000
  13306  13307  13323     1   107.9700462 569.024000
  13306  13305  13313     1   110.1900474 564.840000
  13307  13306  13312     1   110.1900474 564.840000
  13311  13307  13323     1   108.2900466 608.353600
  13315  13301  13323     1   107.9700462 569.024000
  13324  13325  13328     1   111.5100476 526.347200
  13324  13325  13337     1   110.1900474 564.840000
  13324  13338  13344     1   110.1900474 564.840000
  13324  13346  13330     1   112.4800480 524.673600
  13325  13324  13338     1   111.5100476 526.347200
  13325  13324  13346     1   107.9700462 569.024000
  13325  13328  13329     1   111.5100476 526.347200
  13325  13328  13336     1   110.1900474 564.840000
  13328  13325  13337     1   110.1900474 564.840000
  13328  13329  13330     1   111.5100476 526.347200
  13328  13329  13335     1   110.1900474 564.840000
  13329  13328  13336     1   110.1900474 564.840000
  13329  13330  13334     1   107.9700462 569.024000
  13329  13330  13346     1   107.9700462 569.024000
  13330  13329  13335     1   110.1900474 564.840000
  13334  13330  13346     1   108.2900466 608.353600
  13338  13324  13346     1   107.9700462 569.024000
  13347  13348  13351     1   111.5100476 526.347200
  13347  13348  13360     1   110.1900474 564.840000
  13347  13361  13367     1   110.1900474 564.840000
  13347  13369  13353     1   112.4800480 524.673600
  13348  13351  13352     1   111.5100476 526.347200
  13348  13351  13359     1   110.1900474 564.840000
  13348  13347  13361     1   111.5100476 526.347200
  13348  13347  13369     1   107.9700462 569.024000
  13351  13352  13353     1   111.5100476 526.347200
  13351  13352  13358     1   110.1900474 564.840000
  13351  13348  13360     1   110.1900474 564.840000
  13352  13353  13357     1   107.9700462 569.024000
  13352  13353  13369     1   107.9700462 569.024000
  13352  13351  13359     1   110.1900474 564.840000
  13353  13352  13358     1   110.1900474 564.840000
  13357  13353  13369     1   108.2900466 608.353600
  13361  13347  13369     1   107.9700462 569.024000
  13370  13371  13374     1   111.5100476 526.347200
  13370  13371  13383     1   110.1900474 564.840000
  13370  13384  13390     1   110.1900474 564.840000
  13370  13392  13376     1   112.4800480 524.673600
  13371  13370  13384     1   111.5100476 526.347200
  13371  13370  13392     1   107.9700462 569.024000
  13371  13374  13375     1   111.5100476 526.347200
  13371  13374  13382     1   110.1900474 564.840000
  13374  13371  13383     1   110.1900474 564.840000
  13374  13375  13376     1   111.5100476 526.347200
  13374  13375  13381     1   110.1900474 564.840000
  13375  13374  13382     1   110.1900474 564.840000
  13375  13376  13380     1   107.9700462 569.024000
  13375  13376  13392     1   107.9700462 569.024000
  13376  13375  13381     1   110.1900474 564.840000
  13380  13376  13392     1   108.2900466 608.353600
  13384  13370  13392     1   107.9700462 569.024000
  13393  13394  13397     1   111.5100476 526.347200
  13393  13394  13406     1   110.1900474 564.840000
  13393  13407  13413     1   110.1900474 564.840000
  13393  13415  13399     1   112.4800480 524.673600
  13394  13397  13398     1   111.5100476 526.347200
  13394  13397  13405     1   110.1900474 564.840000
  13394  13393  13407     1   111.5100476 526.347200
  13394  13393  13415     1   107.9700462 569.024000
  13397  13398  13399     1   111.5100476 526.347200
  13397  13398  13404     1   110.1900474 564.840000
  13397  13394  13406     1   110.1900474 564.840000
  13398  13399  13403     1   107.9700462 569.024000
  13398  13399  13415     1   107.9700462 569.024000
  13398  13397  13405     1   110.1900474 564.840000
  13399  13398  13404     1   110.1900474 564.840000
  13403  13399  13415     1   108.2900466 608.353600
  13407  13393  13415     1   107.9700462 569.024000
  13416  13417  13420     1   111.5100476 526.347200
  13416  13417  13429     1   110.1900474 564.840000
  13416  13430  13436     1   110.1900474 564.840000
  13416  13438  13422     1   112.4800480 524.673600
  13417  13416  13430     1   111.5100476 526.347200
  13417  13416  13438     1   107.9700462 569.024000
  13417  13420  13421     1   111.5100476 526.347200
  13417  13420  13428     1   110.1900474 564.840000
  13420  13417  13429     1   110.1900474 564.840000
  13420  13421  13422     1   111.5100476 526.347200
  13420  13421  13427     1   110.1900474 564.840000
  13421  13420  13428     1   110.1900474 564.840000
  13421  13422  13426     1   107.9700462 569.024000
  13421  13422  13438     1   107.9700462 569.024000
  13422  13421  13427     1   110.1900474 564.840000
  13426  13422  13438     1   108.2900466 608.353600
  13430  13416  13438     1   107.9700462 569.024000
  13439  13440  13443     1   111.5100476 526.347200
  13439  13440  13452     1   110.1900474 564.840000
  13439  13453  13459     1   110.1900474 564.840000
  13439  13461  13445     1   112.4800480 524.673600
  13440  13443  13444     1   111.5100476 526.347200
  13440  13443  13451     1   110.1900474 564.840000
  13440  13439  13453     1   111.5100476 526.347200
  13440  13439  13461     1   107.9700462 569.024000
  13443  13444  13445     1   111.5100476 526.347200
  13443  13444  13450     1   110.1900474 564.840000
  13443  13440  13452     1   110.1900474 564.840000
  13444  13445  13449     1   107.9700462 569.024000
  13444  13445  13461     1   107.9700462 569.024000
  13444  13443  13451     1   110.1900474 564.840000
  13445  13444  13450     1   110.1900474 564.840000
  13449  13445  13461     1   108.2900466 608.353600
  13453  13439  13461     1   107.9700462 569.024000
  13462  13463  13466     1   111.5100476 526.347200
  13462  13463  13475     1   110.1900474 564.840000
  13462  13476  13482     1   110.1900474 564.840000
  13462  13484  13468     1   112.4800480 524.673600
  13463  13462  13476     1   111.5100476 526.347200
  13463  13462  13484     1   107.9700462 569.024000
  13463  13466  13467     1   111.5100476 526.347200
  13463  13466  13474     1   110.1900474 564.840000
  13466  13463  13475     1   110.1900474 564.840000
  13466  13467  13468     1   111.5100476 526.347200
  13466  13467  13473     1   110.1900474 564.840000
  13467  13466  13474     1   110.1900474 564.840000
  13467  13468  13472     1   107.9700462 569.024000
  13467  13468  13484     1   107.9700462 569.024000
  13468  13467  13473     1   110.1900474 564.840000
  13472  13468  13484     1   108.2900466 608.353600
  13476  13462  13484     1   107.9700462 569.024000
  13485  13486  13489     1   111.5100476 526.347200
  13485  13486  13498     1   110.1900474 564.840000
  13485  13499  13505     1   110.1900474 564.840000
  13485  13507  13491     1   112.4800480 524.673600
  13486  13489  13490     1   111.5100476 526.347200
  13486  13489  13497     1   110.1900474 564.840000
  13486  13485  13499     1   111.5100476 526.347200
  13486  13485  13507     1   107.9700462 569.024000
  13489  13490  13491     1   111.5100476 526.347200
  13489  13490  13496     1   110.1900474 564.840000
  13489  13486  13498     1   110.1900474 564.840000
  13490  13491  13495     1   107.9700462 569.024000
  13490  13491  13507     1   107.9700462 569.024000
  13490  13489  13497     1   110.1900474 564.840000
  13491  13490  13496     1   110.1900474 564.840000
  13495  13491  13507     1   108.2900466 608.353600
  13499  13485  13507     1   107.9700462 569.024000
      1      2      3     1   109.7800468 425.094400
      1      2      4     1   109.7800468 425.094400
      1      5      6     1   109.7800468 425.094400
      1      5      7     1   109.7800468 425.094400
      2      8      9     1   109.8000471 387.438400
      2      8     10     1   109.8000471 387.438400
      3      2      8     1   109.5600471 388.275200
      3      2      4     1   108.4600466 328.025600
      4      2      8     1   109.5600471 388.275200
      5     11     12     1   109.8000471 387.438400
      5     11     13     1   109.8000471 387.438400
      6      5     11     1   109.5600471 388.275200
      6      5      7     1   108.4600466 328.025600
      7      5     11     1   109.5600471 388.275200
      8     14     15     1   110.5600475 386.601600
      8     14     16     1   110.5600475 386.601600
      9      8     14     1   109.8000471 387.438400
      9      8     10     1   107.5800459 329.699200
     10      8     14     1   109.8000471 387.438400
     11     17     18     1   110.5600475 386.601600
     11     17     19     1   110.5600475 386.601600
     12     11     17     1   109.8000471 387.438400
     12     11     13     1   107.5800459 329.699200
     13     11     17     1   109.8000471 387.438400
     14     20     58     1   110.1100470 384.091200
     15     14     20     1   108.0100461 406.684800
     15     14     16     1   109.7500473 328.025600
     16     14     20     1   108.0100461 406.684800
     17     21     59     1   110.1100470 384.091200
     18     17     21     1   108.0100461 406.684800
     18     17     19     1   109.7500473 328.025600
     19     17     21     1   108.0100461 406.684800
     20     28     29     1   108.0100461 406.684800
     20     28     30     1   108.0100461 406.684800
     20     31     32     1   108.0100461 406.684800
     20     31     33     1   108.0100461 406.684800
     21     22     23     1   108.0100461 406.684800
     21     22     24     1   108.0100461 406.684800
     21     25     26     1   108.0100461 406.684800
     21     25     27     1   108.0100461 406.684800
     22     21     59     1   110.1100470 384.091200
     22     34     35     1   109.8000471 387.438400
     22     34     36     1   109.8000471 387.438400
     23     22     34     1   110.5600475 386.601600
     23     22     24     1   109.7500473 328.025600
     24     22     34     1   110.5600475 386.601600
     25     21     59     1   110.1100470 384.091200
     25     37     38     1   109.8000471 387.438400
     25     37     39     1   109.8000471 387.438400
     26     25     37     1   110.5600475 386.601600
     26     25     27     1   109.7500473 328.025600
     27     25     37     1   110.5600475 386.601600
     28     20     58     1   110.1100470 384.091200
     28     40     41     1   109.8000471 387.438400
     28     40     42     1   109.8000471 387.438400
     29     28     40     1   110.5600475 386.601600
     29     28     30     1   109.7500473 328.025600
     30     28     40     1   110.5600475 386.601600
     31     20     58     1   110.1100470 384.091200
     31     43     44     1   109.8000471 387.438400
     31     43     45     1   109.8000471 387.438400
     32     31     43     1   110.5600475 386.601600
     32     31     33     1   109.7500473 328.025600
     33     31     43     1   110.5600475 386.601600
     34     55     56     1   109.8000471 387.438400
     34     55     57     1   109.8000471 387.438400
     35     34     55     1   109.8000471 387.438400
     35     34     36     1   107.5800459 329.699200
     36     34     55     1   109.8000471 387.438400
     37     52     53     1   109.8000471 387.438400
     37     52     54     1   109.8000471 387.438400
     38     37     52     1   109.8000471 387.438400
     38     37     39     1   107.5800459 329.699200
     39     37     52     1   109.8000471 387.438400
     40     49     50     1   109.8000471 387.438400
     40     49     51     1   109.8000471 387.438400
     41     40     49     1   109.8000471 387.438400
     41     40     42     1   107.5800459 329.699200
     42     40     49     1   109.8000471 387.438400
     43     46     47     1   109.8000471 387.438400
     43     46     48     1   109.8000471 387.438400
     44     43     46     1   109.8000471 387.438400
     44     43     45     1   107.5800459 329.699200
     45     43     46     1   109.8000471 387.438400
     47     46     88     1   108.7000466 426.768000
     47     46     48     1   107.5800459 329.699200
     48     46     88     1   108.7000466 426.768000
     50     49    118     1   108.7000466 426.768000
     50     49     51     1   107.5800459 329.699200
     51     49    118     1   108.7000466 426.768000
     53     52    148     1   108.7000466 426.768000
     53     52     54     1   107.5800459 329.699200
     54     52    148     1   108.7000466 426.768000
     56     55    178     1   108.7000466 426.768000
     56     55     57     1   107.5800459 329.699200
     57     55    178     1   108.7000466 426.768000
     60     61     62     1   108.0100461 406.684800
     60     61     63     1   108.0100461 406.684800
     60     64     65     1   108.0100461 406.684800
     60     64     66     1   108.0100461 406.684800
     60     67     68     1   108.0100461 406.684800
     60     67     69     1   108.0100461 406.684800
     61     60     89     1   110.1100470 384.091200
     61     73     74     1   109.8000471 387.438400
     61     73     75     1   109.8000471 387.438400
     62     61     73     1   110.5600475 386.601600
     62     61     63     1   109.7500473 328.025600
     63     61     73     1   110.5600475 386.601600
     64     60     89     1   110.1100470 384.091200
     64     76     77     1   109.8000471 387.438400
     64     76     78     1   109.8000471 387.438400
     65     64     76     1   110.5600475 386.601600
     65     64     66     1   109.7500473 328.025600
     66     64     76     1   110.5600475 386.601600
     67     60     89     1   110.1100470 384.091200
     67     70     71     1   109.8000471 387.438400
     67     70     72     1   109.8000471 387.438400
     68     67     70     1   110.5600475 386.601600
     68     67     69     1   109.7500473 328.025600
     69     67     70     1   110.5600475 386.601600
     70     79     80     1   109.5600471 388.275200
     70     79     81     1   109.5600471 388.275200
     71     70     79     1   109.8000471 387.438400
     71     70     72     1   107.5800459 329.699200
     72     70     79     1   109.8000471 387.438400
     73     85     86     1   109.5600471 388.275200
     73     85     87     1   109.5600471 388.275200
     74     73     85     1   109.8000471 387.438400
     74     73     75     1   107.5800459 329.699200
     75     73     85     1   109.8000471 387.438400
     76     82     83     1   109.5600471 388.275200
     76     82     84     1   109.5600471 388.275200
     77     76     82     1   109.8000471 387.438400
     77     76     78     1   107.5800459 329.699200
     78     76     82     1   109.8000471 387.438400
     80     79     88     1   109.7800468 425.094400
     80     79     81     1   108.4600466 328.025600
     81     79     88     1   109.7800468 425.094400
     83     82    208     1   109.7800468 425.094400
     83     82     84     1   108.4600466 328.025600
     84     82    208     1   109.7800468 425.094400
     86     85    238     1   109.7800468 425.094400
     86     85     87     1   108.4600466 328.025600
     87     85    238     1   109.7800468 425.094400
     90     91     92     1   108.0100461 406.684800
     90     91     93     1   108.0100461 406.684800
     90     94     95     1   108.0100461 406.684800
     90     94     96     1   108.0100461 406.684800
     90     97     98     1   108.0100461 406.684800
     90     97     99     1   108.0100461 406.684800
     91     90    119     1   110.1100470 384.091200
     91    103    104     1   109.8000471 387.438400
     91    103    105     1   109.8000471 387.438400
     92     91    103     1   110.5600475 386.601600
     92     91     93     1   109.7500473 328.025600
     93     91    103     1   110.5600475 386.601600
     94     90    119     1   110.1100470 384.091200
     94    106    107     1   109.8000471 387.438400
     94    106    108     1   109.8000471 387.438400
     95     94    106     1   110.5600475 386.601600
     95     94     96     1   109.7500473 328.025600
     96     94    106     1   110.5600475 386.601600
     97     90    119     1   110.1100470 384.091200
     97    100    101     1   109.8000471 387.438400
     97    100    102     1   109.8000471 387.438400
     98     97    100     1   110.5600475 386.601600
     98     97     99     1   109.7500473 328.025600
     99     97    100     1   110.5600475 386.601600
    100    109    110     1   109.5600471 388.275200
    100    109    111     1   109.5600471 388.275200
    101    100    109     1   109.8000471 387.438400
    101    100    102     1   107.5800459 329.699200
    102    100    109     1   109.8000471 387.438400
    103    115    116     1   109.5600471 388.275200
    103    115    117     1   109.5600471 388.275200
    104    103    115     1   109.8000471 387.438400
    104    103    105     1   107.5800459 329.699200
    105    103    115     1   109.8000471 387.438400
    106    112    113     1   109.5600471 388.275200
    106    112    114     1   109.5600471 388.275200
    107    106    112     1   109.8000471 387.438400
    107    106    108     1   107.5800459 329.699200
    108    106    112     1   109.8000471 387.438400
    110    109    118     1   109.7800468 425.094400
    110    109    111     1   108.4600466 328.025600
    111    109    118     1   109.7800468 425.094400
    113    112    268     1   109.7800468 425.094400
    113    112    114     1   108.4600466 328.025600
    114    112    268     1   109.7800468 425.094400
    116    115    298     1   109.7800468 425.094400
    116    115    117     1   108.4600466 328.025600
    117    115    298     1   109.7800468 425.094400
    120    121    122     1   108.0100461 406.684800
    120    121    123     1   108.0100461 406.684800
    120    124    125     1   108.0100461 406.684800
    120    124    126     1   108.0100461 406.684800
    120    127    128     1   108.0100461 406.684800
    120    127    129     1   108.0100461 406.684800
    121    120    149     1   110.1100470 384.091200
    121    133    134     1   109.8000471 387.438400
    121    133    135     1   109.8000471 387.438400
    122    121    133     1   110.5600475 386.601600
    122    121    123     1   109.7500473 328.025600
    123    121    133     1   110.5600475 386.601600
    124    120    149     1   110.1100470 384.091200
    124    136    137     1   109.8000471 387.438400
    124    136    138     1   109.8000471 387.438400
    125    124    136     1   110.5600475 386.601600
    125    124    126     1   109.7500473 328.025600
    126    124    136     1   110.5600475 386.601600
    127    120    149     1   110.1100470 384.091200
    127    130    131     1   109.8000471 387.438400
    127    130    132     1   109.8000471 387.438400
    128    127    130     1   110.5600475 386.601600
    128    127    129     1   109.7500473 328.025600
    129    127    130     1   110.5600475 386.601600
    130    139    140     1   109.5600471 388.275200
    130    139    141     1   109.5600471 388.275200
    131    130    139     1   109.8000471 387.438400
    131    130    132     1   107.5800459 329.699200
    132    130    139     1   109.8000471 387.438400
    133    145    146     1   109.5600471 388.275200
    133    145    147     1   109.5600471 388.275200
    134    133    145     1   109.8000471 387.438400
    134    133    135     1   107.5800459 329.699200
    135    133    145     1   109.8000471 387.438400
    136    142    143     1   109.5600471 388.275200
    136    142    144     1   109.5600471 388.275200
    137    136    142     1   109.8000471 387.438400
    137    136    138     1   107.5800459 329.699200
    138    136    142     1   109.8000471 387.438400
    140    139    148     1   109.7800468 425.094400
    140    139    141     1   108.4600466 328.025600
    141    139    148     1   109.7800468 425.094400
    143    142    328     1   109.7800468 425.094400
    143    142    144     1   108.4600466 328.025600
    144    142    328     1   109.7800468 425.094400
    146    145    358     1   109.7800468 425.094400
    146    145    147     1   108.4600466 328.025600
    147    145    358     1   109.7800468 425.094400
    150    151    152     1   108.0100461 406.684800
    150    151    153     1   108.0100461 406.684800
    150    154    155     1   108.0100461 406.684800
    150    154    156     1   108.0100461 406.684800
    150    157    158     1   108.0100461 406.684800
    150    157    159     1   108.0100461 406.684800
    151    150    179     1   110.1100470 384.091200
    151    163    164     1   109.8000471 387.438400
    151    163    165     1   109.8000471 387.438400
    152    151    163     1   110.5600475 386.601600
    152    151    153     1   109.7500473 328.025600
    153    151    163     1   110.5600475 386.601600
    154    150    179     1   110.1100470 384.091200
    154    166    167     1   109.8000471 387.438400
    154    166    168     1   109.8000471 387.438400
    155    154    166     1   110.5600475 386.601600
    155    154    156     1   109.7500473 328.025600
    156    154    166     1   110.5600475 386.601600
    157    150    179     1   110.1100470 384.091200
    157    160    161     1   109.8000471 387.438400
    157    160    162     1   109.8000471 387.438400
    158    157    160     1   110.5600475 386.601600
    158    157    159     1   109.7500473 328.025600
    159    157    160     1   110.5600475 386.601600
    160    169    170     1   109.5600471 388.275200
    160    169    171     1   109.5600471 388.275200
    161    160    169     1   109.8000471 387.438400
    161    160    162     1   107.5800459 329.699200
    162    160    169     1   109.8000471 387.438400
    163    175    176     1   109.5600471 388.275200
    163    175    177     1   109.5600471 388.275200
    164    163    175     1   109.8000471 387.438400
    164    163    165     1   107.5800459 329.699200
    165    163    175     1   109.8000471 387.438400
    166    172    173     1   109.5600471 388.275200
    166    172    174     1   109.5600471 388.275200
    167    166    172     1   109.8000471 387.438400
    167    166    168     1   107.5800459 329.699200
    168    166    172     1   109.8000471 387.438400
    170    169    178     1   109.7800468 425.094400
    170    169    171     1   108.4600466 328.025600
    171    169    178     1   109.7800468 425.094400
    173    172    388     1   109.7800468 425.094400
    173    172    174     1   108.4600466 328.025600
    174    172    388     1   109.7800468 425.094400
    176    175    418     1   109.7800468 425.094400
    176    175    177     1   108.4600466 328.025600
    177    175    418     1   109.7800468 425.094400
    180    181    182     1   108.0100461 406.684800
    180    181    183     1   108.0100461 406.684800
    180    184    185     1   108.0100461 406.684800
    180    184    186     1   108.0100461 406.684800
    180    187    188     1   108.0100461 406.684800
    180    187    189     1   108.0100461 406.684800
    181    180    209     1   110.1100470 384.091200
    181    193    194     1   109.8000471 387.438400
    181    193    195     1   109.8000471 387.438400
    182    181    193     1   110.5600475 386.601600
    182    181    183     1   109.7500473 328.025600
    183    181    193     1   110.5600475 386.601600
    184    180    209     1   110.1100470 384.091200
    184    196    197     1   109.8000471 387.438400
    184    196    198     1   109.8000471 387.438400
    185    184    196     1   110.5600475 386.601600
    185    184    186     1   109.7500473 328.025600
    186    184    196     1   110.5600475 386.601600
    187    180    209     1   110.1100470 384.091200
    187    190    191     1   109.8000471 387.438400
    187    190    192     1   109.8000471 387.438400
    188    187    190     1   110.5600475 386.601600
    188    187    189     1   109.7500473 328.025600
    189    187    190     1   110.5600475 386.601600
    190    199    200     1   109.5600471 388.275200
    190    199    201     1   109.5600471 388.275200
    191    190    199     1   109.8000471 387.438400
    191    190    192     1   107.5800459 329.699200
    192    190    199     1   109.8000471 387.438400
    193    205    206     1   109.5600471 388.275200
    193    205    207     1   109.5600471 388.275200
    194    193    205     1   109.8000471 387.438400
    194    193    195     1   107.5800459 329.699200
    195    193    205     1   109.8000471 387.438400
    196    202    203     1   109.5600471 388.275200
    196    202    204     1   109.5600471 388.275200
    197    196    202     1   109.8000471 387.438400
    197    196    198     1   107.5800459 329.699200
    198    196    202     1   109.8000471 387.438400
    200    199    208     1   109.7800468 425.094400
    200    199    201     1   108.4600466 328.025600
    201    199    208     1   109.7800468 425.094400
    203    202    448     1   109.7800468 425.094400
    203    202    204     1   108.4600466 328.025600
    204    202    448     1   109.7800468 425.094400
    206    205    478     1   109.7800468 425.094400
    206    205    207     1   108.4600466 328.025600
    207    205    478     1   109.7800468 425.094400
    210    211    212     1   108.0100461 406.684800
    210    211    213     1   108.0100461 406.684800
    210    214    215     1   108.0100461 406.684800
    210    214    216     1   108.0100461 406.684800
    210    217    218     1   108.0100461 406.684800
    210    217    219     1   108.0100461 406.684800
    211    210    239     1   110.1100470 384.091200
    211    223    224     1   109.8000471 387.438400
    211    223    225     1   109.8000471 387.438400
    212    211    223     1   110.5600475 386.601600
    212    211    213     1   109.7500473 328.025600
    213    211    223     1   110.5600475 386.601600
    214    210    239     1   110.1100470 384.091200
    214    226    227     1   109.8000471 387.438400
    214    226    228     1   109.8000471 387.438400
    215    214    226     1   110.5600475 386.601600
    215    214    216     1   109.7500473 328.025600
    216    214    226     1   110.5600475 386.601600
    217    210    239     1   110.1100470 384.091200
    217    220    221     1   109.8000471 387.438400
    217    220    222     1   109.8000471 387.438400
    218    217    220     1   110.5600475 386.601600
    218    217    219     1   109.7500473 328.025600
    219    217    220     1   110.5600475 386.601600
    220    229    230     1   109.5600471 388.275200
    220    229    231     1   109.5600471 388.275200
    221    220    229     1   109.8000471 387.438400
    221    220    222     1   107.5800459 329.699200
    222    220    229     1   109.8000471 387.438400
    223    235    236     1   109.5600471 388.275200
    223    235    237     1   109.5600471 388.275200
    224    223    235     1   109.8000471 387.438400
    224    223    225     1   107.5800459 329.699200
    225    223    235     1   109.8000471 387.438400
    226    232    233     1   109.5600471 388.275200
    226    232    234     1   109.5600471 388.275200
    227    226    232     1   109.8000471 387.438400
    227    226    228     1   107.5800459 329.699200
    228    226    232     1   109.8000471 387.438400
    230    229    238     1   109.7800468 425.094400
    230    229    231     1   108.4600466 328.025600
    231    229    238     1   109.7800468 425.094400
    233    232    508     1   109.7800468 425.094400
    233    232    234     1   108.4600466 328.025600
    234    232    508     1   109.7800468 425.094400
    236    235    538     1   109.7800468 425.094400
    236    235    237     1   108.4600466 328.025600
    237    235    538     1   109.7800468 425.094400
    240    241    242     1   108.0100461 406.684800
    240    241    243     1   108.0100461 406.684800
    240    244    245     1   108.0100461 406.684800
    240    244    246     1   108.0100461 406.684800
    240    247    248     1   108.0100461 406.684800
    240    247    249     1   108.0100461 406.684800
    241    240    269     1   110.1100470 384.091200
    241    253    254     1   109.8000471 387.438400
    241    253    255     1   109.8000471 387.438400
    242    241    253     1   110.5600475 386.601600
    242    241    243     1   109.7500473 328.025600
    243    241    253     1   110.5600475 386.601600
    244    240    269     1   110.1100470 384.091200
    244    256    257     1   109.8000471 387.438400
    244    256    258     1   109.8000471 387.438400
    245    244    256     1   110.5600475 386.601600
    245    244    246     1   109.7500473 328.025600
    246    244    256     1   110.5600475 386.601600
    247    240    269     1   110.1100470 384.091200
    247    250    251     1   109.8000471 387.438400
    247    250    252     1   109.8000471 387.438400
    248    247    250     1   110.5600475 386.601600
    248    247    249     1   109.7500473 328.025600
    249    247    250     1   110.5600475 386.601600
    250    259    260     1   109.5600471 388.275200
    250    259    261     1   109.5600471 388.275200
    251    250    259     1   109.8000471 387.438400
    251    250    252     1   107.5800459 329.699200
    252    250    259     1   109.8000471 387.438400
    253    265    266     1   109.5600471 388.275200
    253    265    267     1   109.5600471 388.275200
    254    253    265     1   109.8000471 387.438400
    254    253    255     1   107.5800459 329.699200
    255    253    265     1   109.8000471 387.438400
    256    262    263     1   109.5600471 388.275200
    256    262    264     1   109.5600471 388.275200
    257    256    262     1   109.8000471 387.438400
    257    256    258     1   107.5800459 329.699200
    258    256    262     1   109.8000471 387.438400
    260    259    268     1   109.7800468 425.094400
    260    259    261     1   108.4600466 328.025600
    261    259    268     1   109.7800468 425.094400
    263    262    568     1   109.7800468 425.094400
    263    262    264     1   108.4600466 328.025600
    264    262    568     1   109.7800468 425.094400
    266    265    598     1   109.7800468 425.094400
    266    265    267     1   108.4600466 328.025600
    267    265    598     1   109.7800468 425.094400
    270    271    272     1   108.0100461 406.684800
    270    271    273     1   108.0100461 406.684800
    270    274    275     1   108.0100461 406.684800
    270    274    276     1   108.0100461 406.684800
    270    277    278     1   108.0100461 406.684800
    270    277    279     1   108.0100461 406.684800
    271    270    299     1   110.1100470 384.091200
    271    283    284     1   109.8000471 387.438400
    271    283    285     1   109.8000471 387.438400
    272    271    283     1   110.5600475 386.601600
    272    271    273     1   109.7500473 328.025600
    273    271    283     1   110.5600475 386.601600
    274    270    299     1   110.1100470 384.091200
    274    286    287     1   109.8000471 387.438400
    274    286    288     1   109.8000471 387.438400
    275    274    286     1   110.5600475 386.601600
    275    274    276     1   109.7500473 328.025600
    276    274    286     1   110.5600475 386.601600
    277    270    299     1   110.1100470 384.091200
    277    280    281     1   109.8000471 387.438400
    277    280    282     1   109.8000471 387.438400
    278    277    280     1   110.5600475 386.601600
    278    277    279     1   109.7500473 328.025600
    279    277    280     1   110.5600475 386.601600
    280    289    290     1   109.5600471 388.275200
    280    289    291     1   109.5600471 388.275200
    281    280    289     1   109.8000471 387.438400
    281    280    282     1   107.5800459 329.699200
    282    280    289     1   109.8000471 387.438400
    283    295    296     1   109.5600471 388.275200
    283    295    297     1   109.5600471 388.275200
    284    283    295     1   109.8000471 387.438400
    284    283    285     1   107.5800459 329.699200
    285    283    295     1   109.8000471 387.438400
    286    292    293     1   109.5600471 388.275200
    286    292    294     1   109.5600471 388.275200
    287    286    292     1   109.8000471 387.438400
    287    286    288     1   107.5800459 329.699200
    288    286    292     1   109.8000471 387.438400
    290    289    298     1   109.7800468 425.094400
    290    289    291     1   108.4600466 328.025600
    291    289    298     1   109.7800468 425.094400
    293    292    628     1   109.7800468 425.094400
    293    292    294     1   108.4600466 328.025600
    294    292    628     1   109.7800468 425.094400
    296    295    658     1   109.7800468 425.094400
    296    295    297     1   108.4600466 328.025600
    297    295    658     1   109.7800468 425.094400
    300    301    302     1   108.0100461 406.684800
    300    301    303     1   108.0100461 406.684800
    300    304    305     1   108.0100461 406.684800
    300    304    306     1   108.0100461 406.684800
    300    307    308     1   108.0100461 406.684800
    300    307    309     1   108.0100461 406.684800
    301    300    329     1   110.1100470 384.091200
    301    313    314     1   109.8000471 387.438400
    301    313    315     1   109.8000471 387.438400
    302    301    313     1   110.5600475 386.601600
    302    301    303     1   109.7500473 328.025600
    303    301    313     1   110.5600475 386.601600
    304    300    329     1   110.1100470 384.091200
    304    316    317     1   109.8000471 387.438400
    304    316    318     1   109.8000471 387.438400
    305    304    316     1   110.5600475 386.601600
    305    304    306     1   109.7500473 328.025600
    306    304    316     1   110.5600475 386.601600
    307    300    329     1   110.1100470 384.091200
    307    310    311     1   109.8000471 387.438400
    307    310    312     1   109.8000471 387.438400
    308    307    310     1   110.5600475 386.601600
    308    307    309     1   109.7500473 328.025600
    309    307    310     1   110.5600475 386.601600
    310    319    320     1   109.5600471 388.275200
    310    319    321     1   109.5600471 388.275200
    311    310    319     1   109.8000471 387.438400
    311    310    312     1   107.5800459 329.699200
    312    310    319     1   109.8000471 387.438400
    313    325    326     1   109.5600471 388.275200
    313    325    327     1   109.5600471 388.275200
    314    313    325     1   109.8000471 387.438400
    314    313    315     1   107.5800459 329.699200
    315    313    325     1   109.8000471 387.438400
    316    322    323     1   109.5600471 388.275200
    316    322    324     1   109.5600471 388.275200
    317    316    322     1   109.8000471 387.438400
    317    316    318     1   107.5800459 329.699200
    318    316    322     1   109.8000471 387.438400
    320    319    328     1   109.7800468 425.094400
    320    319    321     1   108.4600466 328.025600
    321    319    328     1   109.7800468 425.094400
    323    322    688     1   109.7800468 425.094400
    323    322    324     1   108.4600466 328.025600
    324    322    688     1   109.7800468 425.094400
    326    325    718     1   109.7800468 425.094400
    326    325    327     1   108.4600466 328.025600
    327    325    718     1   109.7800468 425.094400
    330    331    332     1   108.0100461 406.684800
    330    331    333     1   108.0100461 406.684800
    330    334    335     1   108.0100461 406.684800
    330    334    336     1   108.0100461 406.684800
    330    337    338     1   108.0100461 406.684800
    330    337    339     1   108.0100461 406.684800
    331    330    359     1   110.1100470 384.091200
    331    343    344     1   109.8000471 387.438400
    331    343    345     1   109.8000471 387.438400
    332    331    343     1   110.5600475 386.601600
    332    331    333     1   109.7500473 328.025600
    333    331    343     1   110.5600475 386.601600
    334    330    359     1   110.1100470 384.091200
    334    346    347     1   109.8000471 387.438400
    334    346    348     1   109.8000471 387.438400
    335    334    346     1   110.5600475 386.601600
    335    334    336     1   109.7500473 328.025600
    336    334    346     1   110.5600475 386.601600
    337    330    359     1   110.1100470 384.091200
    337    340    341     1   109.8000471 387.438400
    337    340    342     1   109.8000471 387.438400
    338    337    340     1   110.5600475 386.601600
    338    337    339     1   109.7500473 328.025600
    339    337    340     1   110.5600475 386.601600
    340    349    350     1   109.5600471 388.275200
    340    349    351     1   109.5600471 388.275200
    341    340    349     1   109.8000471 387.438400
    341    340    342     1   107.5800459 329.699200
    342    340    349     1   109.8000471 387.438400
    343    355    356     1   109.5600471 388.275200
    343    355    357     1   109.5600471 388.275200
    344    343    355     1   109.8000471 387.438400
    344    343    345     1   107.5800459 329.699200
    345    343    355     1   109.8000471 387.438400
    346    352    353     1   109.5600471 388.275200
    346    352    354     1   109.5600471 388.275200
    347    346    352     1   109.8000471 387.438400
    347    346    348     1   107.5800459 329.699200
    348    346    352     1   109.8000471 387.438400
    350    349    358     1   109.7800468 425.094400
    350    349    351     1   108.4600466 328.025600
    351    349    358     1   109.7800468 425.094400
    353    352    748     1   109.7800468 425.094400
    353    352    354     1   108.4600466 328.025600
    354    352    748     1   109.7800468 425.094400
    356    355    778     1   109.7800468 425.094400
    356    355    357     1   108.4600466 328.025600
    357    355    778     1   109.7800468 425.094400
    360    361    362     1   108.0100461 406.684800
    360    361    363     1   108.0100461 406.684800
    360    364    365     1   108.0100461 406.684800
    360    364    366     1   108.0100461 406.684800
    360    367    368     1   108.0100461 406.684800
    360    367    369     1   108.0100461 406.684800
    361    360    389     1   110.1100470 384.091200
    361    373    374     1   109.8000471 387.438400
    361    373    375     1   109.8000471 387.438400
    362    361    373     1   110.5600475 386.601600
    362    361    363     1   109.7500473 328.025600
    363    361    373     1   110.5600475 386.601600
    364    360    389     1   110.1100470 384.091200
    364    376    377     1   109.8000471 387.438400
    364    376    378     1   109.8000471 387.438400
    365    364    376     1   110.5600475 386.601600
    365    364    366     1   109.7500473 328.025600
    366    364    376     1   110.5600475 386.601600
    367    360    389     1   110.1100470 384.091200
    367    370    371     1   109.8000471 387.438400
    367    370    372     1   109.8000471 387.438400
    368    367    370     1   110.5600475 386.601600
    368    367    369     1   109.7500473 328.025600
    369    367    370     1   110.5600475 386.601600
    370    379    380     1   109.5600471 388.275200
    370    379    381     1   109.5600471 388.275200
    371    370    379     1   109.8000471 387.438400
    371    370    372     1   107.5800459 329.699200
    372    370    379     1   109.8000471 387.438400
    373    385    386     1   109.5600471 388.275200
    373    385    387     1   109.5600471 388.275200
    374    373    385     1   109.8000471 387.438400
    374    373    375     1   107.5800459 329.699200
    375    373    385     1   109.8000471 387.438400
    376    382    383     1   109.5600471 388.275200
    376    382    384     1   109.5600471 388.275200
    377    376    382     1   109.8000471 387.438400
    377    376    378     1   107.5800459 329.699200
    378    376    382     1   109.8000471 387.438400
    380    379    388     1   109.7800468 425.094400
    380    379    381     1   108.4600466 328.025600
    381    379    388     1   109.7800468 425.094400
    383    382    808     1   109.7800468 425.094400
    383    382    384     1   108.4600466 328.025600
    384    382    808     1   109.7800468 425.094400
    386    385    838     1   109.7800468 425.094400
    386    385    387     1   108.4600466 328.025600
    387    385    838     1   109.7800468 425.094400
    390    391    392     1   108.0100461 406.684800
    390    391    393     1   108.0100461 406.684800
    390    394    395     1   108.0100461 406.684800
    390    394    396     1   108.0100461 406.684800
    390    397    398     1   108.0100461 406.684800
    390    397    399     1   108.0100461 406.684800
    391    390    419     1   110.1100470 384.091200
    391    403    404     1   109.8000471 387.438400
    391    403    405     1   109.8000471 387.438400
    392    391    403     1   110.5600475 386.601600
    392    391    393     1   109.7500473 328.025600
    393    391    403     1   110.5600475 386.601600
    394    390    419     1   110.1100470 384.091200
    394    406    407     1   109.8000471 387.438400
    394    406    408     1   109.8000471 387.438400
    395    394    406     1   110.5600475 386.601600
    395    394    396     1   109.7500473 328.025600
    396    394    406     1   110.5600475 386.601600
    397    390    419     1   110.1100470 384.091200
    397    400    401     1   109.8000471 387.438400
    397    400    402     1   109.8000471 387.438400
    398    397    400     1   110.5600475 386.601600
    398    397    399     1   109.7500473 328.025600
    399    397    400     1   110.5600475 386.601600
    400    409    410     1   109.5600471 388.275200
    400    409    411     1   109.5600471 388.275200
    401    400    409     1   109.8000471 387.438400
    401    400    402     1   107.5800459 329.699200
    402    400    409     1   109.8000471 387.438400
    403    415    416     1   109.5600471 388.275200
    403    415    417     1   109.5600471 388.275200
    404    403    415     1   109.8000471 387.438400
    404    403    405     1   107.5800459 329.699200
    405    403    415     1   109.8000471 387.438400
    406    412    413     1   109.5600471 388.275200
    406    412    414     1   109.5600471 388.275200
    407    406    412     1   109.8000471 387.438400
    407    406    408     1   107.5800459 329.699200
    408    406    412     1   109.8000471 387.438400
    410    409    418     1   109.7800468 425.094400
    410    409    411     1   108.4600466 328.025600
    411    409    418     1   109.7800468 425.094400
    413    412    868     1   109.7800468 425.094400
    413    412    414     1   108.4600466 328.025600
    414    412    868     1   109.7800468 425.094400
    416    415    898     1   109.7800468 425.094400
    416    415    417     1   108.4600466 328.025600
    417    415    898     1   109.7800468 425.094400
    420    421    422     1   108.0100461 406.684800
    420    421    423     1   108.0100461 406.684800
    420    424    425     1   108.0100461 406.684800
    420    424    426     1   108.0100461 406.684800
    420    427    428     1   108.0100461 406.684800
    420    427    429     1   108.0100461 406.684800
    421    420    449     1   110.1100470 384.091200
    421    433    434     1   109.8000471 387.438400
    421    433    435     1   109.8000471 387.438400
    422    421    433     1   110.5600475 386.601600
    422    421    423     1   109.7500473 328.025600
    423    421    433     1   110.5600475 386.601600
    424    420    449     1   110.1100470 384.091200
    424    436    437     1   109.8000471 387.438400
    424    436    438     1   109.8000471 387.438400
    425    424    436     1   110.5600475 386.601600
    425    424    426     1   109.7500473 328.025600
    426    424    436     1   110.5600475 386.601600
    427    420    449     1   110.1100470 384.091200
    427    430    431     1   109.8000471 387.438400
    427    430    432     1   109.8000471 387.438400
    428    427    430     1   110.5600475 386.601600
    428    427    429     1   109.7500473 328.025600
    429    427    430     1   110.5600475 386.601600
    430    439    440     1   109.5600471 388.275200
    430    439    441     1   109.5600471 388.275200
    431    430    439     1   109.8000471 387.438400
    431    430    432     1   107.5800459 329.699200
    432    430    439     1   109.8000471 387.438400
    433    445    446     1   109.5600471 388.275200
    433    445    447     1   109.5600471 388.275200
    434    433    445     1   109.8000471 387.438400
    434    433    435     1   107.5800459 329.699200
    435    433    445     1   109.8000471 387.438400
    436    442    443     1   109.5600471 388.275200
    436    442    444     1   109.5600471 388.275200
    437    436    442     1   109.8000471 387.438400
    437    436    438     1   107.5800459 329.699200
    438    436    442     1   109.8000471 387.438400
    440    439    448     1   109.7800468 425.094400
    440    439    441     1   108.4600466 328.025600
    441    439    448     1   109.7800468 425.094400
    443    442    928     1   109.7800468 425.094400
    443    442    444     1   108.4600466 328.025600
    444    442    928     1   109.7800468 425.094400
    446    445    958     1   109.7800468 425.094400
    446    445    447     1   108.4600466 328.025600
    447    445    958     1   109.7800468 425.094400
    450    451    452     1   108.0100461 406.684800
    450    451    453     1   108.0100461 406.684800
    450    454    455     1   108.0100461 406.684800
    450    454    456     1   108.0100461 406.684800
    450    457    458     1   108.0100461 406.684800
    450    457    459     1   108.0100461 406.684800
    451    450    479     1   110.1100470 384.091200
    451    463    464     1   109.8000471 387.438400
    451    463    465     1   109.8000471 387.438400
    452    451    463     1   110.5600475 386.601600
    452    451    453     1   109.7500473 328.025600
    453    451    463     1   110.5600475 386.601600
    454    450    479     1   110.1100470 384.091200
    454    466    467     1   109.8000471 387.438400
    454    466    468     1   109.8000471 387.438400
    455    454    466     1   110.5600475 386.601600
    455    454    456     1   109.7500473 328.025600
    456    454    466     1   110.5600475 386.601600
    457    450    479     1   110.1100470 384.091200
    457    460    461     1   109.8000471 387.438400
    457    460    462     1   109.8000471 387.438400
    458    457    460     1   110.5600475 386.601600
    458    457    459     1   109.7500473 328.025600
    459    457    460     1   110.5600475 386.601600
    460    469    470     1   109.5600471 388.275200
    460    469    471     1   109.5600471 388.275200
    461    460    469     1   109.8000471 387.438400
    461    460    462     1   107.5800459 329.699200
    462    460    469     1   109.8000471 387.438400
    463    475    476     1   109.5600471 388.275200
    463    475    477     1   109.5600471 388.275200
    464    463    475     1   109.8000471 387.438400
    464    463    465     1   107.5800459 329.699200
    465    463    475     1   109.8000471 387.438400
    466    472    473     1   109.5600471 388.275200
    466    472    474     1   109.5600471 388.275200
    467    466    472     1   109.8000471 387.438400
    467    466    468     1   107.5800459 329.699200
    468    466    472     1   109.8000471 387.438400
    470    469    478     1   109.7800468 425.094400
    470    469    471     1   108.4600466 328.025600
    471    469    478     1   109.7800468 425.094400
    473    472    988     1   109.7800468 425.094400
    473    472    474     1   108.4600466 328.025600
    474    472    988     1   109.7800468 425.094400
    476    475   1018     1   109.7800468 425.094400
    476    475    477     1   108.4600466 328.025600
    477    475   1018     1   109.7800468 425.094400
    480    481    482     1   108.0100461 406.684800
    480    481    483     1   108.0100461 406.684800
    480    484    485     1   108.0100461 406.684800
    480    484    486     1   108.0100461 406.684800
    480    487    488     1   108.0100461 406.684800
    480    487    489     1   108.0100461 406.684800
    481    480    509     1   110.1100470 384.091200
    481    493    494     1   109.8000471 387.438400
    481    493    495     1   109.8000471 387.438400
    482    481    493     1   110.5600475 386.601600
    482    481    483     1   109.7500473 328.025600
    483    481    493     1   110.5600475 386.601600
    484    480    509     1   110.1100470 384.091200
    484    496    497     1   109.8000471 387.438400
    484    496    498     1   109.8000471 387.438400
    485    484    496     1   110.5600475 386.601600
    485    484    486     1   109.7500473 328.025600
    486    484    496     1   110.5600475 386.601600
    487    480    509     1   110.1100470 384.091200
    487    490    491     1   109.8000471 387.438400
    487    490    492     1   109.8000471 387.438400
    488    487    490     1   110.5600475 386.601600
    488    487    489     1   109.7500473 328.025600
    489    487    490     1   110.5600475 386.601600
    490    499    500     1   109.5600471 388.275200
    490    499    501     1   109.5600471 388.275200
    491    490    499     1   109.8000471 387.438400
    491    490    492     1   107.5800459 329.699200
    492    490    499     1   109.8000471 387.438400
    493    505    506     1   109.5600471 388.275200
    493    505    507     1   109.5600471 388.275200
    494    493    505     1   109.8000471 387.438400
    494    493    495     1   107.5800459 329.699200
    495    493    505     1   109.8000471 387.438400
    496    502    503     1   109.5600471 388.275200
    496    502    504     1   109.5600471 388.275200
    497    496    502     1   109.8000471 387.438400
    497    496    498     1   107.5800459 329.699200
    498    496    502     1   109.8000471 387.438400
    500    499    508     1   109.7800468 425.094400
    500    499    501     1   108.4600466 328.025600
    501    499    508     1   109.7800468 425.094400
    503    502   1048     1   109.7800468 425.094400
    503    502    504     1   108.4600466 328.025600
    504    502   1048     1   109.7800468 425.094400
    506    505   1078     1   109.7800468 425.094400
    506    505    507     1   108.4600466 328.025600
    507    505   1078     1   109.7800468 425.094400
    510    511    512     1   108.0100461 406.684800
    510    511    513     1   108.0100461 406.684800
    510    514    515     1   108.0100461 406.684800
    510    514    516     1   108.0100461 406.684800
    510    517    518     1   108.0100461 406.684800
    510    517    519     1   108.0100461 406.684800
    511    510    539     1   110.1100470 384.091200
    511    523    524     1   109.8000471 387.438400
    511    523    525     1   109.8000471 387.438400
    512    511    523     1   110.5600475 386.601600
    512    511    513     1   109.7500473 328.025600
    513    511    523     1   110.5600475 386.601600
    514    510    539     1   110.1100470 384.091200
    514    526    527     1   109.8000471 387.438400
    514    526    528     1   109.8000471 387.438400
    515    514    526     1   110.5600475 386.601600
    515    514    516     1   109.7500473 328.025600
    516    514    526     1   110.5600475 386.601600
    517    510    539     1   110.1100470 384.091200
    517    520    521     1   109.8000471 387.438400
    517    520    522     1   109.8000471 387.438400
    518    517    520     1   110.5600475 386.601600
    518    517    519     1   109.7500473 328.025600
    519    517    520     1   110.5600475 386.601600
    520    529    530     1   109.5600471 388.275200
    520    529    531     1   109.5600471 388.275200
    521    520    529     1   109.8000471 387.438400
    521    520    522     1   107.5800459 329.699200
    522    520    529     1   109.8000471 387.438400
    523    535    536     1   109.5600471 388.275200
    523    535    537     1   109.5600471 388.275200
    524    523    535     1   109.8000471 387.438400
    524    523    525     1   107.5800459 329.699200
    525    523    535     1   109.8000471 387.438400
    526    532    533     1   109.5600471 388.275200
    526    532    534     1   109.5600471 388.275200
    527    526    532     1   109.8000471 387.438400
    527    526    528     1   107.5800459 329.699200
    528    526    532     1   109.8000471 387.438400
    530    529    538     1   109.7800468 425.094400
    530    529    531     1   108.4600466 328.025600
    531    529    538     1   109.7800468 425.094400
    533    532   1108     1   109.7800468 425.094400
    533    532    534     1   108.4600466 328.025600
    534    532   1108     1   109.7800468 425.094400
    536    535   1138     1   109.7800468 425.094400
    536    535    537     1   108.4600466 328.025600
    537    535   1138     1   109.7800468 425.094400
    540    541    542     1   108.0100461 406.684800
    540    541    543     1   108.0100461 406.684800
    540    544    545     1   108.0100461 406.684800
    540    544    546     1   108.0100461 406.684800
    540    547    548     1   108.0100461 406.684800
    540    547    549     1   108.0100461 406.684800
    541    540    569     1   110.1100470 384.091200
    541    553    554     1   109.8000471 387.438400
    541    553    555     1   109.8000471 387.438400
    542    541    553     1   110.5600475 386.601600
    542    541    543     1   109.7500473 328.025600
    543    541    553     1   110.5600475 386.601600
    544    540    569     1   110.1100470 384.091200
    544    556    557     1   109.8000471 387.438400
    544    556    558     1   109.8000471 387.438400
    545    544    556     1   110.5600475 386.601600
    545    544    546     1   109.7500473 328.025600
    546    544    556     1   110.5600475 386.601600
    547    540    569     1   110.1100470 384.091200
    547    550    551     1   109.8000471 387.438400
    547    550    552     1   109.8000471 387.438400
    548    547    550     1   110.5600475 386.601600
    548    547    549     1   109.7500473 328.025600
    549    547    550     1   110.5600475 386.601600
    550    559    560     1   109.5600471 388.275200
    550    559    561     1   109.5600471 388.275200
    551    550    559     1   109.8000471 387.438400
    551    550    552     1   107.5800459 329.699200
    552    550    559     1   109.8000471 387.438400
    553    565    566     1   109.5600471 388.275200
    553    565    567     1   109.5600471 388.275200
    554    553    565     1   109.8000471 387.438400
    554    553    555     1   107.5800459 329.699200
    555    553    565     1   109.8000471 387.438400
    556    562    563     1   109.5600471 388.275200
    556    562    564     1   109.5600471 388.275200
    557    556    562     1   109.8000471 387.438400
    557    556    558     1   107.5800459 329.699200
    558    556    562     1   109.8000471 387.438400
    560    559    568     1   109.7800468 425.094400
    560    559    561     1   108.4600466 328.025600
    561    559    568     1   109.7800468 425.094400
    563    562   1168     1   109.7800468 425.094400
    563    562    564     1   108.4600466 328.025600
    564    562   1168     1   109.7800468 425.094400
    566    565   1198     1   109.7800468 425.094400
    566    565    567     1   108.4600466 328.025600
    567    565   1198     1   109.7800468 425.094400
    570    571    572     1   108.0100461 406.684800
    570    571    573     1   108.0100461 406.684800
    570    574    575     1   108.0100461 406.684800
    570    574    576     1   108.0100461 406.684800
    570    577    578     1   108.0100461 406.684800
    570    577    579     1   108.0100461 406.684800
    571    570    599     1   110.1100470 384.091200
    571    583    584     1   109.8000471 387.438400
    571    583    585     1   109.8000471 387.438400
    572    571    583     1   110.5600475 386.601600
    572    571    573     1   109.7500473 328.025600
    573    571    583     1   110.5600475 386.601600
    574    570    599     1   110.1100470 384.091200
    574    586    587     1   109.8000471 387.438400
    574    586    588     1   109.8000471 387.438400
    575    574    586     1   110.5600475 386.601600
    575    574    576     1   109.7500473 328.025600
    576    574    586     1   110.5600475 386.601600
    577    570    599     1   110.1100470 384.091200
    577    580    581     1   109.8000471 387.438400
    577    580    582     1   109.8000471 387.438400
    578    577    580     1   110.5600475 386.601600
    578    577    579     1   109.7500473 328.025600
    579    577    580     1   110.5600475 386.601600
    580    589    590     1   109.5600471 388.275200
    580    589    591     1   109.5600471 388.275200
    581    580    589     1   109.8000471 387.438400
    581    580    582     1   107.5800459 329.699200
    582    580    589     1   109.8000471 387.438400
    583    595    596     1   109.5600471 388.275200
    583    595    597     1   109.5600471 388.275200
    584    583    595     1   109.8000471 387.438400
    584    583    585     1   107.5800459 329.699200
    585    583    595     1   109.8000471 387.438400
    586    592    593     1   109.5600471 388.275200
    586    592    594     1   109.5600471 388.275200
    587    586    592     1   109.8000471 387.438400
    587    586    588     1   107.5800459 329.699200
    588    586    592     1   109.8000471 387.438400
    590    589    598     1   109.7800468 425.094400
    590    589    591     1   108.4600466 328.025600
    591    589    598     1   109.7800468 425.094400
    593    592   1228     1   109.7800468 425.094400
    593    592    594     1   108.4600466 328.025600
    594    592   1228     1   109.7800468 425.094400
    596    595   1258     1   109.7800468 425.094400
    596    595    597     1   108.4600466 328.025600
    597    595   1258     1   109.7800468 425.094400
    600    601    602     1   108.0100461 406.684800
    600    601    603     1   108.0100461 406.684800
    600    604    605     1   108.0100461 406.684800
    600    604    606     1   108.0100461 406.684800
    600    607    608     1   108.0100461 406.684800
    600    607    609     1   108.0100461 406.684800
    601    600    629     1   110.1100470 384.091200
    601    613    614     1   109.8000471 387.438400
    601    613    615     1   109.8000471 387.438400
    602    601    613     1   110.5600475 386.601600
    602    601    603     1   109.7500473 328.025600
    603    601    613     1   110.5600475 386.601600
    604    600    629     1   110.1100470 384.091200
    604    616    617     1   109.8000471 387.438400
    604    616    618     1   109.8000471 387.438400
    605    604    616     1   110.5600475 386.601600
    605    604    606     1   109.7500473 328.025600
    606    604    616     1   110.5600475 386.601600
    607    600    629     1   110.1100470 384.091200
    607    610    611     1   109.8000471 387.438400
    607    610    612     1   109.8000471 387.438400
    608    607    610     1   110.5600475 386.601600
    608    607    609     1   109.7500473 328.025600
    609    607    610     1   110.5600475 386.601600
    610    619    620     1   109.5600471 388.275200
    610    619    621     1   109.5600471 388.275200
    611    610    619     1   109.8000471 387.438400
    611    610    612     1   107.5800459 329.699200
    612    610    619     1   109.8000471 387.438400
    613    625    626     1   109.5600471 388.275200
    613    625    627     1   109.5600471 388.275200
    614    613    625     1   109.8000471 387.438400
    614    613    615     1   107.5800459 329.699200
    615    613    625     1   109.8000471 387.438400
    616    622    623     1   109.5600471 388.275200
    616    622    624     1   109.5600471 388.275200
    617    616    622     1   109.8000471 387.438400
    617    616    618     1   107.5800459 329.699200
    618    616    622     1   109.8000471 387.438400
    620    619    628     1   109.7800468 425.094400
    620    619    621     1   108.4600466 328.025600
    621    619    628     1   109.7800468 425.094400
    623    622   1288     1   109.7800468 425.094400
    623    622    624     1   108.4600466 328.025600
    624    622   1288     1   109.7800468 425.094400
    626    625   1318     1   109.7800468 425.094400
    626    625    627     1   108.4600466 328.025600
    627    625   1318     1   109.7800468 425.094400
    630    631    632     1   108.0100461 406.684800
    630    631    633     1   108.0100461 406.684800
    630    634    635     1   108.0100461 406.684800
    630    634    636     1   108.0100461 406.684800
    630    637    638     1   108.0100461 406.684800
    630    637    639     1   108.0100461 406.684800
    631    630    659     1   110.1100470 384.091200
    631    643    644     1   109.8000471 387.438400
    631    643    645     1   109.8000471 387.438400
    632    631    643     1   110.5600475 386.601600
    632    631    633     1   109.7500473 328.025600
    633    631    643     1   110.5600475 386.601600
    634    630    659     1   110.1100470 384.091200
    634    646    647     1   109.8000471 387.438400
    634    646    648     1   109.8000471 387.438400
    635    634    646     1   110.5600475 386.601600
    635    634    636     1   109.7500473 328.025600
    636    634    646     1   110.5600475 386.601600
    637    630    659     1   110.1100470 384.091200
    637    640    641     1   109.8000471 387.438400
    637    640    642     1   109.8000471 387.438400
    638    637    640     1   110.5600475 386.601600
    638    637    639     1   109.7500473 328.025600
    639    637    640     1   110.5600475 386.601600
    640    649    650     1   109.5600471 388.275200
    640    649    651     1   109.5600471 388.275200
    641    640    649     1   109.8000471 387.438400
    641    640    642     1   107.5800459 329.699200
    642    640    649     1   109.8000471 387.438400
    643    655    656     1   109.5600471 388.275200
    643    655    657     1   109.5600471 388.275200
    644    643    655     1   109.8000471 387.438400
    644    643    645     1   107.5800459 329.699200
    645    643    655     1   109.8000471 387.438400
    646    652    653     1   109.5600471 388.275200
    646    652    654     1   109.5600471 388.275200
    647    646    652     1   109.8000471 387.438400
    647    646    648     1   107.5800459 329.699200
    648    646    652     1   109.8000471 387.438400
    650    649    658     1   109.7800468 425.094400
    650    649    651     1   108.4600466 328.025600
    651    649    658     1   109.7800468 425.094400
    653    652   1348     1   109.7800468 425.094400
    653    652    654     1   108.4600466 328.025600
    654    652   1348     1   109.7800468 425.094400
    656    655   1378     1   109.7800468 425.094400
    656    655    657     1   108.4600466 328.025600
    657    655   1378     1   109.7800468 425.094400
    660    661    662     1   108.0100461 406.684800
    660    661    663     1   108.0100461 406.684800
    660    664    665     1   108.0100461 406.684800
    660    664    666     1   108.0100461 406.684800
    660    667    668     1   108.0100461 406.684800
    660    667    669     1   108.0100461 406.684800
    661    660    689     1   110.1100470 384.091200
    661    673    674     1   109.8000471 387.438400
    661    673    675     1   109.8000471 387.438400
    662    661    673     1   110.5600475 386.601600
    662    661    663     1   109.7500473 328.025600
    663    661    673     1   110.5600475 386.601600
    664    660    689     1   110.1100470 384.091200
    664    676    677     1   109.8000471 387.438400
    664    676    678     1   109.8000471 387.438400
    665    664    676     1   110.5600475 386.601600
    665    664    666     1   109.7500473 328.025600
    666    664    676     1   110.5600475 386.601600
    667    660    689     1   110.1100470 384.091200
    667    670    671     1   109.8000471 387.438400
    667    670    672     1   109.8000471 387.438400
    668    667    670     1   110.5600475 386.601600
    668    667    669     1   109.7500473 328.025600
    669    667    670     1   110.5600475 386.601600
    670    679    680     1   109.5600471 388.275200
    670    679    681     1   109.5600471 388.275200
    671    670    679     1   109.8000471 387.438400
    671    670    672     1   107.5800459 329.699200
    672    670    679     1   109.8000471 387.438400
    673    685    686     1   109.5600471 388.275200
    673    685    687     1   109.5600471 388.275200
    674    673    685     1   109.8000471 387.438400
    674    673    675     1   107.5800459 329.699200
    675    673    685     1   109.8000471 387.438400
    676    682    683     1   109.5600471 388.275200
    676    682    684     1   109.5600471 388.275200
    677    676    682     1   109.8000471 387.438400
    677    676    678     1   107.5800459 329.699200
    678    676    682     1   109.8000471 387.438400
    680    679    688     1   109.7800468 425.094400
    680    679    681     1   108.4600466 328.025600
    681    679    688     1   109.7800468 425.094400
    683    682   1408     1   109.7800468 425.094400
    683    682    684     1   108.4600466 328.025600
    684    682   1408     1   109.7800468 425.094400
    686    685   1438     1   109.7800468 425.094400
    686    685    687     1   108.4600466 328.025600
    687    685   1438     1   109.7800468 425.094400
    690    691    692     1   108.0100461 406.684800
    690    691    693     1   108.0100461 406.684800
    690    694    695     1   108.0100461 406.684800
    690    694    696     1   108.0100461 406.684800
    690    697    698     1   108.0100461 406.684800
    690    697    699     1   108.0100461 406.684800
    691    690    719     1   110.1100470 384.091200
    691    703    704     1   109.8000471 387.438400
    691    703    705     1   109.8000471 387.438400
    692    691    703     1   110.5600475 386.601600
    692    691    693     1   109.7500473 328.025600
    693    691    703     1   110.5600475 386.601600
    694    690    719     1   110.1100470 384.091200
    694    706    707     1   109.8000471 387.438400
    694    706    708     1   109.8000471 387.438400
    695    694    706     1   110.5600475 386.601600
    695    694    696     1   109.7500473 328.025600
    696    694    706     1   110.5600475 386.601600
    697    690    719     1   110.1100470 384.091200
    697    700    701     1   109.8000471 387.438400
    697    700    702     1   109.8000471 387.438400
    698    697    700     1   110.5600475 386.601600
    698    697    699     1   109.7500473 328.025600
    699    697    700     1   110.5600475 386.601600
    700    709    710     1   109.5600471 388.275200
    700    709    711     1   109.5600471 388.275200
    701    700    709     1   109.8000471 387.438400
    701    700    702     1   107.5800459 329.699200
    702    700    709     1   109.8000471 387.438400
    703    715    716     1   109.5600471 388.275200
    703    715    717     1   109.5600471 388.275200
    704    703    715     1   109.8000471 387.438400
    704    703    705     1   107.5800459 329.699200
    705    703    715     1   109.8000471 387.438400
    706    712    713     1   109.5600471 388.275200
    706    712    714     1   109.5600471 388.275200
    707    706    712     1   109.8000471 387.438400
    707    706    708     1   107.5800459 329.699200
    708    706    712     1   109.8000471 387.438400
    710    709    718     1   109.7800468 425.094400
    710    709    711     1   108.4600466 328.025600
    711    709    718     1   109.7800468 425.094400
    713    712   1468     1   109.7800468 425.094400
    713    712    714     1   108.4600466 328.025600
    714    712   1468     1   109.7800468 425.094400
    716    715   1498     1   109.7800468 425.094400
    716    715    717     1   108.4600466 328.025600
    717    715   1498     1   109.7800468 425.094400
    720    721    722     1   108.0100461 406.684800
    720    721    723     1   108.0100461 406.684800
    720    724    725     1   108.0100461 406.684800
    720    724    726     1   108.0100461 406.684800
    720    727    728     1   108.0100461 406.684800
    720    727    729     1   108.0100461 406.684800
    721    720    749     1   110.1100470 384.091200
    721    733    734     1   109.8000471 387.438400
    721    733    735     1   109.8000471 387.438400
    722    721    733     1   110.5600475 386.601600
    722    721    723     1   109.7500473 328.025600
    723    721    733     1   110.5600475 386.601600
    724    720    749     1   110.1100470 384.091200
    724    736    737     1   109.8000471 387.438400
    724    736    738     1   109.8000471 387.438400
    725    724    736     1   110.5600475 386.601600
    725    724    726     1   109.7500473 328.025600
    726    724    736     1   110.5600475 386.601600
    727    720    749     1   110.1100470 384.091200
    727    730    731     1   109.8000471 387.438400
    727    730    732     1   109.8000471 387.438400
    728    727    730     1   110.5600475 386.601600
    728    727    729     1   109.7500473 328.025600
    729    727    730     1   110.5600475 386.601600
    730    739    740     1   109.5600471 388.275200
    730    739    741     1   109.5600471 388.275200
    731    730    739     1   109.8000471 387.438400
    731    730    732     1   107.5800459 329.699200
    732    730    739     1   109.8000471 387.438400
    733    745    746     1   109.5600471 388.275200
    733    745    747     1   109.5600471 388.275200
    734    733    745     1   109.8000471 387.438400
    734    733    735     1   107.5800459 329.699200
    735    733    745     1   109.8000471 387.438400
    736    742    743     1   109.5600471 388.275200
    736    742    744     1   109.5600471 388.275200
    737    736    742     1   109.8000471 387.438400
    737    736    738     1   107.5800459 329.699200
    738    736    742     1   109.8000471 387.438400
    740    739    748     1   109.7800468 425.094400
    740    739    741     1   108.4600466 328.025600
    741    739    748     1   109.7800468 425.094400
    743    742   1528     1   109.7800468 425.094400
    743    742    744     1   108.4600466 328.025600
    744    742   1528     1   109.7800468 425.094400
    746    745   1558     1   109.7800468 425.094400
    746    745    747     1   108.4600466 328.025600
    747    745   1558     1   109.7800468 425.094400
    750    751    752     1   108.0100461 406.684800
    750    751    753     1   108.0100461 406.684800
    750    754    755     1   108.0100461 406.684800
    750    754    756     1   108.0100461 406.684800
    750    757    758     1   108.0100461 406.684800
    750    757    759     1   108.0100461 406.684800
    751    750    779     1   110.1100470 384.091200
    751    763    764     1   109.8000471 387.438400
    751    763    765     1   109.8000471 387.438400
    752    751    763     1   110.5600475 386.601600
    752    751    753     1   109.7500473 328.025600
    753    751    763     1   110.5600475 386.601600
    754    750    779     1   110.1100470 384.091200
    754    766    767     1   109.8000471 387.438400
    754    766    768     1   109.8000471 387.438400
    755    754    766     1   110.5600475 386.601600
    755    754    756     1   109.7500473 328.025600
    756    754    766     1   110.5600475 386.601600
    757    750    779     1   110.1100470 384.091200
    757    760    761     1   109.8000471 387.438400
    757    760    762     1   109.8000471 387.438400
    758    757    760     1   110.5600475 386.601600
    758    757    759     1   109.7500473 328.025600
    759    757    760     1   110.5600475 386.601600
    760    769    770     1   109.5600471 388.275200
    760    769    771     1   109.5600471 388.275200
    761    760    769     1   109.8000471 387.438400
    761    760    762     1   107.5800459 329.699200
    762    760    769     1   109.8000471 387.438400
    763    775    776     1   109.5600471 388.275200
    763    775    777     1   109.5600471 388.275200
    764    763    775     1   109.8000471 387.438400
    764    763    765     1   107.5800459 329.699200
    765    763    775     1   109.8000471 387.438400
    766    772    773     1   109.5600471 388.275200
    766    772    774     1   109.5600471 388.275200
    767    766    772     1   109.8000471 387.438400
    767    766    768     1   107.5800459 329.699200
    768    766    772     1   109.8000471 387.438400
    770    769    778     1   109.7800468 425.094400
    770    769    771     1   108.4600466 328.025600
    771    769    778     1   109.7800468 425.094400
    773    772   1588     1   109.7800468 425.094400
    773    772    774     1   108.4600466 328.025600
    774    772   1588     1   109.7800468 425.094400
    776    775   1618     1   109.7800468 425.094400
    776    775    777     1   108.4600466 328.025600
    777    775   1618     1   109.7800468 425.094400
    780    781    782     1   108.0100461 406.684800
    780    781    783     1   108.0100461 406.684800
    780    784    785     1   108.0100461 406.684800
    780    784    786     1   108.0100461 406.684800
    780    787    788     1   108.0100461 406.684800
    780    787    789     1   108.0100461 406.684800
    781    780    809     1   110.1100470 384.091200
    781    793    794     1   109.8000471 387.438400
    781    793    795     1   109.8000471 387.438400
    782    781    793     1   110.5600475 386.601600
    782    781    783     1   109.7500473 328.025600
    783    781    793     1   110.5600475 386.601600
    784    780    809     1   110.1100470 384.091200
    784    796    797     1   109.8000471 387.438400
    784    796    798     1   109.8000471 387.438400
    785    784    796     1   110.5600475 386.601600
    785    784    786     1   109.7500473 328.025600
    786    784    796     1   110.5600475 386.601600
    787    780    809     1   110.1100470 384.091200
    787    790    791     1   109.8000471 387.438400
    787    790    792     1   109.8000471 387.438400
    788    787    790     1   110.5600475 386.601600
    788    787    789     1   109.7500473 328.025600
    789    787    790     1   110.5600475 386.601600
    790    799    800     1   109.5600471 388.275200
    790    799    801     1   109.5600471 388.275200
    791    790    799     1   109.8000471 387.438400
    791    790    792     1   107.5800459 329.699200
    792    790    799     1   109.8000471 387.438400
    793    805    806     1   109.5600471 388.275200
    793    805    807     1   109.5600471 388.275200
    794    793    805     1   109.8000471 387.438400
    794    793    795     1   107.5800459 329.699200
    795    793    805     1   109.8000471 387.438400
    796    802    803     1   109.5600471 388.275200
    796    802    804     1   109.5600471 388.275200
    797    796    802     1   109.8000471 387.438400
    797    796    798     1   107.5800459 329.699200
    798    796    802     1   109.8000471 387.438400
    800    799    808     1   109.7800468 425.094400
    800    799    801     1   108.4600466 328.025600
    801    799    808     1   109.7800468 425.094400
    803    802   1648     1   109.7800468 425.094400
    803    802    804     1   108.4600466 328.025600
    804    802   1648     1   109.7800468 425.094400
    806    805   1678     1   109.7800468 425.094400
    806    805    807     1   108.4600466 328.025600
    807    805   1678     1   109.7800468 425.094400
    810    811    812     1   108.0100461 406.684800
    810    811    813     1   108.0100461 406.684800
    810    814    815     1   108.0100461 406.684800
    810    814    816     1   108.0100461 406.684800
    810    817    818     1   108.0100461 406.684800
    810    817    819     1   108.0100461 406.684800
    811    810    839     1   110.1100470 384.091200
    811    823    824     1   109.8000471 387.438400
    811    823    825     1   109.8000471 387.438400
    812    811    823     1   110.5600475 386.601600
    812    811    813     1   109.7500473 328.025600
    813    811    823     1   110.5600475 386.601600
    814    810    839     1   110.1100470 384.091200
    814    826    827     1   109.8000471 387.438400
    814    826    828     1   109.8000471 387.438400
    815    814    826     1   110.5600475 386.601600
    815    814    816     1   109.7500473 328.025600
    816    814    826     1   110.5600475 386.601600
    817    810    839     1   110.1100470 384.091200
    817    820    821     1   109.8000471 387.438400
    817    820    822     1   109.8000471 387.438400
    818    817    820     1   110.5600475 386.601600
    818    817    819     1   109.7500473 328.025600
    819    817    820     1   110.5600475 386.601600
    820    829    830     1   109.5600471 388.275200
    820    829    831     1   109.5600471 388.275200
    821    820    829     1   109.8000471 387.438400
    821    820    822     1   107.5800459 329.699200
    822    820    829     1   109.8000471 387.438400
    823    835    836     1   109.5600471 388.275200
    823    835    837     1   109.5600471 388.275200
    824    823    835     1   109.8000471 387.438400
    824    823    825     1   107.5800459 329.699200
    825    823    835     1   109.8000471 387.438400
    826    832    833     1   109.5600471 388.275200
    826    832    834     1   109.5600471 388.275200
    827    826    832     1   109.8000471 387.438400
    827    826    828     1   107.5800459 329.699200
    828    826    832     1   109.8000471 387.438400
    830    829    838     1   109.7800468 425.094400
    830    829    831     1   108.4600466 328.025600
    831    829    838     1   109.7800468 425.094400
    833    832   1708     1   109.7800468 425.094400
    833    832    834     1   108.4600466 328.025600
    834    832   1708     1   109.7800468 425.094400
    836    835   1738     1   109.7800468 425.094400
    836    835    837     1   108.4600466 328.025600
    837    835   1738     1   109.7800468 425.094400
    840    841    842     1   108.0100461 406.684800
    840    841    843     1   108.0100461 406.684800
    840    844    845     1   108.0100461 406.684800
    840    844    846     1   108.0100461 406.684800
    840    847    848     1   108.0100461 406.684800
    840    847    849     1   108.0100461 406.684800
    841    840    869     1   110.1100470 384.091200
    841    853    854     1   109.8000471 387.438400
    841    853    855     1   109.8000471 387.438400
    842    841    853     1   110.5600475 386.601600
    842    841    843     1   109.7500473 328.025600
    843    841    853     1   110.5600475 386.601600
    844    840    869     1   110.1100470 384.091200
    844    856    857     1   109.8000471 387.438400
    844    856    858     1   109.8000471 387.438400
    845    844    856     1   110.5600475 386.601600
    845    844    846     1   109.7500473 328.025600
    846    844    856     1   110.5600475 386.601600
    847    840    869     1   110.1100470 384.091200
    847    850    851     1   109.8000471 387.438400
    847    850    852     1   109.8000471 387.438400
    848    847    850     1   110.5600475 386.601600
    848    847    849     1   109.7500473 328.025600
    849    847    850     1   110.5600475 386.601600
    850    859    860     1   109.5600471 388.275200
    850    859    861     1   109.5600471 388.275200
    851    850    859     1   109.8000471 387.438400
    851    850    852     1   107.5800459 329.699200
    852    850    859     1   109.8000471 387.438400
    853    865    866     1   109.5600471 388.275200
    853    865    867     1   109.5600471 388.275200
    854    853    865     1   109.8000471 387.438400
    854    853    855     1   107.5800459 329.699200
    855    853    865     1   109.8000471 387.438400
    856    862    863     1   109.5600471 388.275200
    856    862    864     1   109.5600471 388.275200
    857    856    862     1   109.8000471 387.438400
    857    856    858     1   107.5800459 329.699200
    858    856    862     1   109.8000471 387.438400
    860    859    868     1   109.7800468 425.094400
    860    859    861     1   108.4600466 328.025600
    861    859    868     1   109.7800468 425.094400
    863    862   1768     1   109.7800468 425.094400
    863    862    864     1   108.4600466 328.025600
    864    862   1768     1   109.7800468 425.094400
    866    865   1798     1   109.7800468 425.094400
    866    865    867     1   108.4600466 328.025600
    867    865   1798     1   109.7800468 425.094400
    870    871    872     1   108.0100461 406.684800
    870    871    873     1   108.0100461 406.684800
    870    874    875     1   108.0100461 406.684800
    870    874    876     1   108.0100461 406.684800
    870    877    878     1   108.0100461 406.684800
    870    877    879     1   108.0100461 406.684800
    871    870    899     1   110.1100470 384.091200
    871    883    884     1   109.8000471 387.438400
    871    883    885     1   109.8000471 387.438400
    872    871    883     1   110.5600475 386.601600
    872    871    873     1   109.7500473 328.025600
    873    871    883     1   110.5600475 386.601600
    874    870    899     1   110.1100470 384.091200
    874    886    887     1   109.8000471 387.438400
    874    886    888     1   109.8000471 387.438400
    875    874    886     1   110.5600475 386.601600
    875    874    876     1   109.7500473 328.025600
    876    874    886     1   110.5600475 386.601600
    877    870    899     1   110.1100470 384.091200
    877    880    881     1   109.8000471 387.438400
    877    880    882     1   109.8000471 387.438400
    878    877    880     1   110.5600475 386.601600
    878    877    879     1   109.7500473 328.025600
    879    877    880     1   110.5600475 386.601600
    880    889    890     1   109.5600471 388.275200
    880    889    891     1   109.5600471 388.275200
    881    880    889     1   109.8000471 387.438400
    881    880    882     1   107.5800459 329.699200
    882    880    889     1   109.8000471 387.438400
    883    895    896     1   109.5600471 388.275200
    883    895    897     1   109.5600471 388.275200
    884    883    895     1   109.8000471 387.438400
    884    883    885     1   107.5800459 329.699200
    885    883    895     1   109.8000471 387.438400
    886    892    893     1   109.5600471 388.275200
    886    892    894     1   109.5600471 388.275200
    887    886    892     1   109.8000471 387.438400
    887    886    888     1   107.5800459 329.699200
    888    886    892     1   109.8000471 387.438400
    890    889    898     1   109.7800468 425.094400
    890    889    891     1   108.4600466 328.025600
    891    889    898     1   109.7800468 425.094400
    893    892   1828     1   109.7800468 425.094400
    893    892    894     1   108.4600466 328.025600
    894    892   1828     1   109.7800468 425.094400
    896    895   1858     1   109.7800468 425.094400
    896    895    897     1   108.4600466 328.025600
    897    895   1858     1   109.7800468 425.094400
    900    901    902     1   108.0100461 406.684800
    900    901    903     1   108.0100461 406.684800
    900    904    905     1   108.0100461 406.684800
    900    904    906     1   108.0100461 406.684800
    900    907    908     1   108.0100461 406.684800
    900    907    909     1   108.0100461 406.684800
    901    900    929     1   110.1100470 384.091200
    901    913    914     1   109.8000471 387.438400
    901    913    915     1   109.8000471 387.438400
    902    901    913     1   110.5600475 386.601600
    902    901    903     1   109.7500473 328.025600
    903    901    913     1   110.5600475 386.601600
    904    900    929     1   110.1100470 384.091200
    904    916    917     1   109.8000471 387.438400
    904    916    918     1   109.8000471 387.438400
    905    904    916     1   110.5600475 386.601600
    905    904    906     1   109.7500473 328.025600
    906    904    916     1   110.5600475 386.601600
    907    900    929     1   110.1100470 384.091200
    907    910    911     1   109.8000471 387.438400
    907    910    912     1   109.8000471 387.438400
    908    907    910     1   110.5600475 386.601600
    908    907    909     1   109.7500473 328.025600
    909    907    910     1   110.5600475 386.601600
    910    919    920     1   109.5600471 388.275200
    910    919    921     1   109.5600471 388.275200
    911    910    919     1   109.8000471 387.438400
    911    910    912     1   107.5800459 329.699200
    912    910    919     1   109.8000471 387.438400
    913    925    926     1   109.5600471 388.275200
    913    925    927     1   109.5600471 388.275200
    914    913    925     1   109.8000471 387.438400
    914    913    915     1   107.5800459 329.699200
    915    913    925     1   109.8000471 387.438400
    916    922    923     1   109.5600471 388.275200
    916    922    924     1   109.5600471 388.275200
    917    916    922     1   109.8000471 387.438400
    917    916    918     1   107.5800459 329.699200
    918    916    922     1   109.8000471 387.438400
    920    919    928     1   109.7800468 425.094400
    920    919    921     1   108.4600466 328.025600
    921    919    928     1   109.7800468 425.094400
    923    922   1888     1   109.7800468 425.094400
    923    922    924     1   108.4600466 328.025600
    924    922   1888     1   109.7800468 425.094400
    926    925   1918     1   109.7800468 425.094400
    926    925    927     1   108.4600466 328.025600
    927    925   1918     1   109.7800468 425.094400
    930    931    932     1   108.0100461 406.684800
    930    931    933     1   108.0100461 406.684800
    930    934    935     1   108.0100461 406.684800
    930    934    936     1   108.0100461 406.684800
    930    937    938     1   108.0100461 406.684800
    930    937    939     1   108.0100461 406.684800
    931    930    959     1   110.1100470 384.091200
    931    943    944     1   109.8000471 387.438400
    931    943    945     1   109.8000471 387.438400
    932    931    943     1   110.5600475 386.601600
    932    931    933     1   109.7500473 328.025600
    933    931    943     1   110.5600475 386.601600
    934    930    959     1   110.1100470 384.091200
    934    946    947     1   109.8000471 387.438400
    934    946    948     1   109.8000471 387.438400
    935    934    946     1   110.5600475 386.601600
    935    934    936     1   109.7500473 328.025600
    936    934    946     1   110.5600475 386.601600
    937    930    959     1   110.1100470 384.091200
    937    940    941     1   109.8000471 387.438400
    937    940    942     1   109.8000471 387.438400
    938    937    940     1   110.5600475 386.601600
    938    937    939     1   109.7500473 328.025600
    939    937    940     1   110.5600475 386.601600
    940    949    950     1   109.5600471 388.275200
    940    949    951     1   109.5600471 388.275200
    941    940    949     1   109.8000471 387.438400
    941    940    942     1   107.5800459 329.699200
    942    940    949     1   109.8000471 387.438400
    943    955    956     1   109.5600471 388.275200
    943    955    957     1   109.5600471 388.275200
    944    943    955     1   109.8000471 387.438400
    944    943    945     1   107.5800459 329.699200
    945    943    955     1   109.8000471 387.438400
    946    952    953     1   109.5600471 388.275200
    946    952    954     1   109.5600471 388.275200
    947    946    952     1   109.8000471 387.438400
    947    946    948     1   107.5800459 329.699200
    948    946    952     1   109.8000471 387.438400
    950    949    958     1   109.7800468 425.094400
    950    949    951     1   108.4600466 328.025600
    951    949    958     1   109.7800468 425.094400
    953    952   1948     1   109.7800468 425.094400
    953    952    954     1   108.4600466 328.025600
    954    952   1948     1   109.7800468 425.094400
    956    955   1978     1   109.7800468 425.094400
    956    955    957     1   108.4600466 328.025600
    957    955   1978     1   109.7800468 425.094400
    960    961    962     1   108.0100461 406.684800
    960    961    963     1   108.0100461 406.684800
    960    964    965     1   108.0100461 406.684800
    960    964    966     1   108.0100461 406.684800
    960    967    968     1   108.0100461 406.684800
    960    967    969     1   108.0100461 406.684800
    961    960    989     1   110.1100470 384.091200
    961    973    974     1   109.8000471 387.438400
    961    973    975     1   109.8000471 387.438400
    962    961    973     1   110.5600475 386.601600
    962    961    963     1   109.7500473 328.025600
    963    961    973     1   110.5600475 386.601600
    964    960    989     1   110.1100470 384.091200
    964    976    977     1   109.8000471 387.438400
    964    976    978     1   109.8000471 387.438400
    965    964    976     1   110.5600475 386.601600
    965    964    966     1   109.7500473 328.025600
    966    964    976     1   110.5600475 386.601600
    967    960    989     1   110.1100470 384.091200
    967    970    971     1   109.8000471 387.438400
    967    970    972     1   109.8000471 387.438400
    968    967    970     1   110.5600475 386.601600
    968    967    969     1   109.7500473 328.025600
    969    967    970     1   110.5600475 386.601600
    970    979    980     1   109.5600471 388.275200
    970    979    981     1   109.5600471 388.275200
    971    970    979     1   109.8000471 387.438400
    971    970    972     1   107.5800459 329.699200
    972    970    979     1   109.8000471 387.438400
    973    985    986     1   109.5600471 388.275200
    973    985    987     1   109.5600471 388.275200
    974    973    985     1   109.8000471 387.438400
    974    973    975     1   107.5800459 329.699200
    975    973    985     1   109.8000471 387.438400
    976    982    983     1   109.5600471 388.275200
    976    982    984     1   109.5600471 388.275200
    977    976    982     1   109.8000471 387.438400
    977    976    978     1   107.5800459 329.699200
    978    976    982     1   109.8000471 387.438400
    980    979    988     1   109.7800468 425.094400
    980    979    981     1   108.4600466 328.025600
    981    979    988     1   109.7800468 425.094400
    983    982   2008     1   109.7800468 425.094400
    983    982    984     1   108.4600466 328.025600
    984    982   2008     1   109.7800468 425.094400
    986    985   2038     1   109.7800468 425.094400
    986    985    987     1   108.4600466 328.025600
    987    985   2038     1   109.7800468 425.094400
    990    991    992     1   108.0100461 406.684800
    990    991    993     1   108.0100461 406.684800
    990    994    995     1   108.0100461 406.684800
    990    994    996     1   108.0100461 406.684800
    990    997    998     1   108.0100461 406.684800
    990    997    999     1   108.0100461 406.684800
    991    990   1019     1   110.1100470 384.091200
    991   1003   1004     1   109.8000471 387.438400
    991   1003   1005     1   109.8000471 387.438400
    992    991   1003     1   110.5600475 386.601600
    992    991    993     1   109.7500473 328.025600
    993    991   1003     1   110.5600475 386.601600
    994    990   1019     1   110.1100470 384.091200
    994   1006   1007     1   109.8000471 387.438400
    994   1006   1008     1   109.8000471 387.438400
    995    994   1006     1   110.5600475 386.601600
    995    994    996     1   109.7500473 328.025600
    996    994   1006     1   110.5600475 386.601600
    997    990   1019     1   110.1100470 384.091200
    997   1000   1001     1   109.8000471 387.438400
    997   1000   1002     1   109.8000471 387.438400
    998    997   1000     1   110.5600475 386.601600
    998    997    999     1   109.7500473 328.025600
    999    997   1000     1   110.5600475 386.601600
   1000   1009   1010     1   109.5600471 388.275200
   1000   1009   1011     1   109.5600471 388.275200
   1001   1000   1009     1   109.8000471 387.438400
   1001   1000   1002     1   107.5800459 329.699200
   1002   1000   1009     1   109.8000471 387.438400
   1003   1015   1016     1   109.5600471 388.275200
   1003   1015   1017     1   109.5600471 388.275200
   1004   1003   1015     1   109.8000471 387.438400
   1004   1003   1005     1   107.5800459 329.699200
   1005   1003   1015     1   109.8000471 387.438400
   1006   1012   1013     1   109.5600471 388.275200
   1006   1012   1014     1   109.5600471 388.275200
   1007   1006   1012     1   109.8000471 387.438400
   1007   1006   1008     1   107.5800459 329.699200
   1008   1006   1012     1   109.8000471 387.438400
   1010   1009   1018     1   109.7800468 425.094400
   1010   1009   1011     1   108.4600466 328.025600
   1011   1009   1018     1   109.7800468 425.094400
   1013   1012   2068     1   109.7800468 425.094400
   1013   1012   1014     1   108.4600466 328.025600
   1014   1012   2068     1   109.7800468 425.094400
   1016   1015   2098     1   109.7800468 425.094400
   1016   1015   1017     1   108.4600466 328.025600
   1017   1015   2098     1   109.7800468 425.094400
   1020   1021   1022     1   108.0100461 406.684800
   1020   1021   1023     1   108.0100461 406.684800
   1020   1024   1025     1   108.0100461 406.684800
   1020   1024   1026     1   108.0100461 406.684800
   1020   1027   1028     1   108.0100461 406.684800
   1020   1027   1029     1   108.0100461 406.684800
   1021   1020   1049     1   110.1100470 384.091200
   1021   1033   1034     1   109.8000471 387.438400
   1021   1033   1035     1   109.8000471 387.438400
   1022   1021   1033     1   110.5600475 386.601600
   1022   1021   1023     1   109.7500473 328.025600
   1023   1021   1033     1   110.5600475 386.601600
   1024   1020   1049     1   110.1100470 384.091200
   1024   1036   1037     1   109.8000471 387.438400
   1024   1036   1038     1   109.8000471 387.438400
   1025   1024   1036     1   110.5600475 386.601600
   1025   1024   1026     1   109.7500473 328.025600
   1026   1024   1036     1   110.5600475 386.601600
   1027   1020   1049     1   110.1100470 384.091200
   1027   1030   1031     1   109.8000471 387.438400
   1027   1030   1032     1   109.8000471 387.438400
   1028   1027   1030     1   110.5600475 386.601600
   1028   1027   1029     1   109.7500473 328.025600
   1029   1027   1030     1   110.5600475 386.601600
   1030   1039   1040     1   109.5600471 388.275200
   1030   1039   1041     1   109.5600471 388.275200
   1031   1030   1039     1   109.8000471 387.438400
   1031   1030   1032     1   107.5800459 329.699200
   1032   1030   1039     1   109.8000471 387.438400
   1033   1045   1046     1   109.5600471 388.275200
   1033   1045   1047     1   109.5600471 388.275200
   1034   1033   1045     1   109.8000471 387.438400
   1034   1033   1035     1   107.5800459 329.699200
   1035   1033   1045     1   109.8000471 387.438400
   1036   1042   1043     1   109.5600471 388.275200
   1036   1042   1044     1   109.5600471 388.275200
   1037   1036   1042     1   109.8000471 387.438400
   1037   1036   1038     1   107.5800459 329.699200
   1038   1036   1042     1   109.8000471 387.438400
   1040   1039   1048     1   109.7800468 425.094400
   1040   1039   1041     1   108.4600466 328.025600
   1041   1039   1048     1   109.7800468 425.094400
   1043   1042   2128     1   109.7800468 425.094400
   1043   1042   1044     1   108.4600466 328.025600
   1044   1042   2128     1   109.7800468 425.094400
   1046   1045   2158     1   109.7800468 425.094400
   1046   1045   1047     1   108.4600466 328.025600
   1047   1045   2158     1   109.7800468 425.094400
   1050   1051   1052     1   108.0100461 406.684800
   1050   1051   1053     1   108.0100461 406.684800
   1050   1054   1055     1   108.0100461 406.684800
   1050   1054   1056     1   108.0100461 406.684800
   1050   1057   1058     1   108.0100461 406.684800
   1050   1057   1059     1   108.0100461 406.684800
   1051   1050   1079     1   110.1100470 384.091200
   1051   1063   1064     1   109.8000471 387.438400
   1051   1063   1065     1   109.8000471 387.438400
   1052   1051   1063     1   110.5600475 386.601600
   1052   1051   1053     1   109.7500473 328.025600
   1053   1051   1063     1   110.5600475 386.601600
   1054   1050   1079     1   110.1100470 384.091200
   1054   1066   1067     1   109.8000471 387.438400
   1054   1066   1068     1   109.8000471 387.438400
   1055   1054   1066     1   110.5600475 386.601600
   1055   1054   1056     1   109.7500473 328.025600
   1056   1054   1066     1   110.5600475 386.601600
   1057   1050   1079     1   110.1100470 384.091200
   1057   1060   1061     1   109.8000471 387.438400
   1057   1060   1062     1   109.8000471 387.438400
   1058   1057   1060     1   110.5600475 386.601600
   1058   1057   1059     1   109.7500473 328.025600
   1059   1057   1060     1   110.5600475 386.601600
   1060   1069   1070     1   109.5600471 388.275200
   1060   1069   1071     1   109.5600471 388.275200
   1061   1060   1069     1   109.8000471 387.438400
   1061   1060   1062     1   107.5800459 329.699200
   1062   1060   1069     1   109.8000471 387.438400
   1063   1075   1076     1   109.5600471 388.275200
   1063   1075   1077     1   109.5600471 388.275200
   1064   1063   1075     1   109.8000471 387.438400
   1064   1063   1065     1   107.5800459 329.699200
   1065   1063   1075     1   109.8000471 387.438400
   1066   1072   1073     1   109.5600471 388.275200
   1066   1072   1074     1   109.5600471 388.275200
   1067   1066   1072     1   109.8000471 387.438400
   1067   1066   1068     1   107.5800459 329.699200
   1068   1066   1072     1   109.8000471 387.438400
   1070   1069   1078     1   109.7800468 425.094400
   1070   1069   1071     1   108.4600466 328.025600
   1071   1069   1078     1   109.7800468 425.094400
   1073   1072   2188     1   109.7800468 425.094400
   1073   1072   1074     1   108.4600466 328.025600
   1074   1072   2188     1   109.7800468 425.094400
   1076   1075   2218     1   109.7800468 425.094400
   1076   1075   1077     1   108.4600466 328.025600
   1077   1075   2218     1   109.7800468 425.094400
   1080   1081   1082     1   108.0100461 406.684800
   1080   1081   1083     1   108.0100461 406.684800
   1080   1084   1085     1   108.0100461 406.684800
   1080   1084   1086     1   108.0100461 406.684800
   1080   1087   1088     1   108.0100461 406.684800
   1080   1087   1089     1   108.0100461 406.684800
   1081   1080   1109     1   110.1100470 384.091200
   1081   1093   1094     1   109.8000471 387.438400
   1081   1093   1095     1   109.8000471 387.438400
   1082   1081   1093     1   110.5600475 386.601600
   1082   1081   1083     1   109.7500473 328.025600
   1083   1081   1093     1   110.5600475 386.601600
   1084   1080   1109     1   110.1100470 384.091200
   1084   1096   1097     1   109.8000471 387.438400
   1084   1096   1098     1   109.8000471 387.438400
   1085   1084   1096     1   110.5600475 386.601600
   1085   1084   1086     1   109.7500473 328.025600
   1086   1084   1096     1   110.5600475 386.601600
   1087   1080   1109     1   110.1100470 384.091200
   1087   1090   1091     1   109.8000471 387.438400
   1087   1090   1092     1   109.8000471 387.438400
   1088   1087   1090     1   110.5600475 386.601600
   1088   1087   1089     1   109.7500473 328.025600
   1089   1087   1090     1   110.5600475 386.601600
   1090   1099   1100     1   109.5600471 388.275200
   1090   1099   1101     1   109.5600471 388.275200
   1091   1090   1099     1   109.8000471 387.438400
   1091   1090   1092     1   107.5800459 329.699200
   1092   1090   1099     1   109.8000471 387.438400
   1093   1105   1106     1   109.5600471 388.275200
   1093   1105   1107     1   109.5600471 388.275200
   1094   1093   1105     1   109.8000471 387.438400
   1094   1093   1095     1   107.5800459 329.699200
   1095   1093   1105     1   109.8000471 387.438400
   1096   1102   1103     1   109.5600471 388.275200
   1096   1102   1104     1   109.5600471 388.275200
   1097   1096   1102     1   109.8000471 387.438400
   1097   1096   1098     1   107.5800459 329.699200
   1098   1096   1102     1   109.8000471 387.438400
   1100   1099   1108     1   109.7800468 425.094400
   1100   1099   1101     1   108.4600466 328.025600
   1101   1099   1108     1   109.7800468 425.094400
   1103   1102   2248     1   109.7800468 425.094400
   1103   1102   1104     1   108.4600466 328.025600
   1104   1102   2248     1   109.7800468 425.094400
   1106   1105   2278     1   109.7800468 425.094400
   1106   1105   1107     1   108.4600466 328.025600
   1107   1105   2278     1   109.7800468 425.094400
   1110   1111   1112     1   108.0100461 406.684800
   1110   1111   1113     1   108.0100461 406.684800
   1110   1114   1115     1   108.0100461 406.684800
   1110   1114   1116     1   108.0100461 406.684800
   1110   1117   1118     1   108.0100461 406.684800
   1110   1117   1119     1   108.0100461 406.684800
   1111   1110   1139     1   110.1100470 384.091200
   1111   1123   1124     1   109.8000471 387.438400
   1111   1123   1125     1   109.8000471 387.438400
   1112   1111   1123     1   110.5600475 386.601600
   1112   1111   1113     1   109.7500473 328.025600
   1113   1111   1123     1   110.5600475 386.601600
   1114   1110   1139     1   110.1100470 384.091200
   1114   1126   1127     1   109.8000471 387.438400
   1114   1126   1128     1   109.8000471 387.438400
   1115   1114   1126     1   110.5600475 386.601600
   1115   1114   1116     1   109.7500473 328.025600
   1116   1114   1126     1   110.5600475 386.601600
   1117   1110   1139     1   110.1100470 384.091200
   1117   1120   1121     1   109.8000471 387.438400
   1117   1120   1122     1   109.8000471 387.438400
   1118   1117   1120     1   110.5600475 386.601600
   1118   1117   1119     1   109.7500473 328.025600
   1119   1117   1120     1   110.5600475 386.601600
   1120   1129   1130     1   109.5600471 388.275200
   1120   1129   1131     1   109.5600471 388.275200
   1121   1120   1129     1   109.8000471 387.438400
   1121   1120   1122     1   107.5800459 329.699200
   1122   1120   1129     1   109.8000471 387.438400
   1123   1135   1136     1   109.5600471 388.275200
   1123   1135   1137     1   109.5600471 388.275200
   1124   1123   1135     1   109.8000471 387.438400
   1124   1123   1125     1   107.5800459 329.699200
   1125   1123   1135     1   109.8000471 387.438400
   1126   1132   1133     1   109.5600471 388.275200
   1126   1132   1134     1   109.5600471 388.275200
   1127   1126   1132     1   109.8000471 387.438400
   1127   1126   1128     1   107.5800459 329.699200
   1128   1126   1132     1   109.8000471 387.438400
   1130   1129   1138     1   109.7800468 425.094400
   1130   1129   1131     1   108.4600466 328.025600
   1131   1129   1138     1   109.7800468 425.094400
   1133   1132   2308     1   109.7800468 425.094400
   1133   1132   1134     1   108.4600466 328.025600
   1134   1132   2308     1   109.7800468 425.094400
   1136   1135   2338     1   109.7800468 425.094400
   1136   1135   1137     1   108.4600466 328.025600
   1137   1135   2338     1   109.7800468 425.094400
   1140   1141   1142     1   108.0100461 406.684800
   1140   1141   1143     1   108.0100461 406.684800
   1140   1144   1145     1   108.0100461 406.684800
   1140   1144   1146     1   108.0100461 406.684800
   1140   1147   1148     1   108.0100461 406.684800
   1140   1147   1149     1   108.0100461 406.684800
   1141   1140   1169     1   110.1100470 384.091200
   1141   1153   1154     1   109.8000471 387.438400
   1141   1153   1155     1   109.8000471 387.438400
   1142   1141   1153     1   110.5600475 386.601600
   1142   1141   1143     1   109.7500473 328.025600
   1143   1141   1153     1   110.5600475 386.601600
   1144   1140   1169     1   110.1100470 384.091200
   1144   1156   1157     1   109.8000471 387.438400
   1144   1156   1158     1   109.8000471 387.438400
   1145   1144   1156     1   110.5600475 386.601600
   1145   1144   1146     1   109.7500473 328.025600
   1146   1144   1156     1   110.5600475 386.601600
   1147   1140   1169     1   110.1100470 384.091200
   1147   1150   1151     1   109.8000471 387.438400
   1147   1150   1152     1   109.8000471 387.438400
   1148   1147   1150     1   110.5600475 386.601600
   1148   1147   1149     1   109.7500473 328.025600
   1149   1147   1150     1   110.5600475 386.601600
   1150   1159   1160     1   109.5600471 388.275200
   1150   1159   1161     1   109.5600471 388.275200
   1151   1150   1159     1   109.8000471 387.438400
   1151   1150   1152     1   107.5800459 329.699200
   1152   1150   1159     1   109.8000471 387.438400
   1153   1165   1166     1   109.5600471 388.275200
   1153   1165   1167     1   109.5600471 388.275200
   1154   1153   1165     1   109.8000471 387.438400
   1154   1153   1155     1   107.5800459 329.699200
   1155   1153   1165     1   109.8000471 387.438400
   1156   1162   1163     1   109.5600471 388.275200
   1156   1162   1164     1   109.5600471 388.275200
   1157   1156   1162     1   109.8000471 387.438400
   1157   1156   1158     1   107.5800459 329.699200
   1158   1156   1162     1   109.8000471 387.438400
   1160   1159   1168     1   109.7800468 425.094400
   1160   1159   1161     1   108.4600466 328.025600
   1161   1159   1168     1   109.7800468 425.094400
   1163   1162   2368     1   109.7800468 425.094400
   1163   1162   1164     1   108.4600466 328.025600
   1164   1162   2368     1   109.7800468 425.094400
   1166   1165   2398     1   109.7800468 425.094400
   1166   1165   1167     1   108.4600466 328.025600
   1167   1165   2398     1   109.7800468 425.094400
   1170   1171   1172     1   108.0100461 406.684800
   1170   1171   1173     1   108.0100461 406.684800
   1170   1174   1175     1   108.0100461 406.684800
   1170   1174   1176     1   108.0100461 406.684800
   1170   1177   1178     1   108.0100461 406.684800
   1170   1177   1179     1   108.0100461 406.684800
   1171   1170   1199     1   110.1100470 384.091200
   1171   1183   1184     1   109.8000471 387.438400
   1171   1183   1185     1   109.8000471 387.438400
   1172   1171   1183     1   110.5600475 386.601600
   1172   1171   1173     1   109.7500473 328.025600
   1173   1171   1183     1   110.5600475 386.601600
   1174   1170   1199     1   110.1100470 384.091200
   1174   1186   1187     1   109.8000471 387.438400
   1174   1186   1188     1   109.8000471 387.438400
   1175   1174   1186     1   110.5600475 386.601600
   1175   1174   1176     1   109.7500473 328.025600
   1176   1174   1186     1   110.5600475 386.601600
   1177   1170   1199     1   110.1100470 384.091200
   1177   1180   1181     1   109.8000471 387.438400
   1177   1180   1182     1   109.8000471 387.438400
   1178   1177   1180     1   110.5600475 386.601600
   1178   1177   1179     1   109.7500473 328.025600
   1179   1177   1180     1   110.5600475 386.601600
   1180   1189   1190     1   109.5600471 388.275200
   1180   1189   1191     1   109.5600471 388.275200
   1181   1180   1189     1   109.8000471 387.438400
   1181   1180   1182     1   107.5800459 329.699200
   1182   1180   1189     1   109.8000471 387.438400
   1183   1195   1196     1   109.5600471 388.275200
   1183   1195   1197     1   109.5600471 388.275200
   1184   1183   1195     1   109.8000471 387.438400
   1184   1183   1185     1   107.5800459 329.699200
   1185   1183   1195     1   109.8000471 387.438400
   1186   1192   1193     1   109.5600471 388.275200
   1186   1192   1194     1   109.5600471 388.275200
   1187   1186   1192     1   109.8000471 387.438400
   1187   1186   1188     1   107.5800459 329.699200
   1188   1186   1192     1   109.8000471 387.438400
   1190   1189   1198     1   109.7800468 425.094400
   1190   1189   1191     1   108.4600466 328.025600
   1191   1189   1198     1   109.7800468 425.094400
   1193   1192   2428     1   109.7800468 425.094400
   1193   1192   1194     1   108.4600466 328.025600
   1194   1192   2428     1   109.7800468 425.094400
   1196   1195   2458     1   109.7800468 425.094400
   1196   1195   1197     1   108.4600466 328.025600
   1197   1195   2458     1   109.7800468 425.094400
   1200   1201   1202     1   108.0100461 406.684800
   1200   1201   1203     1   108.0100461 406.684800
   1200   1204   1205     1   108.0100461 406.684800
   1200   1204   1206     1   108.0100461 406.684800
   1200   1207   1208     1   108.0100461 406.684800
   1200   1207   1209     1   108.0100461 406.684800
   1201   1200   1229     1   110.1100470 384.091200
   1201   1213   1214     1   109.8000471 387.438400
   1201   1213   1215     1   109.8000471 387.438400
   1202   1201   1213     1   110.5600475 386.601600
   1202   1201   1203     1   109.7500473 328.025600
   1203   1201   1213     1   110.5600475 386.601600
   1204   1200   1229     1   110.1100470 384.091200
   1204   1216   1217     1   109.8000471 387.438400
   1204   1216   1218     1   109.8000471 387.438400
   1205   1204   1216     1   110.5600475 386.601600
   1205   1204   1206     1   109.7500473 328.025600
   1206   1204   1216     1   110.5600475 386.601600
   1207   1200   1229     1   110.1100470 384.091200
   1207   1210   1211     1   109.8000471 387.438400
   1207   1210   1212     1   109.8000471 387.438400
   1208   1207   1210     1   110.5600475 386.601600
   1208   1207   1209     1   109.7500473 328.025600
   1209   1207   1210     1   110.5600475 386.601600
   1210   1219   1220     1   109.5600471 388.275200
   1210   1219   1221     1   109.5600471 388.275200
   1211   1210   1219     1   109.8000471 387.438400
   1211   1210   1212     1   107.5800459 329.699200
   1212   1210   1219     1   109.8000471 387.438400
   1213   1225   1226     1   109.5600471 388.275200
   1213   1225   1227     1   109.5600471 388.275200
   1214   1213   1225     1   109.8000471 387.438400
   1214   1213   1215     1   107.5800459 329.699200
   1215   1213   1225     1   109.8000471 387.438400
   1216   1222   1223     1   109.5600471 388.275200
   1216   1222   1224     1   109.5600471 388.275200
   1217   1216   1222     1   109.8000471 387.438400
   1217   1216   1218     1   107.5800459 329.699200
   1218   1216   1222     1   109.8000471 387.438400
   1220   1219   1228     1   109.7800468 425.094400
   1220   1219   1221     1   108.4600466 328.025600
   1221   1219   1228     1   109.7800468 425.094400
   1223   1222   2488     1   109.7800468 425.094400
   1223   1222   1224     1   108.4600466 328.025600
   1224   1222   2488     1   109.7800468 425.094400
   1226   1225   2518     1   109.7800468 425.094400
   1226   1225   1227     1   108.4600466 328.025600
   1227   1225   2518     1   109.7800468 425.094400
   1230   1231   1232     1   108.0100461 406.684800
   1230   1231   1233     1   108.0100461 406.684800
   1230   1234   1235     1   108.0100461 406.684800
   1230   1234   1236     1   108.0100461 406.684800
   1230   1237   1238     1   108.0100461 406.684800
   1230   1237   1239     1   108.0100461 406.684800
   1231   1230   1259     1   110.1100470 384.091200
   1231   1243   1244     1   109.8000471 387.438400
   1231   1243   1245     1   109.8000471 387.438400
   1232   1231   1243     1   110.5600475 386.601600
   1232   1231   1233     1   109.7500473 328.025600
   1233   1231   1243     1   110.5600475 386.601600
   1234   1230   1259     1   110.1100470 384.091200
   1234   1246   1247     1   109.8000471 387.438400
   1234   1246   1248     1   109.8000471 387.438400
   1235   1234   1246     1   110.5600475 386.601600
   1235   1234   1236     1   109.7500473 328.025600
   1236   1234   1246     1   110.5600475 386.601600
   1237   1230   1259     1   110.1100470 384.091200
   1237   1240   1241     1   109.8000471 387.438400
   1237   1240   1242     1   109.8000471 387.438400
   1238   1237   1240     1   110.5600475 386.601600
   1238   1237   1239     1   109.7500473 328.025600
   1239   1237   1240     1   110.5600475 386.601600
   1240   1249   1250     1   109.5600471 388.275200
   1240   1249   1251     1   109.5600471 388.275200
   1241   1240   1249     1   109.8000471 387.438400
   1241   1240   1242     1   107.5800459 329.699200
   1242   1240   1249     1   109.8000471 387.438400
   1243   1255   1256     1   109.5600471 388.275200
   1243   1255   1257     1   109.5600471 388.275200
   1244   1243   1255     1   109.8000471 387.438400
   1244   1243   1245     1   107.5800459 329.699200
   1245   1243   1255     1   109.8000471 387.438400
   1246   1252   1253     1   109.5600471 388.275200
   1246   1252   1254     1   109.5600471 388.275200
   1247   1246   1252     1   109.8000471 387.438400
   1247   1246   1248     1   107.5800459 329.699200
   1248   1246   1252     1   109.8000471 387.438400
   1250   1249   1258     1   109.7800468 425.094400
   1250   1249   1251     1   108.4600466 328.025600
   1251   1249   1258     1   109.7800468 425.094400
   1253   1252   2548     1   109.7800468 425.094400
   1253   1252   1254     1   108.4600466 328.025600
   1254   1252   2548     1   109.7800468 425.094400
   1256   1255   2578     1   109.7800468 425.094400
   1256   1255   1257     1   108.4600466 328.025600
   1257   1255   2578     1   109.7800468 425.094400
   1260   1261   1262     1   108.0100461 406.684800
   1260   1261   1263     1   108.0100461 406.684800
   1260   1264   1265     1   108.0100461 406.684800
   1260   1264   1266     1   108.0100461 406.684800
   1260   1267   1268     1   108.0100461 406.684800
   1260   1267   1269     1   108.0100461 406.684800
   1261   1260   1289     1   110.1100470 384.091200
   1261   1273   1274     1   109.8000471 387.438400
   1261   1273   1275     1   109.8000471 387.438400
   1262   1261   1273     1   110.5600475 386.601600
   1262   1261   1263     1   109.7500473 328.025600
   1263   1261   1273     1   110.5600475 386.601600
   1264   1260   1289     1   110.1100470 384.091200
   1264   1276   1277     1   109.8000471 387.438400
   1264   1276   1278     1   109.8000471 387.438400
   1265   1264   1276     1   110.5600475 386.601600
   1265   1264   1266     1   109.7500473 328.025600
   1266   1264   1276     1   110.5600475 386.601600
   1267   1260   1289     1   110.1100470 384.091200
   1267   1270   1271     1   109.8000471 387.438400
   1267   1270   1272     1   109.8000471 387.438400
   1268   1267   1270     1   110.5600475 386.601600
   1268   1267   1269     1   109.7500473 328.025600
   1269   1267   1270     1   110.5600475 386.601600
   1270   1279   1280     1   109.5600471 388.275200
   1270   1279   1281     1   109.5600471 388.275200
   1271   1270   1279     1   109.8000471 387.438400
   1271   1270   1272     1   107.5800459 329.699200
   1272   1270   1279     1   109.8000471 387.438400
   1273   1285   1286     1   109.5600471 388.275200
   1273   1285   1287     1   109.5600471 388.275200
   1274   1273   1285     1   109.8000471 387.438400
   1274   1273   1275     1   107.5800459 329.699200
   1275   1273   1285     1   109.8000471 387.438400
   1276   1282   1283     1   109.5600471 388.275200
   1276   1282   1284     1   109.5600471 388.275200
   1277   1276   1282     1   109.8000471 387.438400
   1277   1276   1278     1   107.5800459 329.699200
   1278   1276   1282     1   109.8000471 387.438400
   1280   1279   1288     1   109.7800468 425.094400
   1280   1279   1281     1   108.4600466 328.025600
   1281   1279   1288     1   109.7800468 425.094400
   1283   1282   2608     1   109.7800468 425.094400
   1283   1282   1284     1   108.4600466 328.025600
   1284   1282   2608     1   109.7800468 425.094400
   1286   1285   2638     1   109.7800468 425.094400
   1286   1285   1287     1   108.4600466 328.025600
   1287   1285   2638     1   109.7800468 425.094400
   1290   1291   1292     1   108.0100461 406.684800
   1290   1291   1293     1   108.0100461 406.684800
   1290   1294   1295     1   108.0100461 406.684800
   1290   1294   1296     1   108.0100461 406.684800
   1290   1297   1298     1   108.0100461 406.684800
   1290   1297   1299     1   108.0100461 406.684800
   1291   1290   1319     1   110.1100470 384.091200
   1291   1303   1304     1   109.8000471 387.438400
   1291   1303   1305     1   109.8000471 387.438400
   1292   1291   1303     1   110.5600475 386.601600
   1292   1291   1293     1   109.7500473 328.025600
   1293   1291   1303     1   110.5600475 386.601600
   1294   1290   1319     1   110.1100470 384.091200
   1294   1306   1307     1   109.8000471 387.438400
   1294   1306   1308     1   109.8000471 387.438400
   1295   1294   1306     1   110.5600475 386.601600
   1295   1294   1296     1   109.7500473 328.025600
   1296   1294   1306     1   110.5600475 386.601600
   1297   1290   1319     1   110.1100470 384.091200
   1297   1300   1301     1   109.8000471 387.438400
   1297   1300   1302     1   109.8000471 387.438400
   1298   1297   1300     1   110.5600475 386.601600
   1298   1297   1299     1   109.7500473 328.025600
   1299   1297   1300     1   110.5600475 386.601600
   1300   1309   1310     1   109.5600471 388.275200
   1300   1309   1311     1   109.5600471 388.275200
   1301   1300   1309     1   109.8000471 387.438400
   1301   1300   1302     1   107.5800459 329.699200
   1302   1300   1309     1   109.8000471 387.438400
   1303   1315   1316     1   109.5600471 388.275200
   1303   1315   1317     1   109.5600471 388.275200
   1304   1303   1315     1   109.8000471 387.438400
   1304   1303   1305     1   107.5800459 329.699200
   1305   1303   1315     1   109.8000471 387.438400
   1306   1312   1313     1   109.5600471 388.275200
   1306   1312   1314     1   109.5600471 388.275200
   1307   1306   1312     1   109.8000471 387.438400
   1307   1306   1308     1   107.5800459 329.699200
   1308   1306   1312     1   109.8000471 387.438400
   1310   1309   1318     1   109.7800468 425.094400
   1310   1309   1311     1   108.4600466 328.025600
   1311   1309   1318     1   109.7800468 425.094400
   1313   1312   2668     1   109.7800468 425.094400
   1313   1312   1314     1   108.4600466 328.025600
   1314   1312   2668     1   109.7800468 425.094400
   1316   1315   2698     1   109.7800468 425.094400
   1316   1315   1317     1   108.4600466 328.025600
   1317   1315   2698     1   109.7800468 425.094400
   1320   1321   1322     1   108.0100461 406.684800
   1320   1321   1323     1   108.0100461 406.684800
   1320   1324   1325     1   108.0100461 406.684800
   1320   1324   1326     1   108.0100461 406.684800
   1320   1327   1328     1   108.0100461 406.684800
   1320   1327   1329     1   108.0100461 406.684800
   1321   1320   1349     1   110.1100470 384.091200
   1321   1333   1334     1   109.8000471 387.438400
   1321   1333   1335     1   109.8000471 387.438400
   1322   1321   1333     1   110.5600475 386.601600
   1322   1321   1323     1   109.7500473 328.025600
   1323   1321   1333     1   110.5600475 386.601600
   1324   1320   1349     1   110.1100470 384.091200
   1324   1336   1337     1   109.8000471 387.438400
   1324   1336   1338     1   109.8000471 387.438400
   1325   1324   1336     1   110.5600475 386.601600
   1325   1324   1326     1   109.7500473 328.025600
   1326   1324   1336     1   110.5600475 386.601600
   1327   1320   1349     1   110.1100470 384.091200
   1327   1330   1331     1   109.8000471 387.438400
   1327   1330   1332     1   109.8000471 387.438400
   1328   1327   1330     1   110.5600475 386.601600
   1328   1327   1329     1   109.7500473 328.025600
   1329   1327   1330     1   110.5600475 386.601600
   1330   1339   1340     1   109.5600471 388.275200
   1330   1339   1341     1   109.5600471 388.275200
   1331   1330   1339     1   109.8000471 387.438400
   1331   1330   1332     1   107.5800459 329.699200
   1332   1330   1339     1   109.8000471 387.438400
   1333   1345   1346     1   109.5600471 388.275200
   1333   1345   1347     1   109.5600471 388.275200
   1334   1333   1345     1   109.8000471 387.438400
   1334   1333   1335     1   107.5800459 329.699200
   1335   1333   1345     1   109.8000471 387.438400
   1336   1342   1343     1   109.5600471 388.275200
   1336   1342   1344     1   109.5600471 388.275200
   1337   1336   1342     1   109.8000471 387.438400
   1337   1336   1338     1   107.5800459 329.699200
   1338   1336   1342     1   109.8000471 387.438400
   1340   1339   1348     1   109.7800468 425.094400
   1340   1339   1341     1   108.4600466 328.025600
   1341   1339   1348     1   109.7800468 425.094400
   1343   1342   2728     1   109.7800468 425.094400
   1343   1342   1344     1   108.4600466 328.025600
   1344   1342   2728     1   109.7800468 425.094400
   1346   1345   2758     1   109.7800468 425.094400
   1346   1345   1347     1   108.4600466 328.025600
   1347   1345   2758     1   109.7800468 425.094400
   1350   1351   1352     1   108.0100461 406.684800
   1350   1351   1353     1   108.0100461 406.684800
   1350   1354   1355     1   108.0100461 406.684800
   1350   1354   1356     1   108.0100461 406.684800
   1350   1357   1358     1   108.0100461 406.684800
   1350   1357   1359     1   108.0100461 406.684800
   1351   1350   1379     1   110.1100470 384.091200
   1351   1363   1364     1   109.8000471 387.438400
   1351   1363   1365     1   109.8000471 387.438400
   1352   1351   1363     1   110.5600475 386.601600
   1352   1351   1353     1   109.7500473 328.025600
   1353   1351   1363     1   110.5600475 386.601600
   1354   1350   1379     1   110.1100470 384.091200
   1354   1366   1367     1   109.8000471 387.438400
   1354   1366   1368     1   109.8000471 387.438400
   1355   1354   1366     1   110.5600475 386.601600
   1355   1354   1356     1   109.7500473 328.025600
   1356   1354   1366     1   110.5600475 386.601600
   1357   1350   1379     1   110.1100470 384.091200
   1357   1360   1361     1   109.8000471 387.438400
   1357   1360   1362     1   109.8000471 387.438400
   1358   1357   1360     1   110.5600475 386.601600
   1358   1357   1359     1   109.7500473 328.025600
   1359   1357   1360     1   110.5600475 386.601600
   1360   1369   1370     1   109.5600471 388.275200
   1360   1369   1371     1   109.5600471 388.275200
   1361   1360   1369     1   109.8000471 387.438400
   1361   1360   1362     1   107.5800459 329.699200
   1362   1360   1369     1   109.8000471 387.438400
   1363   1375   1376     1   109.5600471 388.275200
   1363   1375   1377     1   109.5600471 388.275200
   1364   1363   1375     1   109.8000471 387.438400
   1364   1363   1365     1   107.5800459 329.699200
   1365   1363   1375     1   109.8000471 387.438400
   1366   1372   1373     1   109.5600471 388.275200
   1366   1372   1374     1   109.5600471 388.275200
   1367   1366   1372     1   109.8000471 387.438400
   1367   1366   1368     1   107.5800459 329.699200
   1368   1366   1372     1   109.8000471 387.438400
   1370   1369   1378     1   109.7800468 425.094400
   1370   1369   1371     1   108.4600466 328.025600
   1371   1369   1378     1   109.7800468 425.094400
   1373   1372   2788     1   109.7800468 425.094400
   1373   1372   1374     1   108.4600466 328.025600
   1374   1372   2788     1   109.7800468 425.094400
   1376   1375   2818     1   109.7800468 425.094400
   1376   1375   1377     1   108.4600466 328.025600
   1377   1375   2818     1   109.7800468 425.094400
   1380   1381   1382     1   108.0100461 406.684800
   1380   1381   1383     1   108.0100461 406.684800
   1380   1384   1385     1   108.0100461 406.684800
   1380   1384   1386     1   108.0100461 406.684800
   1380   1387   1388     1   108.0100461 406.684800
   1380   1387   1389     1   108.0100461 406.684800
   1381   1380   1409     1   110.1100470 384.091200
   1381   1393   1394     1   109.8000471 387.438400
   1381   1393   1395     1   109.8000471 387.438400
   1382   1381   1393     1   110.5600475 386.601600
   1382   1381   1383     1   109.7500473 328.025600
   1383   1381   1393     1   110.5600475 386.601600
   1384   1380   1409     1   110.1100470 384.091200
   1384   1396   1397     1   109.8000471 387.438400
   1384   1396   1398     1   109.8000471 387.438400
   1385   1384   1396     1   110.5600475 386.601600
   1385   1384   1386     1   109.7500473 328.025600
   1386   1384   1396     1   110.5600475 386.601600
   1387   1380   1409     1   110.1100470 384.091200
   1387   1390   1391     1   109.8000471 387.438400
   1387   1390   1392     1   109.8000471 387.438400
   1388   1387   1390     1   110.5600475 386.601600
   1388   1387   1389     1   109.7500473 328.025600
   1389   1387   1390     1   110.5600475 386.601600
   1390   1399   1400     1   109.5600471 388.275200
   1390   1399   1401     1   109.5600471 388.275200
   1391   1390   1399     1   109.8000471 387.438400
   1391   1390   1392     1   107.5800459 329.699200
   1392   1390   1399     1   109.8000471 387.438400
   1393   1405   1406     1   109.5600471 388.275200
   1393   1405   1407     1   109.5600471 388.275200
   1394   1393   1405     1   109.8000471 387.438400
   1394   1393   1395     1   107.5800459 329.699200
   1395   1393   1405     1   109.8000471 387.438400
   1396   1402   1403     1   109.5600471 388.275200
   1396   1402   1404     1   109.5600471 388.275200
   1397   1396   1402     1   109.8000471 387.438400
   1397   1396   1398     1   107.5800459 329.699200
   1398   1396   1402     1   109.8000471 387.438400
   1400   1399   1408     1   109.7800468 425.094400
   1400   1399   1401     1   108.4600466 328.025600
   1401   1399   1408     1   109.7800468 425.094400
   1403   1402   2848     1   109.7800468 425.094400
   1403   1402   1404     1   108.4600466 328.025600
   1404   1402   2848     1   109.7800468 425.094400
   1406   1405   2878     1   109.7800468 425.094400
   1406   1405   1407     1   108.4600466 328.025600
   1407   1405   2878     1   109.7800468 425.094400
   1410   1411   1412     1   108.0100461 406.684800
   1410   1411   1413     1   108.0100461 406.684800
   1410   1414   1415     1   108.0100461 406.684800
   1410   1414   1416     1   108.0100461 406.684800
   1410   1417   1418     1   108.0100461 406.684800
   1410   1417   1419     1   108.0100461 406.684800
   1411   1410   1439     1   110.1100470 384.091200
   1411   1423   1424     1   109.8000471 387.438400
   1411   1423   1425     1   109.8000471 387.438400
   1412   1411   1423     1   110.5600475 386.601600
   1412   1411   1413     1   109.7500473 328.025600
   1413   1411   1423     1   110.5600475 386.601600
   1414   1410   1439     1   110.1100470 384.091200
   1414   1426   1427     1   109.8000471 387.438400
   1414   1426   1428     1   109.8000471 387.438400
   1415   1414   1426     1   110.5600475 386.601600
   1415   1414   1416     1   109.7500473 328.025600
   1416   1414   1426     1   110.5600475 386.601600
   1417   1410   1439     1   110.1100470 384.091200
   1417   1420   1421     1   109.8000471 387.438400
   1417   1420   1422     1   109.8000471 387.438400
   1418   1417   1420     1   110.5600475 386.601600
   1418   1417   1419     1   109.7500473 328.025600
   1419   1417   1420     1   110.5600475 386.601600
   1420   1429   1430     1   109.5600471 388.275200
   1420   1429   1431     1   109.5600471 388.275200
   1421   1420   1429     1   109.8000471 387.438400
   1421   1420   1422     1   107.5800459 329.699200
   1422   1420   1429     1   109.8000471 387.438400
   1423   1435   1436     1   109.5600471 388.275200
   1423   1435   1437     1   109.5600471 388.275200
   1424   1423   1435     1   109.8000471 387.438400
   1424   1423   1425     1   107.5800459 329.699200
   1425   1423   1435     1   109.8000471 387.438400
   1426   1432   1433     1   109.5600471 388.275200
   1426   1432   1434     1   109.5600471 388.275200
   1427   1426   1432     1   109.8000471 387.438400
   1427   1426   1428     1   107.5800459 329.699200
   1428   1426   1432     1   109.8000471 387.438400
   1430   1429   1438     1   109.7800468 425.094400
   1430   1429   1431     1   108.4600466 328.025600
   1431   1429   1438     1   109.7800468 425.094400
   1433   1432   2908     1   109.7800468 425.094400
   1433   1432   1434     1   108.4600466 328.025600
   1434   1432   2908     1   109.7800468 425.094400
   1436   1435   2938     1   109.7800468 425.094400
   1436   1435   1437     1   108.4600466 328.025600
   1437   1435   2938     1   109.7800468 425.094400
   1440   1441   1442     1   108.0100461 406.684800
   1440   1441   1443     1   108.0100461 406.684800
   1440   1444   1445     1   108.0100461 406.684800
   1440   1444   1446     1   108.0100461 406.684800
   1440   1447   1448     1   108.0100461 406.684800
   1440   1447   1449     1   108.0100461 406.684800
   1441   1440   1469     1   110.1100470 384.091200
   1441   1453   1454     1   109.8000471 387.438400
   1441   1453   1455     1   109.8000471 387.438400
   1442   1441   1453     1   110.5600475 386.601600
   1442   1441   1443     1   109.7500473 328.025600
   1443   1441   1453     1   110.5600475 386.601600
   1444   1440   1469     1   110.1100470 384.091200
   1444   1456   1457     1   109.8000471 387.438400
   1444   1456   1458     1   109.8000471 387.438400
   1445   1444   1456     1   110.5600475 386.601600
   1445   1444   1446     1   109.7500473 328.025600
   1446   1444   1456     1   110.5600475 386.601600
   1447   1440   1469     1   110.1100470 384.091200
   1447   1450   1451     1   109.8000471 387.438400
   1447   1450   1452     1   109.8000471 387.438400
   1448   1447   1450     1   110.5600475 386.601600
   1448   1447   1449     1   109.7500473 328.025600
   1449   1447   1450     1   110.5600475 386.601600
   1450   1459   1460     1   109.5600471 388.275200
   1450   1459   1461     1   109.5600471 388.275200
   1451   1450   1459     1   109.8000471 387.438400
   1451   1450   1452     1   107.5800459 329.699200
   1452   1450   1459     1   109.8000471 387.438400
   1453   1465   1466     1   109.5600471 388.275200
   1453   1465   1467     1   109.5600471 388.275200
   1454   1453   1465     1   109.8000471 387.438400
   1454   1453   1455     1   107.5800459 329.699200
   1455   1453   1465     1   109.8000471 387.438400
   1456   1462   1463     1   109.5600471 388.275200
   1456   1462   1464     1   109.5600471 388.275200
   1457   1456   1462     1   109.8000471 387.438400
   1457   1456   1458     1   107.5800459 329.699200
   1458   1456   1462     1   109.8000471 387.438400
   1460   1459   1468     1   109.7800468 425.094400
   1460   1459   1461     1   108.4600466 328.025600
   1461   1459   1468     1   109.7800468 425.094400
   1463   1462   2968     1   109.7800468 425.094400
   1463   1462   1464     1   108.4600466 328.025600
   1464   1462   2968     1   109.7800468 425.094400
   1466   1465   2998     1   109.7800468 425.094400
   1466   1465   1467     1   108.4600466 328.025600
   1467   1465   2998     1   109.7800468 425.094400
   1470   1471   1472     1   108.0100461 406.684800
   1470   1471   1473     1   108.0100461 406.684800
   1470   1474   1475     1   108.0100461 406.684800
   1470   1474   1476     1   108.0100461 406.684800
   1470   1477   1478     1   108.0100461 406.684800
   1470   1477   1479     1   108.0100461 406.684800
   1471   1470   1499     1   110.1100470 384.091200
   1471   1483   1484     1   109.8000471 387.438400
   1471   1483   1485     1   109.8000471 387.438400
   1472   1471   1483     1   110.5600475 386.601600
   1472   1471   1473     1   109.7500473 328.025600
   1473   1471   1483     1   110.5600475 386.601600
   1474   1470   1499     1   110.1100470 384.091200
   1474   1486   1487     1   109.8000471 387.438400
   1474   1486   1488     1   109.8000471 387.438400
   1475   1474   1486     1   110.5600475 386.601600
   1475   1474   1476     1   109.7500473 328.025600
   1476   1474   1486     1   110.5600475 386.601600
   1477   1470   1499     1   110.1100470 384.091200
   1477   1480   1481     1   109.8000471 387.438400
   1477   1480   1482     1   109.8000471 387.438400
   1478   1477   1480     1   110.5600475 386.601600
   1478   1477   1479     1   109.7500473 328.025600
   1479   1477   1480     1   110.5600475 386.601600
   1480   1489   1490     1   109.5600471 388.275200
   1480   1489   1491     1   109.5600471 388.275200
   1481   1480   1489     1   109.8000471 387.438400
   1481   1480   1482     1   107.5800459 329.699200
   1482   1480   1489     1   109.8000471 387.438400
   1483   1495   1496     1   109.5600471 388.275200
   1483   1495   1497     1   109.5600471 388.275200
   1484   1483   1495     1   109.8000471 387.438400
   1484   1483   1485     1   107.5800459 329.699200
   1485   1483   1495     1   109.8000471 387.438400
   1486   1492   1493     1   109.5600471 388.275200
   1486   1492   1494     1   109.5600471 388.275200
   1487   1486   1492     1   109.8000471 387.438400
   1487   1486   1488     1   107.5800459 329.699200
   1488   1486   1492     1   109.8000471 387.438400
   1490   1489   1498     1   109.7800468 425.094400
   1490   1489   1491     1   108.4600466 328.025600
   1491   1489   1498     1   109.7800468 425.094400
   1493   1492   3028     1   109.7800468 425.094400
   1493   1492   1494     1   108.4600466 328.025600
   1494   1492   3028     1   109.7800468 425.094400
   1496   1495   3058     1   109.7800468 425.094400
   1496   1495   1497     1   108.4600466 328.025600
   1497   1495   3058     1   109.7800468 425.094400
   1500   1501   1502     1   108.0100461 406.684800
   1500   1501   1503     1   108.0100461 406.684800
   1500   1504   1505     1   108.0100461 406.684800
   1500   1504   1506     1   108.0100461 406.684800
   1500   1507   1508     1   108.0100461 406.684800
   1500   1507   1509     1   108.0100461 406.684800
   1501   1500   1529     1   110.1100470 384.091200
   1501   1513   1514     1   109.8000471 387.438400
   1501   1513   1515     1   109.8000471 387.438400
   1502   1501   1513     1   110.5600475 386.601600
   1502   1501   1503     1   109.7500473 328.025600
   1503   1501   1513     1   110.5600475 386.601600
   1504   1500   1529     1   110.1100470 384.091200
   1504   1516   1517     1   109.8000471 387.438400
   1504   1516   1518     1   109.8000471 387.438400
   1505   1504   1516     1   110.5600475 386.601600
   1505   1504   1506     1   109.7500473 328.025600
   1506   1504   1516     1   110.5600475 386.601600
   1507   1500   1529     1   110.1100470 384.091200
   1507   1510   1511     1   109.8000471 387.438400
   1507   1510   1512     1   109.8000471 387.438400
   1508   1507   1510     1   110.5600475 386.601600
   1508   1507   1509     1   109.7500473 328.025600
   1509   1507   1510     1   110.5600475 386.601600
   1510   1519   1520     1   109.5600471 388.275200
   1510   1519   1521     1   109.5600471 388.275200
   1511   1510   1519     1   109.8000471 387.438400
   1511   1510   1512     1   107.5800459 329.699200
   1512   1510   1519     1   109.8000471 387.438400
   1513   1525   1526     1   109.5600471 388.275200
   1513   1525   1527     1   109.5600471 388.275200
   1514   1513   1525     1   109.8000471 387.438400
   1514   1513   1515     1   107.5800459 329.699200
   1515   1513   1525     1   109.8000471 387.438400
   1516   1522   1523     1   109.5600471 388.275200
   1516   1522   1524     1   109.5600471 388.275200
   1517   1516   1522     1   109.8000471 387.438400
   1517   1516   1518     1   107.5800459 329.699200
   1518   1516   1522     1   109.8000471 387.438400
   1520   1519   1528     1   109.7800468 425.094400
   1520   1519   1521     1   108.4600466 328.025600
   1521   1519   1528     1   109.7800468 425.094400
   1523   1522   3088     1   109.7800468 425.094400
   1523   1522   1524     1   108.4600466 328.025600
   1524   1522   3088     1   109.7800468 425.094400
   1526   1525   3118     1   109.7800468 425.094400
   1526   1525   1527     1   108.4600466 328.025600
   1527   1525   3118     1   109.7800468 425.094400
   1530   1531   1532     1   108.0100461 406.684800
   1530   1531   1533     1   108.0100461 406.684800
   1530   1534   1535     1   108.0100461 406.684800
   1530   1534   1536     1   108.0100461 406.684800
   1530   1537   1538     1   108.0100461 406.684800
   1530   1537   1539     1   108.0100461 406.684800
   1531   1530   1559     1   110.1100470 384.091200
   1531   1543   1544     1   109.8000471 387.438400
   1531   1543   1545     1   109.8000471 387.438400
   1532   1531   1543     1   110.5600475 386.601600
   1532   1531   1533     1   109.7500473 328.025600
   1533   1531   1543     1   110.5600475 386.601600
   1534   1530   1559     1   110.1100470 384.091200
   1534   1546   1547     1   109.8000471 387.438400
   1534   1546   1548     1   109.8000471 387.438400
   1535   1534   1546     1   110.5600475 386.601600
   1535   1534   1536     1   109.7500473 328.025600
   1536   1534   1546     1   110.5600475 386.601600
   1537   1530   1559     1   110.1100470 384.091200
   1537   1540   1541     1   109.8000471 387.438400
   1537   1540   1542     1   109.8000471 387.438400
   1538   1537   1540     1   110.5600475 386.601600
   1538   1537   1539     1   109.7500473 328.025600
   1539   1537   1540     1   110.5600475 386.601600
   1540   1549   1550     1   109.5600471 388.275200
   1540   1549   1551     1   109.5600471 388.275200
   1541   1540   1549     1   109.8000471 387.438400
   1541   1540   1542     1   107.5800459 329.699200
   1542   1540   1549     1   109.8000471 387.438400
   1543   1555   1556     1   109.5600471 388.275200
   1543   1555   1557     1   109.5600471 388.275200
   1544   1543   1555     1   109.8000471 387.438400
   1544   1543   1545     1   107.5800459 329.699200
   1545   1543   1555     1   109.8000471 387.438400
   1546   1552   1553     1   109.5600471 388.275200
   1546   1552   1554     1   109.5600471 388.275200
   1547   1546   1552     1   109.8000471 387.438400
   1547   1546   1548     1   107.5800459 329.699200
   1548   1546   1552     1   109.8000471 387.438400
   1550   1549   1558     1   109.7800468 425.094400
   1550   1549   1551     1   108.4600466 328.025600
   1551   1549   1558     1   109.7800468 425.094400
   1553   1552   3148     1   109.7800468 425.094400
   1553   1552   1554     1   108.4600466 328.025600
   1554   1552   3148     1   109.7800468 425.094400
   1556   1555   3178     1   109.7800468 425.094400
   1556   1555   1557     1   108.4600466 328.025600
   1557   1555   3178     1   109.7800468 425.094400
   1560   1561   1562     1   108.0100461 406.684800
   1560   1561   1563     1   108.0100461 406.684800
   1560   1564   1565     1   108.0100461 406.684800
   1560   1564   1566     1   108.0100461 406.684800
   1560   1567   1568     1   108.0100461 406.684800
   1560   1567   1569     1   108.0100461 406.684800
   1561   1560   1589     1   110.1100470 384.091200
   1561   1573   1574     1   109.8000471 387.438400
   1561   1573   1575     1   109.8000471 387.438400
   1562   1561   1573     1   110.5600475 386.601600
   1562   1561   1563     1   109.7500473 328.025600
   1563   1561   1573     1   110.5600475 386.601600
   1564   1560   1589     1   110.1100470 384.091200
   1564   1576   1577     1   109.8000471 387.438400
   1564   1576   1578     1   109.8000471 387.438400
   1565   1564   1576     1   110.5600475 386.601600
   1565   1564   1566     1   109.7500473 328.025600
   1566   1564   1576     1   110.5600475 386.601600
   1567   1560   1589     1   110.1100470 384.091200
   1567   1570   1571     1   109.8000471 387.438400
   1567   1570   1572     1   109.8000471 387.438400
   1568   1567   1570     1   110.5600475 386.601600
   1568   1567   1569     1   109.7500473 328.025600
   1569   1567   1570     1   110.5600475 386.601600
   1570   1579   1580     1   109.5600471 388.275200
   1570   1579   1581     1   109.5600471 388.275200
   1571   1570   1579     1   109.8000471 387.438400
   1571   1570   1572     1   107.5800459 329.699200
   1572   1570   1579     1   109.8000471 387.438400
   1573   1585   1586     1   109.5600471 388.275200
   1573   1585   1587     1   109.5600471 388.275200
   1574   1573   1585     1   109.8000471 387.438400
   1574   1573   1575     1   107.5800459 329.699200
   1575   1573   1585     1   109.8000471 387.438400
   1576   1582   1583     1   109.5600471 388.275200
   1576   1582   1584     1   109.5600471 388.275200
   1577   1576   1582     1   109.8000471 387.438400
   1577   1576   1578     1   107.5800459 329.699200
   1578   1576   1582     1   109.8000471 387.438400
   1580   1579   1588     1   109.7800468 425.094400
   1580   1579   1581     1   108.4600466 328.025600
   1581   1579   1588     1   109.7800468 425.094400
   1583   1582   3208     1   109.7800468 425.094400
   1583   1582   1584     1   108.4600466 328.025600
   1584   1582   3208     1   109.7800468 425.094400
   1586   1585   3238     1   109.7800468 425.094400
   1586   1585   1587     1   108.4600466 328.025600
   1587   1585   3238     1   109.7800468 425.094400
   1590   1591   1592     1   108.0100461 406.684800
   1590   1591   1593     1   108.0100461 406.684800
   1590   1594   1595     1   108.0100461 406.684800
   1590   1594   1596     1   108.0100461 406.684800
   1590   1597   1598     1   108.0100461 406.684800
   1590   1597   1599     1   108.0100461 406.684800
   1591   1590   1619     1   110.1100470 384.091200
   1591   1603   1604     1   109.8000471 387.438400
   1591   1603   1605     1   109.8000471 387.438400
   1592   1591   1603     1   110.5600475 386.601600
   1592   1591   1593     1   109.7500473 328.025600
   1593   1591   1603     1   110.5600475 386.601600
   1594   1590   1619     1   110.1100470 384.091200
   1594   1606   1607     1   109.8000471 387.438400
   1594   1606   1608     1   109.8000471 387.438400
   1595   1594   1606     1   110.5600475 386.601600
   1595   1594   1596     1   109.7500473 328.025600
   1596   1594   1606     1   110.5600475 386.601600
   1597   1590   1619     1   110.1100470 384.091200
   1597   1600   1601     1   109.8000471 387.438400
   1597   1600   1602     1   109.8000471 387.438400
   1598   1597   1600     1   110.5600475 386.601600
   1598   1597   1599     1   109.7500473 328.025600
   1599   1597   1600     1   110.5600475 386.601600
   1600   1609   1610     1   109.5600471 388.275200
   1600   1609   1611     1   109.5600471 388.275200
   1601   1600   1609     1   109.8000471 387.438400
   1601   1600   1602     1   107.5800459 329.699200
   1602   1600   1609     1   109.8000471 387.438400
   1603   1615   1616     1   109.5600471 388.275200
   1603   1615   1617     1   109.5600471 388.275200
   1604   1603   1615     1   109.8000471 387.438400
   1604   1603   1605     1   107.5800459 329.699200
   1605   1603   1615     1   109.8000471 387.438400
   1606   1612   1613     1   109.5600471 388.275200
   1606   1612   1614     1   109.5600471 388.275200
   1607   1606   1612     1   109.8000471 387.438400
   1607   1606   1608     1   107.5800459 329.699200
   1608   1606   1612     1   109.8000471 387.438400
   1610   1609   1618     1   109.7800468 425.094400
   1610   1609   1611     1   108.4600466 328.025600
   1611   1609   1618     1   109.7800468 425.094400
   1613   1612   3268     1   109.7800468 425.094400
   1613   1612   1614     1   108.4600466 328.025600
   1614   1612   3268     1   109.7800468 425.094400
   1616   1615   3298     1   109.7800468 425.094400
   1616   1615   1617     1   108.4600466 328.025600
   1617   1615   3298     1   109.7800468 425.094400
   1620   1621   1622     1   108.0100461 406.684800
   1620   1621   1623     1   108.0100461 406.684800
   1620   1624   1625     1   108.0100461 406.684800
   1620   1624   1626     1   108.0100461 406.684800
   1620   1627   1628     1   108.0100461 406.684800
   1620   1627   1629     1   108.0100461 406.684800
   1621   1620   1649     1   110.1100470 384.091200
   1621   1633   1634     1   109.8000471 387.438400
   1621   1633   1635     1   109.8000471 387.438400
   1622   1621   1633     1   110.5600475 386.601600
   1622   1621   1623     1   109.7500473 328.025600
   1623   1621   1633     1   110.5600475 386.601600
   1624   1620   1649     1   110.1100470 384.091200
   1624   1636   1637     1   109.8000471 387.438400
   1624   1636   1638     1   109.8000471 387.438400
   1625   1624   1636     1   110.5600475 386.601600
   1625   1624   1626     1   109.7500473 328.025600
   1626   1624   1636     1   110.5600475 386.601600
   1627   1620   1649     1   110.1100470 384.091200
   1627   1630   1631     1   109.8000471 387.438400
   1627   1630   1632     1   109.8000471 387.438400
   1628   1627   1630     1   110.5600475 386.601600
   1628   1627   1629     1   109.7500473 328.025600
   1629   1627   1630     1   110.5600475 386.601600
   1630   1639   1640     1   109.5600471 388.275200
   1630   1639   1641     1   109.5600471 388.275200
   1631   1630   1639     1   109.8000471 387.438400
   1631   1630   1632     1   107.5800459 329.699200
   1632   1630   1639     1   109.8000471 387.438400
   1633   1645   1646     1   109.5600471 388.275200
   1633   1645   1647     1   109.5600471 388.275200
   1634   1633   1645     1   109.8000471 387.438400
   1634   1633   1635     1   107.5800459 329.699200
   1635   1633   1645     1   109.8000471 387.438400
   1636   1642   1643     1   109.5600471 388.275200
   1636   1642   1644     1   109.5600471 388.275200
   1637   1636   1642     1   109.8000471 387.438400
   1637   1636   1638     1   107.5800459 329.699200
   1638   1636   1642     1   109.8000471 387.438400
   1640   1639   1648     1   109.7800468 425.094400
   1640   1639   1641     1   108.4600466 328.025600
   1641   1639   1648     1   109.7800468 425.094400
   1643   1642   3328     1   109.7800468 425.094400
   1643   1642   1644     1   108.4600466 328.025600
   1644   1642   3328     1   109.7800468 425.094400
   1646   1645   3358     1   109.7800468 425.094400
   1646   1645   1647     1   108.4600466 328.025600
   1647   1645   3358     1   109.7800468 425.094400
   1650   1651   1652     1   108.0100461 406.684800
   1650   1651   1653     1   108.0100461 406.684800
   1650   1654   1655     1   108.0100461 406.684800
   1650   1654   1656     1   108.0100461 406.684800
   1650   1657   1658     1   108.0100461 406.684800
   1650   1657   1659     1   108.0100461 406.684800
   1651   1650   1679     1   110.1100470 384.091200
   1651   1663   1664     1   109.8000471 387.438400
   1651   1663   1665     1   109.8000471 387.438400
   1652   1651   1663     1   110.5600475 386.601600
   1652   1651   1653     1   109.7500473 328.025600
   1653   1651   1663     1   110.5600475 386.601600
   1654   1650   1679     1   110.1100470 384.091200
   1654   1666   1667     1   109.8000471 387.438400
   1654   1666   1668     1   109.8000471 387.438400
   1655   1654   1666     1   110.5600475 386.601600
   1655   1654   1656     1   109.7500473 328.025600
   1656   1654   1666     1   110.5600475 386.601600
   1657   1650   1679     1   110.1100470 384.091200
   1657   1660   1661     1   109.8000471 387.438400
   1657   1660   1662     1   109.8000471 387.438400
   1658   1657   1660     1   110.5600475 386.601600
   1658   1657   1659     1   109.7500473 328.025600
   1659   1657   1660     1   110.5600475 386.601600
   1660   1669   1670     1   109.5600471 388.275200
   1660   1669   1671     1   109.5600471 388.275200
   1661   1660   1669     1   109.8000471 387.438400
   1661   1660   1662     1   107.5800459 329.699200
   1662   1660   1669     1   109.8000471 387.438400
   1663   1675   1676     1   109.5600471 388.275200
   1663   1675   1677     1   109.5600471 388.275200
   1664   1663   1675     1   109.8000471 387.438400
   1664   1663   1665     1   107.5800459 329.699200
   1665   1663   1675     1   109.8000471 387.438400
   1666   1672   1673     1   109.5600471 388.275200
   1666   1672   1674     1   109.5600471 388.275200
   1667   1666   1672     1   109.8000471 387.438400
   1667   1666   1668     1   107.5800459 329.699200
   1668   1666   1672     1   109.8000471 387.438400
   1670   1669   1678     1   109.7800468 425.094400
   1670   1669   1671     1   108.4600466 328.025600
   1671   1669   1678     1   109.7800468 425.094400
   1673   1672   3388     1   109.7800468 425.094400
   1673   1672   1674     1   108.4600466 328.025600
   1674   1672   3388     1   109.7800468 425.094400
   1676   1675   3418     1   109.7800468 425.094400
   1676   1675   1677     1   108.4600466 328.025600
   1677   1675   3418     1   109.7800468 425.094400
   1680   1681   1682     1   108.0100461 406.684800
   1680   1681   1683     1   108.0100461 406.684800
   1680   1684   1685     1   108.0100461 406.684800
   1680   1684   1686     1   108.0100461 406.684800
   1680   1687   1688     1   108.0100461 406.684800
   1680   1687   1689     1   108.0100461 406.684800
   1681   1680   1709     1   110.1100470 384.091200
   1681   1693   1694     1   109.8000471 387.438400
   1681   1693   1695     1   109.8000471 387.438400
   1682   1681   1693     1   110.5600475 386.601600
   1682   1681   1683     1   109.7500473 328.025600
   1683   1681   1693     1   110.5600475 386.601600
   1684   1680   1709     1   110.1100470 384.091200
   1684   1696   1697     1   109.8000471 387.438400
   1684   1696   1698     1   109.8000471 387.438400
   1685   1684   1696     1   110.5600475 386.601600
   1685   1684   1686     1   109.7500473 328.025600
   1686   1684   1696     1   110.5600475 386.601600
   1687   1680   1709     1   110.1100470 384.091200
   1687   1690   1691     1   109.8000471 387.438400
   1687   1690   1692     1   109.8000471 387.438400
   1688   1687   1690     1   110.5600475 386.601600
   1688   1687   1689     1   109.7500473 328.025600
   1689   1687   1690     1   110.5600475 386.601600
   1690   1699   1700     1   109.5600471 388.275200
   1690   1699   1701     1   109.5600471 388.275200
   1691   1690   1699     1   109.8000471 387.438400
   1691   1690   1692     1   107.5800459 329.699200
   1692   1690   1699     1   109.8000471 387.438400
   1693   1705   1706     1   109.5600471 388.275200
   1693   1705   1707     1   109.5600471 388.275200
   1694   1693   1705     1   109.8000471 387.438400
   1694   1693   1695     1   107.5800459 329.699200
   1695   1693   1705     1   109.8000471 387.438400
   1696   1702   1703     1   109.5600471 388.275200
   1696   1702   1704     1   109.5600471 388.275200
   1697   1696   1702     1   109.8000471 387.438400
   1697   1696   1698     1   107.5800459 329.699200
   1698   1696   1702     1   109.8000471 387.438400
   1700   1699   1708     1   109.7800468 425.094400
   1700   1699   1701     1   108.4600466 328.025600
   1701   1699   1708     1   109.7800468 425.094400
   1703   1702   3448     1   109.7800468 425.094400
   1703   1702   1704     1   108.4600466 328.025600
   1704   1702   3448     1   109.7800468 425.094400
   1706   1705   3478     1   109.7800468 425.094400
   1706   1705   1707     1   108.4600466 328.025600
   1707   1705   3478     1   109.7800468 425.094400
   1710   1711   1712     1   108.0100461 406.684800
   1710   1711   1713     1   108.0100461 406.684800
   1710   1714   1715     1   108.0100461 406.684800
   1710   1714   1716     1   108.0100461 406.684800
   1710   1717   1718     1   108.0100461 406.684800
   1710   1717   1719     1   108.0100461 406.684800
   1711   1710   1739     1   110.1100470 384.091200
   1711   1723   1724     1   109.8000471 387.438400
   1711   1723   1725     1   109.8000471 387.438400
   1712   1711   1723     1   110.5600475 386.601600
   1712   1711   1713     1   109.7500473 328.025600
   1713   1711   1723     1   110.5600475 386.601600
   1714   1710   1739     1   110.1100470 384.091200
   1714   1726   1727     1   109.8000471 387.438400
   1714   1726   1728     1   109.8000471 387.438400
   1715   1714   1726     1   110.5600475 386.601600
   1715   1714   1716     1   109.7500473 328.025600
   1716   1714   1726     1   110.5600475 386.601600
   1717   1710   1739     1   110.1100470 384.091200
   1717   1720   1721     1   109.8000471 387.438400
   1717   1720   1722     1   109.8000471 387.438400
   1718   1717   1720     1   110.5600475 386.601600
   1718   1717   1719     1   109.7500473 328.025600
   1719   1717   1720     1   110.5600475 386.601600
   1720   1729   1730     1   109.5600471 388.275200
   1720   1729   1731     1   109.5600471 388.275200
   1721   1720   1729     1   109.8000471 387.438400
   1721   1720   1722     1   107.5800459 329.699200
   1722   1720   1729     1   109.8000471 387.438400
   1723   1735   1736     1   109.5600471 388.275200
   1723   1735   1737     1   109.5600471 388.275200
   1724   1723   1735     1   109.8000471 387.438400
   1724   1723   1725     1   107.5800459 329.699200
   1725   1723   1735     1   109.8000471 387.438400
   1726   1732   1733     1   109.5600471 388.275200
   1726   1732   1734     1   109.5600471 388.275200
   1727   1726   1732     1   109.8000471 387.438400
   1727   1726   1728     1   107.5800459 329.699200
   1728   1726   1732     1   109.8000471 387.438400
   1730   1729   1738     1   109.7800468 425.094400
   1730   1729   1731     1   108.4600466 328.025600
   1731   1729   1738     1   109.7800468 425.094400
   1733   1732   3508     1   109.7800468 425.094400
   1733   1732   1734     1   108.4600466 328.025600
   1734   1732   3508     1   109.7800468 425.094400
   1736   1735   3538     1   109.7800468 425.094400
   1736   1735   1737     1   108.4600466 328.025600
   1737   1735   3538     1   109.7800468 425.094400
   1740   1741   1742     1   108.0100461 406.684800
   1740   1741   1743     1   108.0100461 406.684800
   1740   1744   1745     1   108.0100461 406.684800
   1740   1744   1746     1   108.0100461 406.684800
   1740   1747   1748     1   108.0100461 406.684800
   1740   1747   1749     1   108.0100461 406.684800
   1741   1740   1769     1   110.1100470 384.091200
   1741   1753   1754     1   109.8000471 387.438400
   1741   1753   1755     1   109.8000471 387.438400
   1742   1741   1753     1   110.5600475 386.601600
   1742   1741   1743     1   109.7500473 328.025600
   1743   1741   1753     1   110.5600475 386.601600
   1744   1740   1769     1   110.1100470 384.091200
   1744   1756   1757     1   109.8000471 387.438400
   1744   1756   1758     1   109.8000471 387.438400
   1745   1744   1756     1   110.5600475 386.601600
   1745   1744   1746     1   109.7500473 328.025600
   1746   1744   1756     1   110.5600475 386.601600
   1747   1740   1769     1   110.1100470 384.091200
   1747   1750   1751     1   109.8000471 387.438400
   1747   1750   1752     1   109.8000471 387.438400
   1748   1747   1750     1   110.5600475 386.601600
   1748   1747   1749     1   109.7500473 328.025600
   1749   1747   1750     1   110.5600475 386.601600
   1750   1759   1760     1   109.5600471 388.275200
   1750   1759   1761     1   109.5600471 388.275200
   1751   1750   1759     1   109.8000471 387.438400
   1751   1750   1752     1   107.5800459 329.699200
   1752   1750   1759     1   109.8000471 387.438400
   1753   1765   1766     1   109.5600471 388.275200
   1753   1765   1767     1   109.5600471 388.275200
   1754   1753   1765     1   109.8000471 387.438400
   1754   1753   1755     1   107.5800459 329.699200
   1755   1753   1765     1   109.8000471 387.438400
   1756   1762   1763     1   109.5600471 388.275200
   1756   1762   1764     1   109.5600471 388.275200
   1757   1756   1762     1   109.8000471 387.438400
   1757   1756   1758     1   107.5800459 329.699200
   1758   1756   1762     1   109.8000471 387.438400
   1760   1759   1768     1   109.7800468 425.094400
   1760   1759   1761     1   108.4600466 328.025600
   1761   1759   1768     1   109.7800468 425.094400
   1763   1762   3568     1   109.7800468 425.094400
   1763   1762   1764     1   108.4600466 328.025600
   1764   1762   3568     1   109.7800468 425.094400
   1766   1765   3598     1   109.7800468 425.094400
   1766   1765   1767     1   108.4600466 328.025600
   1767   1765   3598     1   109.7800468 425.094400
   1770   1771   1772     1   108.0100461 406.684800
   1770   1771   1773     1   108.0100461 406.684800
   1770   1774   1775     1   108.0100461 406.684800
   1770   1774   1776     1   108.0100461 406.684800
   1770   1777   1778     1   108.0100461 406.684800
   1770   1777   1779     1   108.0100461 406.684800
   1771   1770   1799     1   110.1100470 384.091200
   1771   1783   1784     1   109.8000471 387.438400
   1771   1783   1785     1   109.8000471 387.438400
   1772   1771   1783     1   110.5600475 386.601600
   1772   1771   1773     1   109.7500473 328.025600
   1773   1771   1783     1   110.5600475 386.601600
   1774   1770   1799     1   110.1100470 384.091200
   1774   1786   1787     1   109.8000471 387.438400
   1774   1786   1788     1   109.8000471 387.438400
   1775   1774   1786     1   110.5600475 386.601600
   1775   1774   1776     1   109.7500473 328.025600
   1776   1774   1786     1   110.5600475 386.601600
   1777   1770   1799     1   110.1100470 384.091200
   1777   1780   1781     1   109.8000471 387.438400
   1777   1780   1782     1   109.8000471 387.438400
   1778   1777   1780     1   110.5600475 386.601600
   1778   1777   1779     1   109.7500473 328.025600
   1779   1777   1780     1   110.5600475 386.601600
   1780   1789   1790     1   109.5600471 388.275200
   1780   1789   1791     1   109.5600471 388.275200
   1781   1780   1789     1   109.8000471 387.438400
   1781   1780   1782     1   107.5800459 329.699200
   1782   1780   1789     1   109.8000471 387.438400
   1783   1795   1796     1   109.5600471 388.275200
   1783   1795   1797     1   109.5600471 388.275200
   1784   1783   1795     1   109.8000471 387.438400
   1784   1783   1785     1   107.5800459 329.699200
   1785   1783   1795     1   109.8000471 387.438400
   1786   1792   1793     1   109.5600471 388.275200
   1786   1792   1794     1   109.5600471 388.275200
   1787   1786   1792     1   109.8000471 387.438400
   1787   1786   1788     1   107.5800459 329.699200
   1788   1786   1792     1   109.8000471 387.438400
   1790   1789   1798     1   109.7800468 425.094400
   1790   1789   1791     1   108.4600466 328.025600
   1791   1789   1798     1   109.7800468 425.094400
   1793   1792   3628     1   109.7800468 425.094400
   1793   1792   1794     1   108.4600466 328.025600
   1794   1792   3628     1   109.7800468 425.094400
   1796   1795   3658     1   109.7800468 425.094400
   1796   1795   1797     1   108.4600466 328.025600
   1797   1795   3658     1   109.7800468 425.094400
   1800   1801   1802     1   108.0100461 406.684800
   1800   1801   1803     1   108.0100461 406.684800
   1800   1804   1805     1   108.0100461 406.684800
   1800   1804   1806     1   108.0100461 406.684800
   1800   1807   1808     1   108.0100461 406.684800
   1800   1807   1809     1   108.0100461 406.684800
   1801   1800   1829     1   110.1100470 384.091200
   1801   1813   1814     1   109.8000471 387.438400
   1801   1813   1815     1   109.8000471 387.438400
   1802   1801   1813     1   110.5600475 386.601600
   1802   1801   1803     1   109.7500473 328.025600
   1803   1801   1813     1   110.5600475 386.601600
   1804   1800   1829     1   110.1100470 384.091200
   1804   1816   1817     1   109.8000471 387.438400
   1804   1816   1818     1   109.8000471 387.438400
   1805   1804   1816     1   110.5600475 386.601600
   1805   1804   1806     1   109.7500473 328.025600
   1806   1804   1816     1   110.5600475 386.601600
   1807   1800   1829     1   110.1100470 384.091200
   1807   1810   1811     1   109.8000471 387.438400
   1807   1810   1812     1   109.8000471 387.438400
   1808   1807   1810     1   110.5600475 386.601600
   1808   1807   1809     1   109.7500473 328.025600
   1809   1807   1810     1   110.5600475 386.601600
   1810   1819   1820     1   109.5600471 388.275200
   1810   1819   1821     1   109.5600471 388.275200
   1811   1810   1819     1   109.8000471 387.438400
   1811   1810   1812     1   107.5800459 329.699200
   1812   1810   1819     1   109.8000471 387.438400
   1813   1825   1826     1   109.5600471 388.275200
   1813   1825   1827     1   109.5600471 388.275200
   1814   1813   1825     1   109.8000471 387.438400
   1814   1813   1815     1   107.5800459 329.699200
   1815   1813   1825     1   109.8000471 387.438400
   1816   1822   1823     1   109.5600471 388.275200
   1816   1822   1824     1   109.5600471 388.275200
   1817   1816   1822     1   109.8000471 387.438400
   1817   1816   1818     1   107.5800459 329.699200
   1818   1816   1822     1   109.8000471 387.438400
   1820   1819   1828     1   109.7800468 425.094400
   1820   1819   1821     1   108.4600466 328.025600
   1821   1819   1828     1   109.7800468 425.094400
   1823   1822   3688     1   109.7800468 425.094400
   1823   1822   1824     1   108.4600466 328.025600
   1824   1822   3688     1   109.7800468 425.094400
   1826   1825   3718     1   109.7800468 425.094400
   1826   1825   1827     1   108.4600466 328.025600
   1827   1825   3718     1   109.7800468 425.094400
   1830   1831   1832     1   108.0100461 406.684800
   1830   1831   1833     1   108.0100461 406.684800
   1830   1834   1835     1   108.0100461 406.684800
   1830   1834   1836     1   108.0100461 406.684800
   1830   1837   1838     1   108.0100461 406.684800
   1830   1837   1839     1   108.0100461 406.684800
   1831   1830   1859     1   110.1100470 384.091200
   1831   1843   1844     1   109.8000471 387.438400
   1831   1843   1845     1   109.8000471 387.438400
   1832   1831   1843     1   110.5600475 386.601600
   1832   1831   1833     1   109.7500473 328.025600
   1833   1831   1843     1   110.5600475 386.601600
   1834   1830   1859     1   110.1100470 384.091200
   1834   1846   1847     1   109.8000471 387.438400
   1834   1846   1848     1   109.8000471 387.438400
   1835   1834   1846     1   110.5600475 386.601600
   1835   1834   1836     1   109.7500473 328.025600
   1836   1834   1846     1   110.5600475 386.601600
   1837   1830   1859     1   110.1100470 384.091200
   1837   1840   1841     1   109.8000471 387.438400
   1837   1840   1842     1   109.8000471 387.438400
   1838   1837   1840     1   110.5600475 386.601600
   1838   1837   1839     1   109.7500473 328.025600
   1839   1837   1840     1   110.5600475 386.601600
   1840   1849   1850     1   109.5600471 388.275200
   1840   1849   1851     1   109.5600471 388.275200
   1841   1840   1849     1   109.8000471 387.438400
   1841   1840   1842     1   107.5800459 329.699200
   1842   1840   1849     1   109.8000471 387.438400
   1843   1855   1856     1   109.5600471 388.275200
   1843   1855   1857     1   109.5600471 388.275200
   1844   1843   1855     1   109.8000471 387.438400
   1844   1843   1845     1   107.5800459 329.699200
   1845   1843   1855     1   109.8000471 387.438400
   1846   1852   1853     1   109.5600471 388.275200
   1846   1852   1854     1   109.5600471 388.275200
   1847   1846   1852     1   109.8000471 387.438400
   1847   1846   1848     1   107.5800459 329.699200
   1848   1846   1852     1   109.8000471 387.438400
   1850   1849   1858     1   109.7800468 425.094400
   1850   1849   1851     1   108.4600466 328.025600
   1851   1849   1858     1   109.7800468 425.094400
   1853   1852   3748     1   109.7800468 425.094400
   1853   1852   1854     1   108.4600466 328.025600
   1854   1852   3748     1   109.7800468 425.094400
   1856   1855   3778     1   109.7800468 425.094400
   1856   1855   1857     1   108.4600466 328.025600
   1857   1855   3778     1   109.7800468 425.094400
   1860   1861   1862     1   108.0100461 406.684800
   1860   1861   1863     1   108.0100461 406.684800
   1860   1864   1865     1   108.0100461 406.684800
   1860   1864   1866     1   108.0100461 406.684800
   1860   1867   1868     1   108.0100461 406.684800
   1860   1867   1869     1   108.0100461 406.684800
   1861   1860   1889     1   110.1100470 384.091200
   1861   1873   1874     1   109.8000471 387.438400
   1861   1873   1875     1   109.8000471 387.438400
   1862   1861   1873     1   110.5600475 386.601600
   1862   1861   1863     1   109.7500473 328.025600
   1863   1861   1873     1   110.5600475 386.601600
   1864   1860   1889     1   110.1100470 384.091200
   1864   1876   1877     1   109.8000471 387.438400
   1864   1876   1878     1   109.8000471 387.438400
   1865   1864   1876     1   110.5600475 386.601600
   1865   1864   1866     1   109.7500473 328.025600
   1866   1864   1876     1   110.5600475 386.601600
   1867   1860   1889     1   110.1100470 384.091200
   1867   1870   1871     1   109.8000471 387.438400
   1867   1870   1872     1   109.8000471 387.438400
   1868   1867   1870     1   110.5600475 386.601600
   1868   1867   1869     1   109.7500473 328.025600
   1869   1867   1870     1   110.5600475 386.601600
   1870   1879   1880     1   109.5600471 388.275200
   1870   1879   1881     1   109.5600471 388.275200
   1871   1870   1879     1   109.8000471 387.438400
   1871   1870   1872     1   107.5800459 329.699200
   1872   1870   1879     1   109.8000471 387.438400
   1873   1885   1886     1   109.5600471 388.275200
   1873   1885   1887     1   109.5600471 388.275200
   1874   1873   1885     1   109.8000471 387.438400
   1874   1873   1875     1   107.5800459 329.699200
   1875   1873   1885     1   109.8000471 387.438400
   1876   1882   1883     1   109.5600471 388.275200
   1876   1882   1884     1   109.5600471 388.275200
   1877   1876   1882     1   109.8000471 387.438400
   1877   1876   1878     1   107.5800459 329.699200
   1878   1876   1882     1   109.8000471 387.438400
   1880   1879   1888     1   109.7800468 425.094400
   1880   1879   1881     1   108.4600466 328.025600
   1881   1879   1888     1   109.7800468 425.094400
   1883   1882   3808     1   109.7800468 425.094400
   1883   1882   1884     1   108.4600466 328.025600
   1884   1882   3808     1   109.7800468 425.094400
   1886   1885   3838     1   109.7800468 425.094400
   1886   1885   1887     1   108.4600466 328.025600
   1887   1885   3838     1   109.7800468 425.094400
   1890   1891   1892     1   108.0100461 406.684800
   1890   1891   1893     1   108.0100461 406.684800
   1890   1894   1895     1   108.0100461 406.684800
   1890   1894   1896     1   108.0100461 406.684800
   1890   1897   1898     1   108.0100461 406.684800
   1890   1897   1899     1   108.0100461 406.684800
   1891   1890   1919     1   110.1100470 384.091200
   1891   1903   1904     1   109.8000471 387.438400
   1891   1903   1905     1   109.8000471 387.438400
   1892   1891   1903     1   110.5600475 386.601600
   1892   1891   1893     1   109.7500473 328.025600
   1893   1891   1903     1   110.5600475 386.601600
   1894   1890   1919     1   110.1100470 384.091200
   1894   1906   1907     1   109.8000471 387.438400
   1894   1906   1908     1   109.8000471 387.438400
   1895   1894   1906     1   110.5600475 386.601600
   1895   1894   1896     1   109.7500473 328.025600
   1896   1894   1906     1   110.5600475 386.601600
   1897   1890   1919     1   110.1100470 384.091200
   1897   1900   1901     1   109.8000471 387.438400
   1897   1900   1902     1   109.8000471 387.438400
   1898   1897   1900     1   110.5600475 386.601600
   1898   1897   1899     1   109.7500473 328.025600
   1899   1897   1900     1   110.5600475 386.601600
   1900   1909   1910     1   109.5600471 388.275200
   1900   1909   1911     1   109.5600471 388.275200
   1901   1900   1909     1   109.8000471 387.438400
   1901   1900   1902     1   107.5800459 329.699200
   1902   1900   1909     1   109.8000471 387.438400
   1903   1915   1916     1   109.5600471 388.275200
   1903   1915   1917     1   109.5600471 388.275200
   1904   1903   1915     1   109.8000471 387.438400
   1904   1903   1905     1   107.5800459 329.699200
   1905   1903   1915     1   109.8000471 387.438400
   1906   1912   1913     1   109.5600471 388.275200
   1906   1912   1914     1   109.5600471 388.275200
   1907   1906   1912     1   109.8000471 387.438400
   1907   1906   1908     1   107.5800459 329.699200
   1908   1906   1912     1   109.8000471 387.438400
   1910   1909   1918     1   109.7800468 425.094400
   1910   1909   1911     1   108.4600466 328.025600
   1911   1909   1918     1   109.7800468 425.094400
   1913   1912   3868     1   109.7800468 425.094400
   1913   1912   1914     1   108.4600466 328.025600
   1914   1912   3868     1   109.7800468 425.094400
   1916   1915   3898     1   109.7800468 425.094400
   1916   1915   1917     1   108.4600466 328.025600
   1917   1915   3898     1   109.7800468 425.094400
   1920   1921   1922     1   108.0100461 406.684800
   1920   1921   1923     1   108.0100461 406.684800
   1920   1924   1925     1   108.0100461 406.684800
   1920   1924   1926     1   108.0100461 406.684800
   1920   1927   1928     1   108.0100461 406.684800
   1920   1927   1929     1   108.0100461 406.684800
   1921   1920   1949     1   110.1100470 384.091200
   1921   1933   1934     1   109.8000471 387.438400
   1921   1933   1935     1   109.8000471 387.438400
   1922   1921   1933     1   110.5600475 386.601600
   1922   1921   1923     1   109.7500473 328.025600
   1923   1921   1933     1   110.5600475 386.601600
   1924   1920   1949     1   110.1100470 384.091200
   1924   1936   1937     1   109.8000471 387.438400
   1924   1936   1938     1   109.8000471 387.438400
   1925   1924   1936     1   110.5600475 386.601600
   1925   1924   1926     1   109.7500473 328.025600
   1926   1924   1936     1   110.5600475 386.601600
   1927   1920   1949     1   110.1100470 384.091200
   1927   1930   1931     1   109.8000471 387.438400
   1927   1930   1932     1   109.8000471 387.438400
   1928   1927   1930     1   110.5600475 386.601600
   1928   1927   1929     1   109.7500473 328.025600
   1929   1927   1930     1   110.5600475 386.601600
   1930   1939   1940     1   109.5600471 388.275200
   1930   1939   1941     1   109.5600471 388.275200
   1931   1930   1939     1   109.8000471 387.438400
   1931   1930   1932     1   107.5800459 329.699200
   1932   1930   1939     1   109.8000471 387.438400
   1933   1945   1946     1   109.5600471 388.275200
   1933   1945   1947     1   109.5600471 388.275200
   1934   1933   1945     1   109.8000471 387.438400
   1934   1933   1935     1   107.5800459 329.699200
   1935   1933   1945     1   109.8000471 387.438400
   1936   1942   1943     1   109.5600471 388.275200
   1936   1942   1944     1   109.5600471 388.275200
   1937   1936   1942     1   109.8000471 387.438400
   1937   1936   1938     1   107.5800459 329.699200
   1938   1936   1942     1   109.8000471 387.438400
   1940   1939   1948     1   109.7800468 425.094400
   1940   1939   1941     1   108.4600466 328.025600
   1941   1939   1948     1   109.7800468 425.094400
   1943   1942   3928     1   109.7800468 425.094400
   1943   1942   1944     1   108.4600466 328.025600
   1944   1942   3928     1   109.7800468 425.094400
   1946   1945   3958     1   109.7800468 425.094400
   1946   1945   1947     1   108.4600466 328.025600
   1947   1945   3958     1   109.7800468 425.094400
   1950   1951   1952     1   108.0100461 406.684800
   1950   1951   1953     1   108.0100461 406.684800
   1950   1954   1955     1   108.0100461 406.684800
   1950   1954   1956     1   108.0100461 406.684800
   1950   1957   1958     1   108.0100461 406.684800
   1950   1957   1959     1   108.0100461 406.684800
   1951   1950   1979     1   110.1100470 384.091200
   1951   1963   1964     1   109.8000471 387.438400
   1951   1963   1965     1   109.8000471 387.438400
   1952   1951   1963     1   110.5600475 386.601600
   1952   1951   1953     1   109.7500473 328.025600
   1953   1951   1963     1   110.5600475 386.601600
   1954   1950   1979     1   110.1100470 384.091200
   1954   1966   1967     1   109.8000471 387.438400
   1954   1966   1968     1   109.8000471 387.438400
   1955   1954   1966     1   110.5600475 386.601600
   1955   1954   1956     1   109.7500473 328.025600
   1956   1954   1966     1   110.5600475 386.601600
   1957   1950   1979     1   110.1100470 384.091200
   1957   1960   1961     1   109.8000471 387.438400
   1957   1960   1962     1   109.8000471 387.438400
   1958   1957   1960     1   110.5600475 386.601600
   1958   1957   1959     1   109.7500473 328.025600
   1959   1957   1960     1   110.5600475 386.601600
   1960   1969   1970     1   109.5600471 388.275200
   1960   1969   1971     1   109.5600471 388.275200
   1961   1960   1969     1   109.8000471 387.438400
   1961   1960   1962     1   107.5800459 329.699200
   1962   1960   1969     1   109.8000471 387.438400
   1963   1975   1976     1   109.5600471 388.275200
   1963   1975   1977     1   109.5600471 388.275200
   1964   1963   1975     1   109.8000471 387.438400
   1964   1963   1965     1   107.5800459 329.699200
   1965   1963   1975     1   109.8000471 387.438400
   1966   1972   1973     1   109.5600471 388.275200
   1966   1972   1974     1   109.5600471 388.275200
   1967   1966   1972     1   109.8000471 387.438400
   1967   1966   1968     1   107.5800459 329.699200
   1968   1966   1972     1   109.8000471 387.438400
   1970   1969   1978     1   109.7800468 425.094400
   1970   1969   1971     1   108.4600466 328.025600
   1971   1969   1978     1   109.7800468 425.094400
   1973   1972   3988     1   109.7800468 425.094400
   1973   1972   1974     1   108.4600466 328.025600
   1974   1972   3988     1   109.7800468 425.094400
   1976   1975   4018     1   109.7800468 425.094400
   1976   1975   1977     1   108.4600466 328.025600
   1977   1975   4018     1   109.7800468 425.094400
   1980   1981   1982     1   108.0100461 406.684800
   1980   1981   1983     1   108.0100461 406.684800
   1980   1984   1985     1   108.0100461 406.684800
   1980   1984   1986     1   108.0100461 406.684800
   1980   1987   1988     1   108.0100461 406.684800
   1980   1987   1989     1   108.0100461 406.684800
   1981   1980   2009     1   110.1100470 384.091200
   1981   1993   1994     1   109.8000471 387.438400
   1981   1993   1995     1   109.8000471 387.438400
   1982   1981   1993     1   110.5600475 386.601600
   1982   1981   1983     1   109.7500473 328.025600
   1983   1981   1993     1   110.5600475 386.601600
   1984   1980   2009     1   110.1100470 384.091200
   1984   1996   1997     1   109.8000471 387.438400
   1984   1996   1998     1   109.8000471 387.438400
   1985   1984   1996     1   110.5600475 386.601600
   1985   1984   1986     1   109.7500473 328.025600
   1986   1984   1996     1   110.5600475 386.601600
   1987   1980   2009     1   110.1100470 384.091200
   1987   1990   1991     1   109.8000471 387.438400
   1987   1990   1992     1   109.8000471 387.438400
   1988   1987   1990     1   110.5600475 386.601600
   1988   1987   1989     1   109.7500473 328.025600
   1989   1987   1990     1   110.5600475 386.601600
   1990   1999   2000     1   109.5600471 388.275200
   1990   1999   2001     1   109.5600471 388.275200
   1991   1990   1999     1   109.8000471 387.438400
   1991   1990   1992     1   107.5800459 329.699200
   1992   1990   1999     1   109.8000471 387.438400
   1993   2005   2006     1   109.5600471 388.275200
   1993   2005   2007     1   109.5600471 388.275200
   1994   1993   2005     1   109.8000471 387.438400
   1994   1993   1995     1   107.5800459 329.699200
   1995   1993   2005     1   109.8000471 387.438400
   1996   2002   2003     1   109.5600471 388.275200
   1996   2002   2004     1   109.5600471 388.275200
   1997   1996   2002     1   109.8000471 387.438400
   1997   1996   1998     1   107.5800459 329.699200
   1998   1996   2002     1   109.8000471 387.438400
   2000   1999   2008     1   109.7800468 425.094400
   2000   1999   2001     1   108.4600466 328.025600
   2001   1999   2008     1   109.7800468 425.094400
   2003   2002   4048     1   109.7800468 425.094400
   2003   2002   2004     1   108.4600466 328.025600
   2004   2002   4048     1   109.7800468 425.094400
   2006   2005   4078     1   109.7800468 425.094400
   2006   2005   2007     1   108.4600466 328.025600
   2007   2005   4078     1   109.7800468 425.094400
   2010   2011   2012     1   108.0100461 406.684800
   2010   2011   2013     1   108.0100461 406.684800
   2010   2014   2015     1   108.0100461 406.684800
   2010   2014   2016     1   108.0100461 406.684800
   2010   2017   2018     1   108.0100461 406.684800
   2010   2017   2019     1   108.0100461 406.684800
   2011   2010   2039     1   110.1100470 384.091200
   2011   2023   2024     1   109.8000471 387.438400
   2011   2023   2025     1   109.8000471 387.438400
   2012   2011   2023     1   110.5600475 386.601600
   2012   2011   2013     1   109.7500473 328.025600
   2013   2011   2023     1   110.5600475 386.601600
   2014   2010   2039     1   110.1100470 384.091200
   2014   2026   2027     1   109.8000471 387.438400
   2014   2026   2028     1   109.8000471 387.438400
   2015   2014   2026     1   110.5600475 386.601600
   2015   2014   2016     1   109.7500473 328.025600
   2016   2014   2026     1   110.5600475 386.601600
   2017   2010   2039     1   110.1100470 384.091200
   2017   2020   2021     1   109.8000471 387.438400
   2017   2020   2022     1   109.8000471 387.438400
   2018   2017   2020     1   110.5600475 386.601600
   2018   2017   2019     1   109.7500473 328.025600
   2019   2017   2020     1   110.5600475 386.601600
   2020   2029   2030     1   109.5600471 388.275200
   2020   2029   2031     1   109.5600471 388.275200
   2021   2020   2029     1   109.8000471 387.438400
   2021   2020   2022     1   107.5800459 329.699200
   2022   2020   2029     1   109.8000471 387.438400
   2023   2035   2036     1   109.5600471 388.275200
   2023   2035   2037     1   109.5600471 388.275200
   2024   2023   2035     1   109.8000471 387.438400
   2024   2023   2025     1   107.5800459 329.699200
   2025   2023   2035     1   109.8000471 387.438400
   2026   2032   2033     1   109.5600471 388.275200
   2026   2032   2034     1   109.5600471 388.275200
   2027   2026   2032     1   109.8000471 387.438400
   2027   2026   2028     1   107.5800459 329.699200
   2028   2026   2032     1   109.8000471 387.438400
   2030   2029   2038     1   109.7800468 425.094400
   2030   2029   2031     1   108.4600466 328.025600
   2031   2029   2038     1   109.7800468 425.094400
   2033   2032   4108     1   109.7800468 425.094400
   2033   2032   2034     1   108.4600466 328.025600
   2034   2032   4108     1   109.7800468 425.094400
   2036   2035   4138     1   109.7800468 425.094400
   2036   2035   2037     1   108.4600466 328.025600
   2037   2035   4138     1   109.7800468 425.094400
   2040   2041   2042     1   108.0100461 406.684800
   2040   2041   2043     1   108.0100461 406.684800
   2040   2044   2045     1   108.0100461 406.684800
   2040   2044   2046     1   108.0100461 406.684800
   2040   2047   2048     1   108.0100461 406.684800
   2040   2047   2049     1   108.0100461 406.684800
   2041   2040   2069     1   110.1100470 384.091200
   2041   2053   2054     1   109.8000471 387.438400
   2041   2053   2055     1   109.8000471 387.438400
   2042   2041   2053     1   110.5600475 386.601600
   2042   2041   2043     1   109.7500473 328.025600
   2043   2041   2053     1   110.5600475 386.601600
   2044   2040   2069     1   110.1100470 384.091200
   2044   2056   2057     1   109.8000471 387.438400
   2044   2056   2058     1   109.8000471 387.438400
   2045   2044   2056     1   110.5600475 386.601600
   2045   2044   2046     1   109.7500473 328.025600
   2046   2044   2056     1   110.5600475 386.601600
   2047   2040   2069     1   110.1100470 384.091200
   2047   2050   2051     1   109.8000471 387.438400
   2047   2050   2052     1   109.8000471 387.438400
   2048   2047   2050     1   110.5600475 386.601600
   2048   2047   2049     1   109.7500473 328.025600
   2049   2047   2050     1   110.5600475 386.601600
   2050   2059   2060     1   109.5600471 388.275200
   2050   2059   2061     1   109.5600471 388.275200
   2051   2050   2059     1   109.8000471 387.438400
   2051   2050   2052     1   107.5800459 329.699200
   2052   2050   2059     1   109.8000471 387.438400
   2053   2065   2066     1   109.5600471 388.275200
   2053   2065   2067     1   109.5600471 388.275200
   2054   2053   2065     1   109.8000471 387.438400
   2054   2053   2055     1   107.5800459 329.699200
   2055   2053   2065     1   109.8000471 387.438400
   2056   2062   2063     1   109.5600471 388.275200
   2056   2062   2064     1   109.5600471 388.275200
   2057   2056   2062     1   109.8000471 387.438400
   2057   2056   2058     1   107.5800459 329.699200
   2058   2056   2062     1   109.8000471 387.438400
   2060   2059   2068     1   109.7800468 425.094400
   2060   2059   2061     1   108.4600466 328.025600
   2061   2059   2068     1   109.7800468 425.094400
   2063   2062   4168     1   109.7800468 425.094400
   2063   2062   2064     1   108.4600466 328.025600
   2064   2062   4168     1   109.7800468 425.094400
   2066   2065   4198     1   109.7800468 425.094400
   2066   2065   2067     1   108.4600466 328.025600
   2067   2065   4198     1   109.7800468 425.094400
   2070   2071   2072     1   108.0100461 406.684800
   2070   2071   2073     1   108.0100461 406.684800
   2070   2074   2075     1   108.0100461 406.684800
   2070   2074   2076     1   108.0100461 406.684800
   2070   2077   2078     1   108.0100461 406.684800
   2070   2077   2079     1   108.0100461 406.684800
   2071   2070   2099     1   110.1100470 384.091200
   2071   2083   2084     1   109.8000471 387.438400
   2071   2083   2085     1   109.8000471 387.438400
   2072   2071   2083     1   110.5600475 386.601600
   2072   2071   2073     1   109.7500473 328.025600
   2073   2071   2083     1   110.5600475 386.601600
   2074   2070   2099     1   110.1100470 384.091200
   2074   2086   2087     1   109.8000471 387.438400
   2074   2086   2088     1   109.8000471 387.438400
   2075   2074   2086     1   110.5600475 386.601600
   2075   2074   2076     1   109.7500473 328.025600
   2076   2074   2086     1   110.5600475 386.601600
   2077   2070   2099     1   110.1100470 384.091200
   2077   2080   2081     1   109.8000471 387.438400
   2077   2080   2082     1   109.8000471 387.438400
   2078   2077   2080     1   110.5600475 386.601600
   2078   2077   2079     1   109.7500473 328.025600
   2079   2077   2080     1   110.5600475 386.601600
   2080   2089   2090     1   109.5600471 388.275200
   2080   2089   2091     1   109.5600471 388.275200
   2081   2080   2089     1   109.8000471 387.438400
   2081   2080   2082     1   107.5800459 329.699200
   2082   2080   2089     1   109.8000471 387.438400
   2083   2095   2096     1   109.5600471 388.275200
   2083   2095   2097     1   109.5600471 388.275200
   2084   2083   2095     1   109.8000471 387.438400
   2084   2083   2085     1   107.5800459 329.699200
   2085   2083   2095     1   109.8000471 387.438400
   2086   2092   2093     1   109.5600471 388.275200
   2086   2092   2094     1   109.5600471 388.275200
   2087   2086   2092     1   109.8000471 387.438400
   2087   2086   2088     1   107.5800459 329.699200
   2088   2086   2092     1   109.8000471 387.438400
   2090   2089   2098     1   109.7800468 425.094400
   2090   2089   2091     1   108.4600466 328.025600
   2091   2089   2098     1   109.7800468 425.094400
   2093   2092   4228     1   109.7800468 425.094400
   2093   2092   2094     1   108.4600466 328.025600
   2094   2092   4228     1   109.7800468 425.094400
   2096   2095   4258     1   109.7800468 425.094400
   2096   2095   2097     1   108.4600466 328.025600
   2097   2095   4258     1   109.7800468 425.094400
   2100   2101   2102     1   108.0100461 406.684800
   2100   2101   2103     1   108.0100461 406.684800
   2100   2104   2105     1   108.0100461 406.684800
   2100   2104   2106     1   108.0100461 406.684800
   2100   2107   2108     1   108.0100461 406.684800
   2100   2107   2109     1   108.0100461 406.684800
   2101   2100   2129     1   110.1100470 384.091200
   2101   2113   2114     1   109.8000471 387.438400
   2101   2113   2115     1   109.8000471 387.438400
   2102   2101   2113     1   110.5600475 386.601600
   2102   2101   2103     1   109.7500473 328.025600
   2103   2101   2113     1   110.5600475 386.601600
   2104   2100   2129     1   110.1100470 384.091200
   2104   2116   2117     1   109.8000471 387.438400
   2104   2116   2118     1   109.8000471 387.438400
   2105   2104   2116     1   110.5600475 386.601600
   2105   2104   2106     1   109.7500473 328.025600
   2106   2104   2116     1   110.5600475 386.601600
   2107   2100   2129     1   110.1100470 384.091200
   2107   2110   2111     1   109.8000471 387.438400
   2107   2110   2112     1   109.8000471 387.438400
   2108   2107   2110     1   110.5600475 386.601600
   2108   2107   2109     1   109.7500473 328.025600
   2109   2107   2110     1   110.5600475 386.601600
   2110   2119   2120     1   109.5600471 388.275200
   2110   2119   2121     1   109.5600471 388.275200
   2111   2110   2119     1   109.8000471 387.438400
   2111   2110   2112     1   107.5800459 329.699200
   2112   2110   2119     1   109.8000471 387.438400
   2113   2125   2126     1   109.5600471 388.275200
   2113   2125   2127     1   109.5600471 388.275200
   2114   2113   2125     1   109.8000471 387.438400
   2114   2113   2115     1   107.5800459 329.699200
   2115   2113   2125     1   109.8000471 387.438400
   2116   2122   2123     1   109.5600471 388.275200
   2116   2122   2124     1   109.5600471 388.275200
   2117   2116   2122     1   109.8000471 387.438400
   2117   2116   2118     1   107.5800459 329.699200
   2118   2116   2122     1   109.8000471 387.438400
   2120   2119   2128     1   109.7800468 425.094400
   2120   2119   2121     1   108.4600466 328.025600
   2121   2119   2128     1   109.7800468 425.094400
   2123   2122   4288     1   109.7800468 425.094400
   2123   2122   2124     1   108.4600466 328.025600
   2124   2122   4288     1   109.7800468 425.094400
   2126   2125   4318     1   109.7800468 425.094400
   2126   2125   2127     1   108.4600466 328.025600
   2127   2125   4318     1   109.7800468 425.094400
   2130   2131   2132     1   108.0100461 406.684800
   2130   2131   2133     1   108.0100461 406.684800
   2130   2134   2135     1   108.0100461 406.684800
   2130   2134   2136     1   108.0100461 406.684800
   2130   2137   2138     1   108.0100461 406.684800
   2130   2137   2139     1   108.0100461 406.684800
   2131   2130   2159     1   110.1100470 384.091200
   2131   2143   2144     1   109.8000471 387.438400
   2131   2143   2145     1   109.8000471 387.438400
   2132   2131   2143     1   110.5600475 386.601600
   2132   2131   2133     1   109.7500473 328.025600
   2133   2131   2143     1   110.5600475 386.601600
   2134   2130   2159     1   110.1100470 384.091200
   2134   2146   2147     1   109.8000471 387.438400
   2134   2146   2148     1   109.8000471 387.438400
   2135   2134   2146     1   110.5600475 386.601600
   2135   2134   2136     1   109.7500473 328.025600
   2136   2134   2146     1   110.5600475 386.601600
   2137   2130   2159     1   110.1100470 384.091200
   2137   2140   2141     1   109.8000471 387.438400
   2137   2140   2142     1   109.8000471 387.438400
   2138   2137   2140     1   110.5600475 386.601600
   2138   2137   2139     1   109.7500473 328.025600
   2139   2137   2140     1   110.5600475 386.601600
   2140   2149   2150     1   109.5600471 388.275200
   2140   2149   2151     1   109.5600471 388.275200
   2141   2140   2149     1   109.8000471 387.438400
   2141   2140   2142     1   107.5800459 329.699200
   2142   2140   2149     1   109.8000471 387.438400
   2143   2155   2156     1   109.5600471 388.275200
   2143   2155   2157     1   109.5600471 388.275200
   2144   2143   2155     1   109.8000471 387.438400
   2144   2143   2145     1   107.5800459 329.699200
   2145   2143   2155     1   109.8000471 387.438400
   2146   2152   2153     1   109.5600471 388.275200
   2146   2152   2154     1   109.5600471 388.275200
   2147   2146   2152     1   109.8000471 387.438400
   2147   2146   2148     1   107.5800459 329.699200
   2148   2146   2152     1   109.8000471 387.438400
   2150   2149   2158     1   109.7800468 425.094400
   2150   2149   2151     1   108.4600466 328.025600
   2151   2149   2158     1   109.7800468 425.094400
   2153   2152   4348     1   109.7800468 425.094400
   2153   2152   2154     1   108.4600466 328.025600
   2154   2152   4348     1   109.7800468 425.094400
   2156   2155   4378     1   109.7800468 425.094400
   2156   2155   2157     1   108.4600466 328.025600
   2157   2155   4378     1   109.7800468 425.094400
   2160   2161   2162     1   108.0100461 406.684800
   2160   2161   2163     1   108.0100461 406.684800
   2160   2164   2165     1   108.0100461 406.684800
   2160   2164   2166     1   108.0100461 406.684800
   2160   2167   2168     1   108.0100461 406.684800
   2160   2167   2169     1   108.0100461 406.684800
   2161   2160   2189     1   110.1100470 384.091200
   2161   2173   2174     1   109.8000471 387.438400
   2161   2173   2175     1   109.8000471 387.438400
   2162   2161   2173     1   110.5600475 386.601600
   2162   2161   2163     1   109.7500473 328.025600
   2163   2161   2173     1   110.5600475 386.601600
   2164   2160   2189     1   110.1100470 384.091200
   2164   2176   2177     1   109.8000471 387.438400
   2164   2176   2178     1   109.8000471 387.438400
   2165   2164   2176     1   110.5600475 386.601600
   2165   2164   2166     1   109.7500473 328.025600
   2166   2164   2176     1   110.5600475 386.601600
   2167   2160   2189     1   110.1100470 384.091200
   2167   2170   2171     1   109.8000471 387.438400
   2167   2170   2172     1   109.8000471 387.438400
   2168   2167   2170     1   110.5600475 386.601600
   2168   2167   2169     1   109.7500473 328.025600
   2169   2167   2170     1   110.5600475 386.601600
   2170   2179   2180     1   109.5600471 388.275200
   2170   2179   2181     1   109.5600471 388.275200
   2171   2170   2179     1   109.8000471 387.438400
   2171   2170   2172     1   107.5800459 329.699200
   2172   2170   2179     1   109.8000471 387.438400
   2173   2185   2186     1   109.5600471 388.275200
   2173   2185   2187     1   109.5600471 388.275200
   2174   2173   2185     1   109.8000471 387.438400
   2174   2173   2175     1   107.5800459 329.699200
   2175   2173   2185     1   109.8000471 387.438400
   2176   2182   2183     1   109.5600471 388.275200
   2176   2182   2184     1   109.5600471 388.275200
   2177   2176   2182     1   109.8000471 387.438400
   2177   2176   2178     1   107.5800459 329.699200
   2178   2176   2182     1   109.8000471 387.438400
   2180   2179   2188     1   109.7800468 425.094400
   2180   2179   2181     1   108.4600466 328.025600
   2181   2179   2188     1   109.7800468 425.094400
   2183   2182   4408     1   109.7800468 425.094400
   2183   2182   2184     1   108.4600466 328.025600
   2184   2182   4408     1   109.7800468 425.094400
   2186   2185   4438     1   109.7800468 425.094400
   2186   2185   2187     1   108.4600466 328.025600
   2187   2185   4438     1   109.7800468 425.094400
   2190   2191   2192     1   108.0100461 406.684800
   2190   2191   2193     1   108.0100461 406.684800
   2190   2194   2195     1   108.0100461 406.684800
   2190   2194   2196     1   108.0100461 406.684800
   2190   2197   2198     1   108.0100461 406.684800
   2190   2197   2199     1   108.0100461 406.684800
   2191   2190   2219     1   110.1100470 384.091200
   2191   2203   2204     1   109.8000471 387.438400
   2191   2203   2205     1   109.8000471 387.438400
   2192   2191   2203     1   110.5600475 386.601600
   2192   2191   2193     1   109.7500473 328.025600
   2193   2191   2203     1   110.5600475 386.601600
   2194   2190   2219     1   110.1100470 384.091200
   2194   2206   2207     1   109.8000471 387.438400
   2194   2206   2208     1   109.8000471 387.438400
   2195   2194   2206     1   110.5600475 386.601600
   2195   2194   2196     1   109.7500473 328.025600
   2196   2194   2206     1   110.5600475 386.601600
   2197   2190   2219     1   110.1100470 384.091200
   2197   2200   2201     1   109.8000471 387.438400
   2197   2200   2202     1   109.8000471 387.438400
   2198   2197   2200     1   110.5600475 386.601600
   2198   2197   2199     1   109.7500473 328.025600
   2199   2197   2200     1   110.5600475 386.601600
   2200   2209   2210     1   109.5600471 388.275200
   2200   2209   2211     1   109.5600471 388.275200
   2201   2200   2209     1   109.8000471 387.438400
   2201   2200   2202     1   107.5800459 329.699200
   2202   2200   2209     1   109.8000471 387.438400
   2203   2215   2216     1   109.5600471 388.275200
   2203   2215   2217     1   109.5600471 388.275200
   2204   2203   2215     1   109.8000471 387.438400
   2204   2203   2205     1   107.5800459 329.699200
   2205   2203   2215     1   109.8000471 387.438400
   2206   2212   2213     1   109.5600471 388.275200
   2206   2212   2214     1   109.5600471 388.275200
   2207   2206   2212     1   109.8000471 387.438400
   2207   2206   2208     1   107.5800459 329.699200
   2208   2206   2212     1   109.8000471 387.438400
   2210   2209   2218     1   109.7800468 425.094400
   2210   2209   2211     1   108.4600466 328.025600
   2211   2209   2218     1   109.7800468 425.094400
   2213   2212   4468     1   109.7800468 425.094400
   2213   2212   2214     1   108.4600466 328.025600
   2214   2212   4468     1   109.7800468 425.094400
   2216   2215   4498     1   109.7800468 425.094400
   2216   2215   2217     1   108.4600466 328.025600
   2217   2215   4498     1   109.7800468 425.094400
   2220   2221   2222     1   108.0100461 406.684800
   2220   2221   2223     1   108.0100461 406.684800
   2220   2224   2225     1   108.0100461 406.684800
   2220   2224   2226     1   108.0100461 406.684800
   2220   2227   2228     1   108.0100461 406.684800
   2220   2227   2229     1   108.0100461 406.684800
   2221   2220   2249     1   110.1100470 384.091200
   2221   2233   2234     1   109.8000471 387.438400
   2221   2233   2235     1   109.8000471 387.438400
   2222   2221   2233     1   110.5600475 386.601600
   2222   2221   2223     1   109.7500473 328.025600
   2223   2221   2233     1   110.5600475 386.601600
   2224   2220   2249     1   110.1100470 384.091200
   2224   2236   2237     1   109.8000471 387.438400
   2224   2236   2238     1   109.8000471 387.438400
   2225   2224   2236     1   110.5600475 386.601600
   2225   2224   2226     1   109.7500473 328.025600
   2226   2224   2236     1   110.5600475 386.601600
   2227   2220   2249     1   110.1100470 384.091200
   2227   2230   2231     1   109.8000471 387.438400
   2227   2230   2232     1   109.8000471 387.438400
   2228   2227   2230     1   110.5600475 386.601600
   2228   2227   2229     1   109.7500473 328.025600
   2229   2227   2230     1   110.5600475 386.601600
   2230   2239   2240     1   109.5600471 388.275200
   2230   2239   2241     1   109.5600471 388.275200
   2231   2230   2239     1   109.8000471 387.438400
   2231   2230   2232     1   107.5800459 329.699200
   2232   2230   2239     1   109.8000471 387.438400
   2233   2245   2246     1   109.5600471 388.275200
   2233   2245   2247     1   109.5600471 388.275200
   2234   2233   2245     1   109.8000471 387.438400
   2234   2233   2235     1   107.5800459 329.699200
   2235   2233   2245     1   109.8000471 387.438400
   2236   2242   2243     1   109.5600471 388.275200
   2236   2242   2244     1   109.5600471 388.275200
   2237   2236   2242     1   109.8000471 387.438400
   2237   2236   2238     1   107.5800459 329.699200
   2238   2236   2242     1   109.8000471 387.438400
   2240   2239   2248     1   109.7800468 425.094400
   2240   2239   2241     1   108.4600466 328.025600
   2241   2239   2248     1   109.7800468 425.094400
   2243   2242   4528     1   109.7800468 425.094400
   2243   2242   2244     1   108.4600466 328.025600
   2244   2242   4528     1   109.7800468 425.094400
   2246   2245   4558     1   109.7800468 425.094400
   2246   2245   2247     1   108.4600466 328.025600
   2247   2245   4558     1   109.7800468 425.094400
   2250   2251   2252     1   108.0100461 406.684800
   2250   2251   2253     1   108.0100461 406.684800
   2250   2254   2255     1   108.0100461 406.684800
   2250   2254   2256     1   108.0100461 406.684800
   2250   2257   2258     1   108.0100461 406.684800
   2250   2257   2259     1   108.0100461 406.684800
   2251   2250   2279     1   110.1100470 384.091200
   2251   2263   2264     1   109.8000471 387.438400
   2251   2263   2265     1   109.8000471 387.438400
   2252   2251   2263     1   110.5600475 386.601600
   2252   2251   2253     1   109.7500473 328.025600
   2253   2251   2263     1   110.5600475 386.601600
   2254   2250   2279     1   110.1100470 384.091200
   2254   2266   2267     1   109.8000471 387.438400
   2254   2266   2268     1   109.8000471 387.438400
   2255   2254   2266     1   110.5600475 386.601600
   2255   2254   2256     1   109.7500473 328.025600
   2256   2254   2266     1   110.5600475 386.601600
   2257   2250   2279     1   110.1100470 384.091200
   2257   2260   2261     1   109.8000471 387.438400
   2257   2260   2262     1   109.8000471 387.438400
   2258   2257   2260     1   110.5600475 386.601600
   2258   2257   2259     1   109.7500473 328.025600
   2259   2257   2260     1   110.5600475 386.601600
   2260   2269   2270     1   109.5600471 388.275200
   2260   2269   2271     1   109.5600471 388.275200
   2261   2260   2269     1   109.8000471 387.438400
   2261   2260   2262     1   107.5800459 329.699200
   2262   2260   2269     1   109.8000471 387.438400
   2263   2275   2276     1   109.5600471 388.275200
   2263   2275   2277     1   109.5600471 388.275200
   2264   2263   2275     1   109.8000471 387.438400
   2264   2263   2265     1   107.5800459 329.699200
   2265   2263   2275     1   109.8000471 387.438400
   2266   2272   2273     1   109.5600471 388.275200
   2266   2272   2274     1   109.5600471 388.275200
   2267   2266   2272     1   109.8000471 387.438400
   2267   2266   2268     1   107.5800459 329.699200
   2268   2266   2272     1   109.8000471 387.438400
   2270   2269   2278     1   109.7800468 425.094400
   2270   2269   2271     1   108.4600466 328.025600
   2271   2269   2278     1   109.7800468 425.094400
   2273   2272   4588     1   109.7800468 425.094400
   2273   2272   2274     1   108.4600466 328.025600
   2274   2272   4588     1   109.7800468 425.094400
   2276   2275   4618     1   109.7800468 425.094400
   2276   2275   2277     1   108.4600466 328.025600
   2277   2275   4618     1   109.7800468 425.094400
   2280   2281   2282     1   108.0100461 406.684800
   2280   2281   2283     1   108.0100461 406.684800
   2280   2284   2285     1   108.0100461 406.684800
   2280   2284   2286     1   108.0100461 406.684800
   2280   2287   2288     1   108.0100461 406.684800
   2280   2287   2289     1   108.0100461 406.684800
   2281   2280   2309     1   110.1100470 384.091200
   2281   2293   2294     1   109.8000471 387.438400
   2281   2293   2295     1   109.8000471 387.438400
   2282   2281   2293     1   110.5600475 386.601600
   2282   2281   2283     1   109.7500473 328.025600
   2283   2281   2293     1   110.5600475 386.601600
   2284   2280   2309     1   110.1100470 384.091200
   2284   2296   2297     1   109.8000471 387.438400
   2284   2296   2298     1   109.8000471 387.438400
   2285   2284   2296     1   110.5600475 386.601600
   2285   2284   2286     1   109.7500473 328.025600
   2286   2284   2296     1   110.5600475 386.601600
   2287   2280   2309     1   110.1100470 384.091200
   2287   2290   2291     1   109.8000471 387.438400
   2287   2290   2292     1   109.8000471 387.438400
   2288   2287   2290     1   110.5600475 386.601600
   2288   2287   2289     1   109.7500473 328.025600
   2289   2287   2290     1   110.5600475 386.601600
   2290   2299   2300     1   109.5600471 388.275200
   2290   2299   2301     1   109.5600471 388.275200
   2291   2290   2299     1   109.8000471 387.438400
   2291   2290   2292     1   107.5800459 329.699200
   2292   2290   2299     1   109.8000471 387.438400
   2293   2305   2306     1   109.5600471 388.275200
   2293   2305   2307     1   109.5600471 388.275200
   2294   2293   2305     1   109.8000471 387.438400
   2294   2293   2295     1   107.5800459 329.699200
   2295   2293   2305     1   109.8000471 387.438400
   2296   2302   2303     1   109.5600471 388.275200
   2296   2302   2304     1   109.5600471 388.275200
   2297   2296   2302     1   109.8000471 387.438400
   2297   2296   2298     1   107.5800459 329.699200
   2298   2296   2302     1   109.8000471 387.438400
   2300   2299   2308     1   109.7800468 425.094400
   2300   2299   2301     1   108.4600466 328.025600
   2301   2299   2308     1   109.7800468 425.094400
   2303   2302   4648     1   109.7800468 425.094400
   2303   2302   2304     1   108.4600466 328.025600
   2304   2302   4648     1   109.7800468 425.094400
   2306   2305   4678     1   109.7800468 425.094400
   2306   2305   2307     1   108.4600466 328.025600
   2307   2305   4678     1   109.7800468 425.094400
   2310   2311   2312     1   108.0100461 406.684800
   2310   2311   2313     1   108.0100461 406.684800
   2310   2314   2315     1   108.0100461 406.684800
   2310   2314   2316     1   108.0100461 406.684800
   2310   2317   2318     1   108.0100461 406.684800
   2310   2317   2319     1   108.0100461 406.684800
   2311   2310   2339     1   110.1100470 384.091200
   2311   2323   2324     1   109.8000471 387.438400
   2311   2323   2325     1   109.8000471 387.438400
   2312   2311   2323     1   110.5600475 386.601600
   2312   2311   2313     1   109.7500473 328.025600
   2313   2311   2323     1   110.5600475 386.601600
   2314   2310   2339     1   110.1100470 384.091200
   2314   2326   2327     1   109.8000471 387.438400
   2314   2326   2328     1   109.8000471 387.438400
   2315   2314   2326     1   110.5600475 386.601600
   2315   2314   2316     1   109.7500473 328.025600
   2316   2314   2326     1   110.5600475 386.601600
   2317   2310   2339     1   110.1100470 384.091200
   2317   2320   2321     1   109.8000471 387.438400
   2317   2320   2322     1   109.8000471 387.438400
   2318   2317   2320     1   110.5600475 386.601600
   2318   2317   2319     1   109.7500473 328.025600
   2319   2317   2320     1   110.5600475 386.601600
   2320   2329   2330     1   109.5600471 388.275200
   2320   2329   2331     1   109.5600471 388.275200
   2321   2320   2329     1   109.8000471 387.438400
   2321   2320   2322     1   107.5800459 329.699200
   2322   2320   2329     1   109.8000471 387.438400
   2323   2335   2336     1   109.5600471 388.275200
   2323   2335   2337     1   109.5600471 388.275200
   2324   2323   2335     1   109.8000471 387.438400
   2324   2323   2325     1   107.5800459 329.699200
   2325   2323   2335     1   109.8000471 387.438400
   2326   2332   2333     1   109.5600471 388.275200
   2326   2332   2334     1   109.5600471 388.275200
   2327   2326   2332     1   109.8000471 387.438400
   2327   2326   2328     1   107.5800459 329.699200
   2328   2326   2332     1   109.8000471 387.438400
   2330   2329   2338     1   109.7800468 425.094400
   2330   2329   2331     1   108.4600466 328.025600
   2331   2329   2338     1   109.7800468 425.094400
   2333   2332   4708     1   109.7800468 425.094400
   2333   2332   2334     1   108.4600466 328.025600
   2334   2332   4708     1   109.7800468 425.094400
   2336   2335   4738     1   109.7800468 425.094400
   2336   2335   2337     1   108.4600466 328.025600
   2337   2335   4738     1   109.7800468 425.094400
   2340   2341   2342     1   108.0100461 406.684800
   2340   2341   2343     1   108.0100461 406.684800
   2340   2344   2345     1   108.0100461 406.684800
   2340   2344   2346     1   108.0100461 406.684800
   2340   2347   2348     1   108.0100461 406.684800
   2340   2347   2349     1   108.0100461 406.684800
   2341   2340   2369     1   110.1100470 384.091200
   2341   2353   2354     1   109.8000471 387.438400
   2341   2353   2355     1   109.8000471 387.438400
   2342   2341   2353     1   110.5600475 386.601600
   2342   2341   2343     1   109.7500473 328.025600
   2343   2341   2353     1   110.5600475 386.601600
   2344   2340   2369     1   110.1100470 384.091200
   2344   2356   2357     1   109.8000471 387.438400
   2344   2356   2358     1   109.8000471 387.438400
   2345   2344   2356     1   110.5600475 386.601600
   2345   2344   2346     1   109.7500473 328.025600
   2346   2344   2356     1   110.5600475 386.601600
   2347   2340   2369     1   110.1100470 384.091200
   2347   2350   2351     1   109.8000471 387.438400
   2347   2350   2352     1   109.8000471 387.438400
   2348   2347   2350     1   110.5600475 386.601600
   2348   2347   2349     1   109.7500473 328.025600
   2349   2347   2350     1   110.5600475 386.601600
   2350   2359   2360     1   109.5600471 388.275200
   2350   2359   2361     1   109.5600471 388.275200
   2351   2350   2359     1   109.8000471 387.438400
   2351   2350   2352     1   107.5800459 329.699200
   2352   2350   2359     1   109.8000471 387.438400
   2353   2365   2366     1   109.5600471 388.275200
   2353   2365   2367     1   109.5600471 388.275200
   2354   2353   2365     1   109.8000471 387.438400
   2354   2353   2355     1   107.5800459 329.699200
   2355   2353   2365     1   109.8000471 387.438400
   2356   2362   2363     1   109.5600471 388.275200
   2356   2362   2364     1   109.5600471 388.275200
   2357   2356   2362     1   109.8000471 387.438400
   2357   2356   2358     1   107.5800459 329.699200
   2358   2356   2362     1   109.8000471 387.438400
   2360   2359   2368     1   109.7800468 425.094400
   2360   2359   2361     1   108.4600466 328.025600
   2361   2359   2368     1   109.7800468 425.094400
   2363   2362   4768     1   109.7800468 425.094400
   2363   2362   2364     1   108.4600466 328.025600
   2364   2362   4768     1   109.7800468 425.094400
   2366   2365   4798     1   109.7800468 425.094400
   2366   2365   2367     1   108.4600466 328.025600
   2367   2365   4798     1   109.7800468 425.094400
   2370   2371   2372     1   108.0100461 406.684800
   2370   2371   2373     1   108.0100461 406.684800
   2370   2374   2375     1   108.0100461 406.684800
   2370   2374   2376     1   108.0100461 406.684800
   2370   2377   2378     1   108.0100461 406.684800
   2370   2377   2379     1   108.0100461 406.684800
   2371   2370   2399     1   110.1100470 384.091200
   2371   2383   2384     1   109.8000471 387.438400
   2371   2383   2385     1   109.8000471 387.438400
   2372   2371   2383     1   110.5600475 386.601600
   2372   2371   2373     1   109.7500473 328.025600
   2373   2371   2383     1   110.5600475 386.601600
   2374   2370   2399     1   110.1100470 384.091200
   2374   2386   2387     1   109.8000471 387.438400
   2374   2386   2388     1   109.8000471 387.438400
   2375   2374   2386     1   110.5600475 386.601600
   2375   2374   2376     1   109.7500473 328.025600
   2376   2374   2386     1   110.5600475 386.601600
   2377   2370   2399     1   110.1100470 384.091200
   2377   2380   2381     1   109.8000471 387.438400
   2377   2380   2382     1   109.8000471 387.438400
   2378   2377   2380     1   110.5600475 386.601600
   2378   2377   2379     1   109.7500473 328.025600
   2379   2377   2380     1   110.5600475 386.601600
   2380   2389   2390     1   109.5600471 388.275200
   2380   2389   2391     1   109.5600471 388.275200
   2381   2380   2389     1   109.8000471 387.438400
   2381   2380   2382     1   107.5800459 329.699200
   2382   2380   2389     1   109.8000471 387.438400
   2383   2395   2396     1   109.5600471 388.275200
   2383   2395   2397     1   109.5600471 388.275200
   2384   2383   2395     1   109.8000471 387.438400
   2384   2383   2385     1   107.5800459 329.699200
   2385   2383   2395     1   109.8000471 387.438400
   2386   2392   2393     1   109.5600471 388.275200
   2386   2392   2394     1   109.5600471 388.275200
   2387   2386   2392     1   109.8000471 387.438400
   2387   2386   2388     1   107.5800459 329.699200
   2388   2386   2392     1   109.8000471 387.438400
   2390   2389   2398     1   109.7800468 425.094400
   2390   2389   2391     1   108.4600466 328.025600
   2391   2389   2398     1   109.7800468 425.094400
   2393   2392   4828     1   109.7800468 425.094400
   2393   2392   2394     1   108.4600466 328.025600
   2394   2392   4828     1   109.7800468 425.094400
   2396   2395   4858     1   109.7800468 425.094400
   2396   2395   2397     1   108.4600466 328.025600
   2397   2395   4858     1   109.7800468 425.094400
   2400   2401   2402     1   108.0100461 406.684800
   2400   2401   2403     1   108.0100461 406.684800
   2400   2404   2405     1   108.0100461 406.684800
   2400   2404   2406     1   108.0100461 406.684800
   2400   2407   2408     1   108.0100461 406.684800
   2400   2407   2409     1   108.0100461 406.684800
   2401   2400   2429     1   110.1100470 384.091200
   2401   2413   2414     1   109.8000471 387.438400
   2401   2413   2415     1   109.8000471 387.438400
   2402   2401   2413     1   110.5600475 386.601600
   2402   2401   2403     1   109.7500473 328.025600
   2403   2401   2413     1   110.5600475 386.601600
   2404   2400   2429     1   110.1100470 384.091200
   2404   2416   2417     1   109.8000471 387.438400
   2404   2416   2418     1   109.8000471 387.438400
   2405   2404   2416     1   110.5600475 386.601600
   2405   2404   2406     1   109.7500473 328.025600
   2406   2404   2416     1   110.5600475 386.601600
   2407   2400   2429     1   110.1100470 384.091200
   2407   2410   2411     1   109.8000471 387.438400
   2407   2410   2412     1   109.8000471 387.438400
   2408   2407   2410     1   110.5600475 386.601600
   2408   2407   2409     1   109.7500473 328.025600
   2409   2407   2410     1   110.5600475 386.601600
   2410   2419   2420     1   109.5600471 388.275200
   2410   2419   2421     1   109.5600471 388.275200
   2411   2410   2419     1   109.8000471 387.438400
   2411   2410   2412     1   107.5800459 329.699200
   2412   2410   2419     1   109.8000471 387.438400
   2413   2425   2426     1   109.5600471 388.275200
   2413   2425   2427     1   109.5600471 388.275200
   2414   2413   2425     1   109.8000471 387.438400
   2414   2413   2415     1   107.5800459 329.699200
   2415   2413   2425     1   109.8000471 387.438400
   2416   2422   2423     1   109.5600471 388.275200
   2416   2422   2424     1   109.5600471 388.275200
   2417   2416   2422     1   109.8000471 387.438400
   2417   2416   2418     1   107.5800459 329.699200
   2418   2416   2422     1   109.8000471 387.438400
   2420   2419   2428     1   109.7800468 425.094400
   2420   2419   2421     1   108.4600466 328.025600
   2421   2419   2428     1   109.7800468 425.094400
   2423   2422   4888     1   109.7800468 425.094400
   2423   2422   2424     1   108.4600466 328.025600
   2424   2422   4888     1   109.7800468 425.094400
   2426   2425   4918     1   109.7800468 425.094400
   2426   2425   2427     1   108.4600466 328.025600
   2427   2425   4918     1   109.7800468 425.094400
   2430   2431   2432     1   108.0100461 406.684800
   2430   2431   2433     1   108.0100461 406.684800
   2430   2434   2435     1   108.0100461 406.684800
   2430   2434   2436     1   108.0100461 406.684800
   2430   2437   2438     1   108.0100461 406.684800
   2430   2437   2439     1   108.0100461 406.684800
   2431   2430   2459     1   110.1100470 384.091200
   2431   2443   2444     1   109.8000471 387.438400
   2431   2443   2445     1   109.8000471 387.438400
   2432   2431   2443     1   110.5600475 386.601600
   2432   2431   2433     1   109.7500473 328.025600
   2433   2431   2443     1   110.5600475 386.601600
   2434   2430   2459     1   110.1100470 384.091200
   2434   2446   2447     1   109.8000471 387.438400
   2434   2446   2448     1   109.8000471 387.438400
   2435   2434   2446     1   110.5600475 386.601600
   2435   2434   2436     1   109.7500473 328.025600
   2436   2434   2446     1   110.5600475 386.601600
   2437   2430   2459     1   110.1100470 384.091200
   2437   2440   2441     1   109.8000471 387.438400
   2437   2440   2442     1   109.8000471 387.438400
   2438   2437   2440     1   110.5600475 386.601600
   2438   2437   2439     1   109.7500473 328.025600
   2439   2437   2440     1   110.5600475 386.601600
   2440   2449   2450     1   109.5600471 388.275200
   2440   2449   2451     1   109.5600471 388.275200
   2441   2440   2449     1   109.8000471 387.438400
   2441   2440   2442     1   107.5800459 329.699200
   2442   2440   2449     1   109.8000471 387.438400
   2443   2455   2456     1   109.5600471 388.275200
   2443   2455   2457     1   109.5600471 388.275200
   2444   2443   2455     1   109.8000471 387.438400
   2444   2443   2445     1   107.5800459 329.699200
   2445   2443   2455     1   109.8000471 387.438400
   2446   2452   2453     1   109.5600471 388.275200
   2446   2452   2454     1   109.5600471 388.275200
   2447   2446   2452     1   109.8000471 387.438400
   2447   2446   2448     1   107.5800459 329.699200
   2448   2446   2452     1   109.8000471 387.438400
   2450   2449   2458     1   109.7800468 425.094400
   2450   2449   2451     1   108.4600466 328.025600
   2451   2449   2458     1   109.7800468 425.094400
   2453   2452   4948     1   109.7800468 425.094400
   2453   2452   2454     1   108.4600466 328.025600
   2454   2452   4948     1   109.7800468 425.094400
   2456   2455   4978     1   109.7800468 425.094400
   2456   2455   2457     1   108.4600466 328.025600
   2457   2455   4978     1   109.7800468 425.094400
   2460   2461   2462     1   108.0100461 406.684800
   2460   2461   2463     1   108.0100461 406.684800
   2460   2464   2465     1   108.0100461 406.684800
   2460   2464   2466     1   108.0100461 406.684800
   2460   2467   2468     1   108.0100461 406.684800
   2460   2467   2469     1   108.0100461 406.684800
   2461   2460   2489     1   110.1100470 384.091200
   2461   2473   2474     1   109.8000471 387.438400
   2461   2473   2475     1   109.8000471 387.438400
   2462   2461   2473     1   110.5600475 386.601600
   2462   2461   2463     1   109.7500473 328.025600
   2463   2461   2473     1   110.5600475 386.601600
   2464   2460   2489     1   110.1100470 384.091200
   2464   2476   2477     1   109.8000471 387.438400
   2464   2476   2478     1   109.8000471 387.438400
   2465   2464   2476     1   110.5600475 386.601600
   2465   2464   2466     1   109.7500473 328.025600
   2466   2464   2476     1   110.5600475 386.601600
   2467   2460   2489     1   110.1100470 384.091200
   2467   2470   2471     1   109.8000471 387.438400
   2467   2470   2472     1   109.8000471 387.438400
   2468   2467   2470     1   110.5600475 386.601600
   2468   2467   2469     1   109.7500473 328.025600
   2469   2467   2470     1   110.5600475 386.601600
   2470   2479   2480     1   109.5600471 388.275200
   2470   2479   2481     1   109.5600471 388.275200
   2471   2470   2479     1   109.8000471 387.438400
   2471   2470   2472     1   107.5800459 329.699200
   2472   2470   2479     1   109.8000471 387.438400
   2473   2485   2486     1   109.5600471 388.275200
   2473   2485   2487     1   109.5600471 388.275200
   2474   2473   2485     1   109.8000471 387.438400
   2474   2473   2475     1   107.5800459 329.699200
   2475   2473   2485     1   109.8000471 387.438400
   2476   2482   2483     1   109.5600471 388.275200
   2476   2482   2484     1   109.5600471 388.275200
   2477   2476   2482     1   109.8000471 387.438400
   2477   2476   2478     1   107.5800459 329.699200
   2478   2476   2482     1   109.8000471 387.438400
   2480   2479   2488     1   109.7800468 425.094400
   2480   2479   2481     1   108.4600466 328.025600
   2481   2479   2488     1   109.7800468 425.094400
   2483   2482   5008     1   109.7800468 425.094400
   2483   2482   2484     1   108.4600466 328.025600
   2484   2482   5008     1   109.7800468 425.094400
   2486   2485   5038     1   109.7800468 425.094400
   2486   2485   2487     1   108.4600466 328.025600
   2487   2485   5038     1   109.7800468 425.094400
   2490   2491   2492     1   108.0100461 406.684800
   2490   2491   2493     1   108.0100461 406.684800
   2490   2494   2495     1   108.0100461 406.684800
   2490   2494   2496     1   108.0100461 406.684800
   2490   2497   2498     1   108.0100461 406.684800
   2490   2497   2499     1   108.0100461 406.684800
   2491   2490   2519     1   110.1100470 384.091200
   2491   2503   2504     1   109.8000471 387.438400
   2491   2503   2505     1   109.8000471 387.438400
   2492   2491   2503     1   110.5600475 386.601600
   2492   2491   2493     1   109.7500473 328.025600
   2493   2491   2503     1   110.5600475 386.601600
   2494   2490   2519     1   110.1100470 384.091200
   2494   2506   2507     1   109.8000471 387.438400
   2494   2506   2508     1   109.8000471 387.438400
   2495   2494   2506     1   110.5600475 386.601600
   2495   2494   2496     1   109.7500473 328.025600
   2496   2494   2506     1   110.5600475 386.601600
   2497   2490   2519     1   110.1100470 384.091200
   2497   2500   2501     1   109.8000471 387.438400
   2497   2500   2502     1   109.8000471 387.438400
   2498   2497   2500     1   110.5600475 386.601600
   2498   2497   2499     1   109.7500473 328.025600
   2499   2497   2500     1   110.5600475 386.601600
   2500   2509   2510     1   109.5600471 388.275200
   2500   2509   2511     1   109.5600471 388.275200
   2501   2500   2509     1   109.8000471 387.438400
   2501   2500   2502     1   107.5800459 329.699200
   2502   2500   2509     1   109.8000471 387.438400
   2503   2515   2516     1   109.5600471 388.275200
   2503   2515   2517     1   109.5600471 388.275200
   2504   2503   2515     1   109.8000471 387.438400
   2504   2503   2505     1   107.5800459 329.699200
   2505   2503   2515     1   109.8000471 387.438400
   2506   2512   2513     1   109.5600471 388.275200
   2506   2512   2514     1   109.5600471 388.275200
   2507   2506   2512     1   109.8000471 387.438400
   2507   2506   2508     1   107.5800459 329.699200
   2508   2506   2512     1   109.8000471 387.438400
   2510   2509   2518     1   109.7800468 425.094400
   2510   2509   2511     1   108.4600466 328.025600
   2511   2509   2518     1   109.7800468 425.094400
   2513   2512   5068     1   109.7800468 425.094400
   2513   2512   2514     1   108.4600466 328.025600
   2514   2512   5068     1   109.7800468 425.094400
   2516   2515   5098     1   109.7800468 425.094400
   2516   2515   2517     1   108.4600466 328.025600
   2517   2515   5098     1   109.7800468 425.094400
   2520   2521   2522     1   108.0100461 406.684800
   2520   2521   2523     1   108.0100461 406.684800
   2520   2524   2525     1   108.0100461 406.684800
   2520   2524   2526     1   108.0100461 406.684800
   2520   2527   2528     1   108.0100461 406.684800
   2520   2527   2529     1   108.0100461 406.684800
   2521   2520   2549     1   110.1100470 384.091200
   2521   2533   2534     1   109.8000471 387.438400
   2521   2533   2535     1   109.8000471 387.438400
   2522   2521   2533     1   110.5600475 386.601600
   2522   2521   2523     1   109.7500473 328.025600
   2523   2521   2533     1   110.5600475 386.601600
   2524   2520   2549     1   110.1100470 384.091200
   2524   2536   2537     1   109.8000471 387.438400
   2524   2536   2538     1   109.8000471 387.438400
   2525   2524   2536     1   110.5600475 386.601600
   2525   2524   2526     1   109.7500473 328.025600
   2526   2524   2536     1   110.5600475 386.601600
   2527   2520   2549     1   110.1100470 384.091200
   2527   2530   2531     1   109.8000471 387.438400
   2527   2530   2532     1   109.8000471 387.438400
   2528   2527   2530     1   110.5600475 386.601600
   2528   2527   2529     1   109.7500473 328.025600
   2529   2527   2530     1   110.5600475 386.601600
   2530   2539   2540     1   109.5600471 388.275200
   2530   2539   2541     1   109.5600471 388.275200
   2531   2530   2539     1   109.8000471 387.438400
   2531   2530   2532     1   107.5800459 329.699200
   2532   2530   2539     1   109.8000471 387.438400
   2533   2545   2546     1   109.5600471 388.275200
   2533   2545   2547     1   109.5600471 388.275200
   2534   2533   2545     1   109.8000471 387.438400
   2534   2533   2535     1   107.5800459 329.699200
   2535   2533   2545     1   109.8000471 387.438400
   2536   2542   2543     1   109.5600471 388.275200
   2536   2542   2544     1   109.5600471 388.275200
   2537   2536   2542     1   109.8000471 387.438400
   2537   2536   2538     1   107.5800459 329.699200
   2538   2536   2542     1   109.8000471 387.438400
   2540   2539   2548     1   109.7800468 425.094400
   2540   2539   2541     1   108.4600466 328.025600
   2541   2539   2548     1   109.7800468 425.094400
   2543   2542   5128     1   109.7800468 425.094400
   2543   2542   2544     1   108.4600466 328.025600
   2544   2542   5128     1   109.7800468 425.094400
   2546   2545   5158     1   109.7800468 425.094400
   2546   2545   2547     1   108.4600466 328.025600
   2547   2545   5158     1   109.7800468 425.094400
   2550   2551   2552     1   108.0100461 406.684800
   2550   2551   2553     1   108.0100461 406.684800
   2550   2554   2555     1   108.0100461 406.684800
   2550   2554   2556     1   108.0100461 406.684800
   2550   2557   2558     1   108.0100461 406.684800
   2550   2557   2559     1   108.0100461 406.684800
   2551   2550   2579     1   110.1100470 384.091200
   2551   2563   2564     1   109.8000471 387.438400
   2551   2563   2565     1   109.8000471 387.438400
   2552   2551   2563     1   110.5600475 386.601600
   2552   2551   2553     1   109.7500473 328.025600
   2553   2551   2563     1   110.5600475 386.601600
   2554   2550   2579     1   110.1100470 384.091200
   2554   2566   2567     1   109.8000471 387.438400
   2554   2566   2568     1   109.8000471 387.438400
   2555   2554   2566     1   110.5600475 386.601600
   2555   2554   2556     1   109.7500473 328.025600
   2556   2554   2566     1   110.5600475 386.601600
   2557   2550   2579     1   110.1100470 384.091200
   2557   2560   2561     1   109.8000471 387.438400
   2557   2560   2562     1   109.8000471 387.438400
   2558   2557   2560     1   110.5600475 386.601600
   2558   2557   2559     1   109.7500473 328.025600
   2559   2557   2560     1   110.5600475 386.601600
   2560   2569   2570     1   109.5600471 388.275200
   2560   2569   2571     1   109.5600471 388.275200
   2561   2560   2569     1   109.8000471 387.438400
   2561   2560   2562     1   107.5800459 329.699200
   2562   2560   2569     1   109.8000471 387.438400
   2563   2575   2576     1   109.5600471 388.275200
   2563   2575   2577     1   109.5600471 388.275200
   2564   2563   2575     1   109.8000471 387.438400
   2564   2563   2565     1   107.5800459 329.699200
   2565   2563   2575     1   109.8000471 387.438400
   2566   2572   2573     1   109.5600471 388.275200
   2566   2572   2574     1   109.5600471 388.275200
   2567   2566   2572     1   109.8000471 387.438400
   2567   2566   2568     1   107.5800459 329.699200
   2568   2566   2572     1   109.8000471 387.438400
   2570   2569   2578     1   109.7800468 425.094400
   2570   2569   2571     1   108.4600466 328.025600
   2571   2569   2578     1   109.7800468 425.094400
   2573   2572   5188     1   109.7800468 425.094400
   2573   2572   2574     1   108.4600466 328.025600
   2574   2572   5188     1   109.7800468 425.094400
   2576   2575   5218     1   109.7800468 425.094400
   2576   2575   2577     1   108.4600466 328.025600
   2577   2575   5218     1   109.7800468 425.094400
   2580   2581   2582     1   108.0100461 406.684800
   2580   2581   2583     1   108.0100461 406.684800
   2580   2584   2585     1   108.0100461 406.684800
   2580   2584   2586     1   108.0100461 406.684800
   2580   2587   2588     1   108.0100461 406.684800
   2580   2587   2589     1   108.0100461 406.684800
   2581   2580   2609     1   110.1100470 384.091200
   2581   2593   2594     1   109.8000471 387.438400
   2581   2593   2595     1   109.8000471 387.438400
   2582   2581   2593     1   110.5600475 386.601600
   2582   2581   2583     1   109.7500473 328.025600
   2583   2581   2593     1   110.5600475 386.601600
   2584   2580   2609     1   110.1100470 384.091200
   2584   2596   2597     1   109.8000471 387.438400
   2584   2596   2598     1   109.8000471 387.438400
   2585   2584   2596     1   110.5600475 386.601600
   2585   2584   2586     1   109.7500473 328.025600
   2586   2584   2596     1   110.5600475 386.601600
   2587   2580   2609     1   110.1100470 384.091200
   2587   2590   2591     1   109.8000471 387.438400
   2587   2590   2592     1   109.8000471 387.438400
   2588   2587   2590     1   110.5600475 386.601600
   2588   2587   2589     1   109.7500473 328.025600
   2589   2587   2590     1   110.5600475 386.601600
   2590   2599   2600     1   109.5600471 388.275200
   2590   2599   2601     1   109.5600471 388.275200
   2591   2590   2599     1   109.8000471 387.438400
   2591   2590   2592     1   107.5800459 329.699200
   2592   2590   2599     1   109.8000471 387.438400
   2593   2605   2606     1   109.5600471 388.275200
   2593   2605   2607     1   109.5600471 388.275200
   2594   2593   2605     1   109.8000471 387.438400
   2594   2593   2595     1   107.5800459 329.699200
   2595   2593   2605     1   109.8000471 387.438400
   2596   2602   2603     1   109.5600471 388.275200
   2596   2602   2604     1   109.5600471 388.275200
   2597   2596   2602     1   109.8000471 387.438400
   2597   2596   2598     1   107.5800459 329.699200
   2598   2596   2602     1   109.8000471 387.438400
   2600   2599   2608     1   109.7800468 425.094400
   2600   2599   2601     1   108.4600466 328.025600
   2601   2599   2608     1   109.7800468 425.094400
   2603   2602   5248     1   109.7800468 425.094400
   2603   2602   2604     1   108.4600466 328.025600
   2604   2602   5248     1   109.7800468 425.094400
   2606   2605   5278     1   109.7800468 425.094400
   2606   2605   2607     1   108.4600466 328.025600
   2607   2605   5278     1   109.7800468 425.094400
   2610   2611   2612     1   108.0100461 406.684800
   2610   2611   2613     1   108.0100461 406.684800
   2610   2614   2615     1   108.0100461 406.684800
   2610   2614   2616     1   108.0100461 406.684800
   2610   2617   2618     1   108.0100461 406.684800
   2610   2617   2619     1   108.0100461 406.684800
   2611   2610   2639     1   110.1100470 384.091200
   2611   2623   2624     1   109.8000471 387.438400
   2611   2623   2625     1   109.8000471 387.438400
   2612   2611   2623     1   110.5600475 386.601600
   2612   2611   2613     1   109.7500473 328.025600
   2613   2611   2623     1   110.5600475 386.601600
   2614   2610   2639     1   110.1100470 384.091200
   2614   2626   2627     1   109.8000471 387.438400
   2614   2626   2628     1   109.8000471 387.438400
   2615   2614   2626     1   110.5600475 386.601600
   2615   2614   2616     1   109.7500473 328.025600
   2616   2614   2626     1   110.5600475 386.601600
   2617   2610   2639     1   110.1100470 384.091200
   2617   2620   2621     1   109.8000471 387.438400
   2617   2620   2622     1   109.8000471 387.438400
   2618   2617   2620     1   110.5600475 386.601600
   2618   2617   2619     1   109.7500473 328.025600
   2619   2617   2620     1   110.5600475 386.601600
   2620   2629   2630     1   109.5600471 388.275200
   2620   2629   2631     1   109.5600471 388.275200
   2621   2620   2629     1   109.8000471 387.438400
   2621   2620   2622     1   107.5800459 329.699200
   2622   2620   2629     1   109.8000471 387.438400
   2623   2635   2636     1   109.5600471 388.275200
   2623   2635   2637     1   109.5600471 388.275200
   2624   2623   2635     1   109.8000471 387.438400
   2624   2623   2625     1   107.5800459 329.699200
   2625   2623   2635     1   109.8000471 387.438400
   2626   2632   2633     1   109.5600471 388.275200
   2626   2632   2634     1   109.5600471 388.275200
   2627   2626   2632     1   109.8000471 387.438400
   2627   2626   2628     1   107.5800459 329.699200
   2628   2626   2632     1   109.8000471 387.438400
   2630   2629   2638     1   109.7800468 425.094400
   2630   2629   2631     1   108.4600466 328.025600
   2631   2629   2638     1   109.7800468 425.094400
   2633   2632   5308     1   109.7800468 425.094400
   2633   2632   2634     1   108.4600466 328.025600
   2634   2632   5308     1   109.7800468 425.094400
   2636   2635   5338     1   109.7800468 425.094400
   2636   2635   2637     1   108.4600466 328.025600
   2637   2635   5338     1   109.7800468 425.094400
   2640   2641   2642     1   108.0100461 406.684800
   2640   2641   2643     1   108.0100461 406.684800
   2640   2644   2645     1   108.0100461 406.684800
   2640   2644   2646     1   108.0100461 406.684800
   2640   2647   2648     1   108.0100461 406.684800
   2640   2647   2649     1   108.0100461 406.684800
   2641   2640   2669     1   110.1100470 384.091200
   2641   2653   2654     1   109.8000471 387.438400
   2641   2653   2655     1   109.8000471 387.438400
   2642   2641   2653     1   110.5600475 386.601600
   2642   2641   2643     1   109.7500473 328.025600
   2643   2641   2653     1   110.5600475 386.601600
   2644   2640   2669     1   110.1100470 384.091200
   2644   2656   2657     1   109.8000471 387.438400
   2644   2656   2658     1   109.8000471 387.438400
   2645   2644   2656     1   110.5600475 386.601600
   2645   2644   2646     1   109.7500473 328.025600
   2646   2644   2656     1   110.5600475 386.601600
   2647   2640   2669     1   110.1100470 384.091200
   2647   2650   2651     1   109.8000471 387.438400
   2647   2650   2652     1   109.8000471 387.438400
   2648   2647   2650     1   110.5600475 386.601600
   2648   2647   2649     1   109.7500473 328.025600
   2649   2647   2650     1   110.5600475 386.601600
   2650   2659   2660     1   109.5600471 388.275200
   2650   2659   2661     1   109.5600471 388.275200
   2651   2650   2659     1   109.8000471 387.438400
   2651   2650   2652     1   107.5800459 329.699200
   2652   2650   2659     1   109.8000471 387.438400
   2653   2665   2666     1   109.5600471 388.275200
   2653   2665   2667     1   109.5600471 388.275200
   2654   2653   2665     1   109.8000471 387.438400
   2654   2653   2655     1   107.5800459 329.699200
   2655   2653   2665     1   109.8000471 387.438400
   2656   2662   2663     1   109.5600471 388.275200
   2656   2662   2664     1   109.5600471 388.275200
   2657   2656   2662     1   109.8000471 387.438400
   2657   2656   2658     1   107.5800459 329.699200
   2658   2656   2662     1   109.8000471 387.438400
   2660   2659   2668     1   109.7800468 425.094400
   2660   2659   2661     1   108.4600466 328.025600
   2661   2659   2668     1   109.7800468 425.094400
   2663   2662   5368     1   109.7800468 425.094400
   2663   2662   2664     1   108.4600466 328.025600
   2664   2662   5368     1   109.7800468 425.094400
   2666   2665   5398     1   109.7800468 425.094400
   2666   2665   2667     1   108.4600466 328.025600
   2667   2665   5398     1   109.7800468 425.094400
   2670   2671   2672     1   108.0100461 406.684800
   2670   2671   2673     1   108.0100461 406.684800
   2670   2674   2675     1   108.0100461 406.684800
   2670   2674   2676     1   108.0100461 406.684800
   2670   2677   2678     1   108.0100461 406.684800
   2670   2677   2679     1   108.0100461 406.684800
   2671   2670   2699     1   110.1100470 384.091200
   2671   2683   2684     1   109.8000471 387.438400
   2671   2683   2685     1   109.8000471 387.438400
   2672   2671   2683     1   110.5600475 386.601600
   2672   2671   2673     1   109.7500473 328.025600
   2673   2671   2683     1   110.5600475 386.601600
   2674   2670   2699     1   110.1100470 384.091200
   2674   2686   2687     1   109.8000471 387.438400
   2674   2686   2688     1   109.8000471 387.438400
   2675   2674   2686     1   110.5600475 386.601600
   2675   2674   2676     1   109.7500473 328.025600
   2676   2674   2686     1   110.5600475 386.601600
   2677   2670   2699     1   110.1100470 384.091200
   2677   2680   2681     1   109.8000471 387.438400
   2677   2680   2682     1   109.8000471 387.438400
   2678   2677   2680     1   110.5600475 386.601600
   2678   2677   2679     1   109.7500473 328.025600
   2679   2677   2680     1   110.5600475 386.601600
   2680   2689   2690     1   109.5600471 388.275200
   2680   2689   2691     1   109.5600471 388.275200
   2681   2680   2689     1   109.8000471 387.438400
   2681   2680   2682     1   107.5800459 329.699200
   2682   2680   2689     1   109.8000471 387.438400
   2683   2695   2696     1   109.5600471 388.275200
   2683   2695   2697     1   109.5600471 388.275200
   2684   2683   2695     1   109.8000471 387.438400
   2684   2683   2685     1   107.5800459 329.699200
   2685   2683   2695     1   109.8000471 387.438400
   2686   2692   2693     1   109.5600471 388.275200
   2686   2692   2694     1   109.5600471 388.275200
   2687   2686   2692     1   109.8000471 387.438400
   2687   2686   2688     1   107.5800459 329.699200
   2688   2686   2692     1   109.8000471 387.438400
   2690   2689   2698     1   109.7800468 425.094400
   2690   2689   2691     1   108.4600466 328.025600
   2691   2689   2698     1   109.7800468 425.094400
   2693   2692   5428     1   109.7800468 425.094400
   2693   2692   2694     1   108.4600466 328.025600
   2694   2692   5428     1   109.7800468 425.094400
   2696   2695   5458     1   109.7800468 425.094400
   2696   2695   2697     1   108.4600466 328.025600
   2697   2695   5458     1   109.7800468 425.094400
   2700   2701   2702     1   108.0100461 406.684800
   2700   2701   2703     1   108.0100461 406.684800
   2700   2704   2705     1   108.0100461 406.684800
   2700   2704   2706     1   108.0100461 406.684800
   2700   2707   2708     1   108.0100461 406.684800
   2700   2707   2709     1   108.0100461 406.684800
   2701   2700   2729     1   110.1100470 384.091200
   2701   2713   2714     1   109.8000471 387.438400
   2701   2713   2715     1   109.8000471 387.438400
   2702   2701   2713     1   110.5600475 386.601600
   2702   2701   2703     1   109.7500473 328.025600
   2703   2701   2713     1   110.5600475 386.601600
   2704   2700   2729     1   110.1100470 384.091200
   2704   2716   2717     1   109.8000471 387.438400
   2704   2716   2718     1   109.8000471 387.438400
   2705   2704   2716     1   110.5600475 386.601600
   2705   2704   2706     1   109.7500473 328.025600
   2706   2704   2716     1   110.5600475 386.601600
   2707   2700   2729     1   110.1100470 384.091200
   2707   2710   2711     1   109.8000471 387.438400
   2707   2710   2712     1   109.8000471 387.438400
   2708   2707   2710     1   110.5600475 386.601600
   2708   2707   2709     1   109.7500473 328.025600
   2709   2707   2710     1   110.5600475 386.601600
   2710   2719   2720     1   109.5600471 388.275200
   2710   2719   2721     1   109.5600471 388.275200
   2711   2710   2719     1   109.8000471 387.438400
   2711   2710   2712     1   107.5800459 329.699200
   2712   2710   2719     1   109.8000471 387.438400
   2713   2725   2726     1   109.5600471 388.275200
   2713   2725   2727     1   109.5600471 388.275200
   2714   2713   2725     1   109.8000471 387.438400
   2714   2713   2715     1   107.5800459 329.699200
   2715   2713   2725     1   109.8000471 387.438400
   2716   2722   2723     1   109.5600471 388.275200
   2716   2722   2724     1   109.5600471 388.275200
   2717   2716   2722     1   109.8000471 387.438400
   2717   2716   2718     1   107.5800459 329.699200
   2718   2716   2722     1   109.8000471 387.438400
   2720   2719   2728     1   109.7800468 425.094400
   2720   2719   2721     1   108.4600466 328.025600
   2721   2719   2728     1   109.7800468 425.094400
   2723   2722   5488     1   109.7800468 425.094400
   2723   2722   2724     1   108.4600466 328.025600
   2724   2722   5488     1   109.7800468 425.094400
   2726   2725   5518     1   109.7800468 425.094400
   2726   2725   2727     1   108.4600466 328.025600
   2727   2725   5518     1   109.7800468 425.094400
   2730   2731   2732     1   108.0100461 406.684800
   2730   2731   2733     1   108.0100461 406.684800
   2730   2734   2735     1   108.0100461 406.684800
   2730   2734   2736     1   108.0100461 406.684800
   2730   2737   2738     1   108.0100461 406.684800
   2730   2737   2739     1   108.0100461 406.684800
   2731   2730   2759     1   110.1100470 384.091200
   2731   2743   2744     1   109.8000471 387.438400
   2731   2743   2745     1   109.8000471 387.438400
   2732   2731   2743     1   110.5600475 386.601600
   2732   2731   2733     1   109.7500473 328.025600
   2733   2731   2743     1   110.5600475 386.601600
   2734   2730   2759     1   110.1100470 384.091200
   2734   2746   2747     1   109.8000471 387.438400
   2734   2746   2748     1   109.8000471 387.438400
   2735   2734   2746     1   110.5600475 386.601600
   2735   2734   2736     1   109.7500473 328.025600
   2736   2734   2746     1   110.5600475 386.601600
   2737   2730   2759     1   110.1100470 384.091200
   2737   2740   2741     1   109.8000471 387.438400
   2737   2740   2742     1   109.8000471 387.438400
   2738   2737   2740     1   110.5600475 386.601600
   2738   2737   2739     1   109.7500473 328.025600
   2739   2737   2740     1   110.5600475 386.601600
   2740   2749   2750     1   109.5600471 388.275200
   2740   2749   2751     1   109.5600471 388.275200
   2741   2740   2749     1   109.8000471 387.438400
   2741   2740   2742     1   107.5800459 329.699200
   2742   2740   2749     1   109.8000471 387.438400
   2743   2755   2756     1   109.5600471 388.275200
   2743   2755   2757     1   109.5600471 388.275200
   2744   2743   2755     1   109.8000471 387.438400
   2744   2743   2745     1   107.5800459 329.699200
   2745   2743   2755     1   109.8000471 387.438400
   2746   2752   2753     1   109.5600471 388.275200
   2746   2752   2754     1   109.5600471 388.275200
   2747   2746   2752     1   109.8000471 387.438400
   2747   2746   2748     1   107.5800459 329.699200
   2748   2746   2752     1   109.8000471 387.438400
   2750   2749   2758     1   109.7800468 425.094400
   2750   2749   2751     1   108.4600466 328.025600
   2751   2749   2758     1   109.7800468 425.094400
   2753   2752   5548     1   109.7800468 425.094400
   2753   2752   2754     1   108.4600466 328.025600
   2754   2752   5548     1   109.7800468 425.094400
   2756   2755   5578     1   109.7800468 425.094400
   2756   2755   2757     1   108.4600466 328.025600
   2757   2755   5578     1   109.7800468 425.094400
   2760   2761   2762     1   108.0100461 406.684800
   2760   2761   2763     1   108.0100461 406.684800
   2760   2764   2765     1   108.0100461 406.684800
   2760   2764   2766     1   108.0100461 406.684800
   2760   2767   2768     1   108.0100461 406.684800
   2760   2767   2769     1   108.0100461 406.684800
   2761   2760   2789     1   110.1100470 384.091200
   2761   2773   2774     1   109.8000471 387.438400
   2761   2773   2775     1   109.8000471 387.438400
   2762   2761   2773     1   110.5600475 386.601600
   2762   2761   2763     1   109.7500473 328.025600
   2763   2761   2773     1   110.5600475 386.601600
   2764   2760   2789     1   110.1100470 384.091200
   2764   2776   2777     1   109.8000471 387.438400
   2764   2776   2778     1   109.8000471 387.438400
   2765   2764   2776     1   110.5600475 386.601600
   2765   2764   2766     1   109.7500473 328.025600
   2766   2764   2776     1   110.5600475 386.601600
   2767   2760   2789     1   110.1100470 384.091200
   2767   2770   2771     1   109.8000471 387.438400
   2767   2770   2772     1   109.8000471 387.438400
   2768   2767   2770     1   110.5600475 386.601600
   2768   2767   2769     1   109.7500473 328.025600
   2769   2767   2770     1   110.5600475 386.601600
   2770   2779   2780     1   109.5600471 388.275200
   2770   2779   2781     1   109.5600471 388.275200
   2771   2770   2779     1   109.8000471 387.438400
   2771   2770   2772     1   107.5800459 329.699200
   2772   2770   2779     1   109.8000471 387.438400
   2773   2785   2786     1   109.5600471 388.275200
   2773   2785   2787     1   109.5600471 388.275200
   2774   2773   2785     1   109.8000471 387.438400
   2774   2773   2775     1   107.5800459 329.699200
   2775   2773   2785     1   109.8000471 387.438400
   2776   2782   2783     1   109.5600471 388.275200
   2776   2782   2784     1   109.5600471 388.275200
   2777   2776   2782     1   109.8000471 387.438400
   2777   2776   2778     1   107.5800459 329.699200
   2778   2776   2782     1   109.8000471 387.438400
   2780   2779   2788     1   109.7800468 425.094400
   2780   2779   2781     1   108.4600466 328.025600
   2781   2779   2788     1   109.7800468 425.094400
   2783   2782   5608     1   109.7800468 425.094400
   2783   2782   2784     1   108.4600466 328.025600
   2784   2782   5608     1   109.7800468 425.094400
   2786   2785   5638     1   109.7800468 425.094400
   2786   2785   2787     1   108.4600466 328.025600
   2787   2785   5638     1   109.7800468 425.094400
   2790   2791   2792     1   108.0100461 406.684800
   2790   2791   2793     1   108.0100461 406.684800
   2790   2794   2795     1   108.0100461 406.684800
   2790   2794   2796     1   108.0100461 406.684800
   2790   2797   2798     1   108.0100461 406.684800
   2790   2797   2799     1   108.0100461 406.684800
   2791   2790   2819     1   110.1100470 384.091200
   2791   2803   2804     1   109.8000471 387.438400
   2791   2803   2805     1   109.8000471 387.438400
   2792   2791   2803     1   110.5600475 386.601600
   2792   2791   2793     1   109.7500473 328.025600
   2793   2791   2803     1   110.5600475 386.601600
   2794   2790   2819     1   110.1100470 384.091200
   2794   2806   2807     1   109.8000471 387.438400
   2794   2806   2808     1   109.8000471 387.438400
   2795   2794   2806     1   110.5600475 386.601600
   2795   2794   2796     1   109.7500473 328.025600
   2796   2794   2806     1   110.5600475 386.601600
   2797   2790   2819     1   110.1100470 384.091200
   2797   2800   2801     1   109.8000471 387.438400
   2797   2800   2802     1   109.8000471 387.438400
   2798   2797   2800     1   110.5600475 386.601600
   2798   2797   2799     1   109.7500473 328.025600
   2799   2797   2800     1   110.5600475 386.601600
   2800   2809   2810     1   109.5600471 388.275200
   2800   2809   2811     1   109.5600471 388.275200
   2801   2800   2809     1   109.8000471 387.438400
   2801   2800   2802     1   107.5800459 329.699200
   2802   2800   2809     1   109.8000471 387.438400
   2803   2815   2816     1   109.5600471 388.275200
   2803   2815   2817     1   109.5600471 388.275200
   2804   2803   2815     1   109.8000471 387.438400
   2804   2803   2805     1   107.5800459 329.699200
   2805   2803   2815     1   109.8000471 387.438400
   2806   2812   2813     1   109.5600471 388.275200
   2806   2812   2814     1   109.5600471 388.275200
   2807   2806   2812     1   109.8000471 387.438400
   2807   2806   2808     1   107.5800459 329.699200
   2808   2806   2812     1   109.8000471 387.438400
   2810   2809   2818     1   109.7800468 425.094400
   2810   2809   2811     1   108.4600466 328.025600
   2811   2809   2818     1   109.7800468 425.094400
   2813   2812   5668     1   109.7800468 425.094400
   2813   2812   2814     1   108.4600466 328.025600
   2814   2812   5668     1   109.7800468 425.094400
   2816   2815   5698     1   109.7800468 425.094400
   2816   2815   2817     1   108.4600466 328.025600
   2817   2815   5698     1   109.7800468 425.094400
   2820   2821   2822     1   108.0100461 406.684800
   2820   2821   2823     1   108.0100461 406.684800
   2820   2824   2825     1   108.0100461 406.684800
   2820   2824   2826     1   108.0100461 406.684800
   2820   2827   2828     1   108.0100461 406.684800
   2820   2827   2829     1   108.0100461 406.684800
   2821   2820   2849     1   110.1100470 384.091200
   2821   2833   2834     1   109.8000471 387.438400
   2821   2833   2835     1   109.8000471 387.438400
   2822   2821   2833     1   110.5600475 386.601600
   2822   2821   2823     1   109.7500473 328.025600
   2823   2821   2833     1   110.5600475 386.601600
   2824   2820   2849     1   110.1100470 384.091200
   2824   2836   2837     1   109.8000471 387.438400
   2824   2836   2838     1   109.8000471 387.438400
   2825   2824   2836     1   110.5600475 386.601600
   2825   2824   2826     1   109.7500473 328.025600
   2826   2824   2836     1   110.5600475 386.601600
   2827   2820   2849     1   110.1100470 384.091200
   2827   2830   2831     1   109.8000471 387.438400
   2827   2830   2832     1   109.8000471 387.438400
   2828   2827   2830     1   110.5600475 386.601600
   2828   2827   2829     1   109.7500473 328.025600
   2829   2827   2830     1   110.5600475 386.601600
   2830   2839   2840     1   109.5600471 388.275200
   2830   2839   2841     1   109.5600471 388.275200
   2831   2830   2839     1   109.8000471 387.438400
   2831   2830   2832     1   107.5800459 329.699200
   2832   2830   2839     1   109.8000471 387.438400
   2833   2845   2846     1   109.5600471 388.275200
   2833   2845   2847     1   109.5600471 388.275200
   2834   2833   2845     1   109.8000471 387.438400
   2834   2833   2835     1   107.5800459 329.699200
   2835   2833   2845     1   109.8000471 387.438400
   2836   2842   2843     1   109.5600471 388.275200
   2836   2842   2844     1   109.5600471 388.275200
   2837   2836   2842     1   109.8000471 387.438400
   2837   2836   2838     1   107.5800459 329.699200
   2838   2836   2842     1   109.8000471 387.438400
   2840   2839   2848     1   109.7800468 425.094400
   2840   2839   2841     1   108.4600466 328.025600
   2841   2839   2848     1   109.7800468 425.094400
   2843   2842   5728     1   109.7800468 425.094400
   2843   2842   2844     1   108.4600466 328.025600
   2844   2842   5728     1   109.7800468 425.094400
   2846   2845   5758     1   109.7800468 425.094400
   2846   2845   2847     1   108.4600466 328.025600
   2847   2845   5758     1   109.7800468 425.094400
   2850   2851   2852     1   108.0100461 406.684800
   2850   2851   2853     1   108.0100461 406.684800
   2850   2854   2855     1   108.0100461 406.684800
   2850   2854   2856     1   108.0100461 406.684800
   2850   2857   2858     1   108.0100461 406.684800
   2850   2857   2859     1   108.0100461 406.684800
   2851   2850   2879     1   110.1100470 384.091200
   2851   2863   2864     1   109.8000471 387.438400
   2851   2863   2865     1   109.8000471 387.438400
   2852   2851   2863     1   110.5600475 386.601600
   2852   2851   2853     1   109.7500473 328.025600
   2853   2851   2863     1   110.5600475 386.601600
   2854   2850   2879     1   110.1100470 384.091200
   2854   2866   2867     1   109.8000471 387.438400
   2854   2866   2868     1   109.8000471 387.438400
   2855   2854   2866     1   110.5600475 386.601600
   2855   2854   2856     1   109.7500473 328.025600
   2856   2854   2866     1   110.5600475 386.601600
   2857   2850   2879     1   110.1100470 384.091200
   2857   2860   2861     1   109.8000471 387.438400
   2857   2860   2862     1   109.8000471 387.438400
   2858   2857   2860     1   110.5600475 386.601600
   2858   2857   2859     1   109.7500473 328.025600
   2859   2857   2860     1   110.5600475 386.601600
   2860   2869   2870     1   109.5600471 388.275200
   2860   2869   2871     1   109.5600471 388.275200
   2861   2860   2869     1   109.8000471 387.438400
   2861   2860   2862     1   107.5800459 329.699200
   2862   2860   2869     1   109.8000471 387.438400
   2863   2875   2876     1   109.5600471 388.275200
   2863   2875   2877     1   109.5600471 388.275200
   2864   2863   2875     1   109.8000471 387.438400
   2864   2863   2865     1   107.5800459 329.699200
   2865   2863   2875     1   109.8000471 387.438400
   2866   2872   2873     1   109.5600471 388.275200
   2866   2872   2874     1   109.5600471 388.275200
   2867   2866   2872     1   109.8000471 387.438400
   2867   2866   2868     1   107.5800459 329.699200
   2868   2866   2872     1   109.8000471 387.438400
   2870   2869   2878     1   109.7800468 425.094400
   2870   2869   2871     1   108.4600466 328.025600
   2871   2869   2878     1   109.7800468 425.094400
   2873   2872   5788     1   109.7800468 425.094400
   2873   2872   2874     1   108.4600466 328.025600
   2874   2872   5788     1   109.7800468 425.094400
   2876   2875   5818     1   109.7800468 425.094400
   2876   2875   2877     1   108.4600466 328.025600
   2877   2875   5818     1   109.7800468 425.094400
   2880   2881   2882     1   108.0100461 406.684800
   2880   2881   2883     1   108.0100461 406.684800
   2880   2884   2885     1   108.0100461 406.684800
   2880   2884   2886     1   108.0100461 406.684800
   2880   2887   2888     1   108.0100461 406.684800
   2880   2887   2889     1   108.0100461 406.684800
   2881   2880   2909     1   110.1100470 384.091200
   2881   2893   2894     1   109.8000471 387.438400
   2881   2893   2895     1   109.8000471 387.438400
   2882   2881   2893     1   110.5600475 386.601600
   2882   2881   2883     1   109.7500473 328.025600
   2883   2881   2893     1   110.5600475 386.601600
   2884   2880   2909     1   110.1100470 384.091200
   2884   2896   2897     1   109.8000471 387.438400
   2884   2896   2898     1   109.8000471 387.438400
   2885   2884   2896     1   110.5600475 386.601600
   2885   2884   2886     1   109.7500473 328.025600
   2886   2884   2896     1   110.5600475 386.601600
   2887   2880   2909     1   110.1100470 384.091200
   2887   2890   2891     1   109.8000471 387.438400
   2887   2890   2892     1   109.8000471 387.438400
   2888   2887   2890     1   110.5600475 386.601600
   2888   2887   2889     1   109.7500473 328.025600
   2889   2887   2890     1   110.5600475 386.601600
   2890   2899   2900     1   109.5600471 388.275200
   2890   2899   2901     1   109.5600471 388.275200
   2891   2890   2899     1   109.8000471 387.438400
   2891   2890   2892     1   107.5800459 329.699200
   2892   2890   2899     1   109.8000471 387.438400
   2893   2905   2906     1   109.5600471 388.275200
   2893   2905   2907     1   109.5600471 388.275200
   2894   2893   2905     1   109.8000471 387.438400
   2894   2893   2895     1   107.5800459 329.699200
   2895   2893   2905     1   109.8000471 387.438400
   2896   2902   2903     1   109.5600471 388.275200
   2896   2902   2904     1   109.5600471 388.275200
   2897   2896   2902     1   109.8000471 387.438400
   2897   2896   2898     1   107.5800459 329.699200
   2898   2896   2902     1   109.8000471 387.438400
   2900   2899   2908     1   109.7800468 425.094400
   2900   2899   2901     1   108.4600466 328.025600
   2901   2899   2908     1   109.7800468 425.094400
   2903   2902   5848     1   109.7800468 425.094400
   2903   2902   2904     1   108.4600466 328.025600
   2904   2902   5848     1   109.7800468 425.094400
   2906   2905   5878     1   109.7800468 425.094400
   2906   2905   2907     1   108.4600466 328.025600
   2907   2905   5878     1   109.7800468 425.094400
   2910   2911   2912     1   108.0100461 406.684800
   2910   2911   2913     1   108.0100461 406.684800
   2910   2914   2915     1   108.0100461 406.684800
   2910   2914   2916     1   108.0100461 406.684800
   2910   2917   2918     1   108.0100461 406.684800
   2910   2917   2919     1   108.0100461 406.684800
   2911   2910   2939     1   110.1100470 384.091200
   2911   2923   2924     1   109.8000471 387.438400
   2911   2923   2925     1   109.8000471 387.438400
   2912   2911   2923     1   110.5600475 386.601600
   2912   2911   2913     1   109.7500473 328.025600
   2913   2911   2923     1   110.5600475 386.601600
   2914   2910   2939     1   110.1100470 384.091200
   2914   2926   2927     1   109.8000471 387.438400
   2914   2926   2928     1   109.8000471 387.438400
   2915   2914   2926     1   110.5600475 386.601600
   2915   2914   2916     1   109.7500473 328.025600
   2916   2914   2926     1   110.5600475 386.601600
   2917   2910   2939     1   110.1100470 384.091200
   2917   2920   2921     1   109.8000471 387.438400
   2917   2920   2922     1   109.8000471 387.438400
   2918   2917   2920     1   110.5600475 386.601600
   2918   2917   2919     1   109.7500473 328.025600
   2919   2917   2920     1   110.5600475 386.601600
   2920   2929   2930     1   109.5600471 388.275200
   2920   2929   2931     1   109.5600471 388.275200
   2921   2920   2929     1   109.8000471 387.438400
   2921   2920   2922     1   107.5800459 329.699200
   2922   2920   2929     1   109.8000471 387.438400
   2923   2935   2936     1   109.5600471 388.275200
   2923   2935   2937     1   109.5600471 388.275200
   2924   2923   2935     1   109.8000471 387.438400
   2924   2923   2925     1   107.5800459 329.699200
   2925   2923   2935     1   109.8000471 387.438400
   2926   2932   2933     1   109.5600471 388.275200
   2926   2932   2934     1   109.5600471 388.275200
   2927   2926   2932     1   109.8000471 387.438400
   2927   2926   2928     1   107.5800459 329.699200
   2928   2926   2932     1   109.8000471 387.438400
   2930   2929   2938     1   109.7800468 425.094400
   2930   2929   2931     1   108.4600466 328.025600
   2931   2929   2938     1   109.7800468 425.094400
   2933   2932   5908     1   109.7800468 425.094400
   2933   2932   2934     1   108.4600466 328.025600
   2934   2932   5908     1   109.7800468 425.094400
   2936   2935   5938     1   109.7800468 425.094400
   2936   2935   2937     1   108.4600466 328.025600
   2937   2935   5938     1   109.7800468 425.094400
   2940   2941   2942     1   108.0100461 406.684800
   2940   2941   2943     1   108.0100461 406.684800
   2940   2944   2945     1   108.0100461 406.684800
   2940   2944   2946     1   108.0100461 406.684800
   2940   2947   2948     1   108.0100461 406.684800
   2940   2947   2949     1   108.0100461 406.684800
   2941   2940   2969     1   110.1100470 384.091200
   2941   2953   2954     1   109.8000471 387.438400
   2941   2953   2955     1   109.8000471 387.438400
   2942   2941   2953     1   110.5600475 386.601600
   2942   2941   2943     1   109.7500473 328.025600
   2943   2941   2953     1   110.5600475 386.601600
   2944   2940   2969     1   110.1100470 384.091200
   2944   2956   2957     1   109.8000471 387.438400
   2944   2956   2958     1   109.8000471 387.438400
   2945   2944   2956     1   110.5600475 386.601600
   2945   2944   2946     1   109.7500473 328.025600
   2946   2944   2956     1   110.5600475 386.601600
   2947   2940   2969     1   110.1100470 384.091200
   2947   2950   2951     1   109.8000471 387.438400
   2947   2950   2952     1   109.8000471 387.438400
   2948   2947   2950     1   110.5600475 386.601600
   2948   2947   2949     1   109.7500473 328.025600
   2949   2947   2950     1   110.5600475 386.601600
   2950   2959   2960     1   109.5600471 388.275200
   2950   2959   2961     1   109.5600471 388.275200
   2951   2950   2959     1   109.8000471 387.438400
   2951   2950   2952     1   107.5800459 329.699200
   2952   2950   2959     1   109.8000471 387.438400
   2953   2965   2966     1   109.5600471 388.275200
   2953   2965   2967     1   109.5600471 388.275200
   2954   2953   2965     1   109.8000471 387.438400
   2954   2953   2955     1   107.5800459 329.699200
   2955   2953   2965     1   109.8000471 387.438400
   2956   2962   2963     1   109.5600471 388.275200
   2956   2962   2964     1   109.5600471 388.275200
   2957   2956   2962     1   109.8000471 387.438400
   2957   2956   2958     1   107.5800459 329.699200
   2958   2956   2962     1   109.8000471 387.438400
   2960   2959   2968     1   109.7800468 425.094400
   2960   2959   2961     1   108.4600466 328.025600
   2961   2959   2968     1   109.7800468 425.094400
   2963   2962   5968     1   109.7800468 425.094400
   2963   2962   2964     1   108.4600466 328.025600
   2964   2962   5968     1   109.7800468 425.094400
   2966   2965   5998     1   109.7800468 425.094400
   2966   2965   2967     1   108.4600466 328.025600
   2967   2965   5998     1   109.7800468 425.094400
   2970   2971   2972     1   108.0100461 406.684800
   2970   2971   2973     1   108.0100461 406.684800
   2970   2974   2975     1   108.0100461 406.684800
   2970   2974   2976     1   108.0100461 406.684800
   2970   2977   2978     1   108.0100461 406.684800
   2970   2977   2979     1   108.0100461 406.684800
   2971   2970   2999     1   110.1100470 384.091200
   2971   2983   2984     1   109.8000471 387.438400
   2971   2983   2985     1   109.8000471 387.438400
   2972   2971   2983     1   110.5600475 386.601600
   2972   2971   2973     1   109.7500473 328.025600
   2973   2971   2983     1   110.5600475 386.601600
   2974   2970   2999     1   110.1100470 384.091200
   2974   2986   2987     1   109.8000471 387.438400
   2974   2986   2988     1   109.8000471 387.438400
   2975   2974   2986     1   110.5600475 386.601600
   2975   2974   2976     1   109.7500473 328.025600
   2976   2974   2986     1   110.5600475 386.601600
   2977   2970   2999     1   110.1100470 384.091200
   2977   2980   2981     1   109.8000471 387.438400
   2977   2980   2982     1   109.8000471 387.438400
   2978   2977   2980     1   110.5600475 386.601600
   2978   2977   2979     1   109.7500473 328.025600
   2979   2977   2980     1   110.5600475 386.601600
   2980   2989   2990     1   109.5600471 388.275200
   2980   2989   2991     1   109.5600471 388.275200
   2981   2980   2989     1   109.8000471 387.438400
   2981   2980   2982     1   107.5800459 329.699200
   2982   2980   2989     1   109.8000471 387.438400
   2983   2995   2996     1   109.5600471 388.275200
   2983   2995   2997     1   109.5600471 388.275200
   2984   2983   2995     1   109.8000471 387.438400
   2984   2983   2985     1   107.5800459 329.699200
   2985   2983   2995     1   109.8000471 387.438400
   2986   2992   2993     1   109.5600471 388.275200
   2986   2992   2994     1   109.5600471 388.275200
   2987   2986   2992     1   109.8000471 387.438400
   2987   2986   2988     1   107.5800459 329.699200
   2988   2986   2992     1   109.8000471 387.438400
   2990   2989   2998     1   109.7800468 425.094400
   2990   2989   2991     1   108.4600466 328.025600
   2991   2989   2998     1   109.7800468 425.094400
   2993   2992   6028     1   109.7800468 425.094400
   2993   2992   2994     1   108.4600466 328.025600
   2994   2992   6028     1   109.7800468 425.094400
   2996   2995   6058     1   109.7800468 425.094400
   2996   2995   2997     1   108.4600466 328.025600
   2997   2995   6058     1   109.7800468 425.094400
   3000   3001   3002     1   108.0100461 406.684800
   3000   3001   3003     1   108.0100461 406.684800
   3000   3004   3005     1   108.0100461 406.684800
   3000   3004   3006     1   108.0100461 406.684800
   3000   3007   3008     1   108.0100461 406.684800
   3000   3007   3009     1   108.0100461 406.684800
   3001   3000   3029     1   110.1100470 384.091200
   3001   3013   3014     1   109.8000471 387.438400
   3001   3013   3015     1   109.8000471 387.438400
   3002   3001   3013     1   110.5600475 386.601600
   3002   3001   3003     1   109.7500473 328.025600
   3003   3001   3013     1   110.5600475 386.601600
   3004   3000   3029     1   110.1100470 384.091200
   3004   3016   3017     1   109.8000471 387.438400
   3004   3016   3018     1   109.8000471 387.438400
   3005   3004   3016     1   110.5600475 386.601600
   3005   3004   3006     1   109.7500473 328.025600
   3006   3004   3016     1   110.5600475 386.601600
   3007   3000   3029     1   110.1100470 384.091200
   3007   3010   3011     1   109.8000471 387.438400
   3007   3010   3012     1   109.8000471 387.438400
   3008   3007   3010     1   110.5600475 386.601600
   3008   3007   3009     1   109.7500473 328.025600
   3009   3007   3010     1   110.5600475 386.601600
   3010   3019   3020     1   109.5600471 388.275200
   3010   3019   3021     1   109.5600471 388.275200
   3011   3010   3019     1   109.8000471 387.438400
   3011   3010   3012     1   107.5800459 329.699200
   3012   3010   3019     1   109.8000471 387.438400
   3013   3025   3026     1   109.5600471 388.275200
   3013   3025   3027     1   109.5600471 388.275200
   3014   3013   3025     1   109.8000471 387.438400
   3014   3013   3015     1   107.5800459 329.699200
   3015   3013   3025     1   109.8000471 387.438400
   3016   3022   3023     1   109.5600471 388.275200
   3016   3022   3024     1   109.5600471 388.275200
   3017   3016   3022     1   109.8000471 387.438400
   3017   3016   3018     1   107.5800459 329.699200
   3018   3016   3022     1   109.8000471 387.438400
   3020   3019   3028     1   109.7800468 425.094400
   3020   3019   3021     1   108.4600466 328.025600
   3021   3019   3028     1   109.7800468 425.094400
   3023   3022   6088     1   109.7800468 425.094400
   3023   3022   3024     1   108.4600466 328.025600
   3024   3022   6088     1   109.7800468 425.094400
   3026   3025   6118     1   109.7800468 425.094400
   3026   3025   3027     1   108.4600466 328.025600
   3027   3025   6118     1   109.7800468 425.094400
   3030   3031   3032     1   108.0100461 406.684800
   3030   3031   3033     1   108.0100461 406.684800
   3030   3034   3035     1   108.0100461 406.684800
   3030   3034   3036     1   108.0100461 406.684800
   3030   3037   3038     1   108.0100461 406.684800
   3030   3037   3039     1   108.0100461 406.684800
   3031   3030   3059     1   110.1100470 384.091200
   3031   3043   3044     1   109.8000471 387.438400
   3031   3043   3045     1   109.8000471 387.438400
   3032   3031   3043     1   110.5600475 386.601600
   3032   3031   3033     1   109.7500473 328.025600
   3033   3031   3043     1   110.5600475 386.601600
   3034   3030   3059     1   110.1100470 384.091200
   3034   3046   3047     1   109.8000471 387.438400
   3034   3046   3048     1   109.8000471 387.438400
   3035   3034   3046     1   110.5600475 386.601600
   3035   3034   3036     1   109.7500473 328.025600
   3036   3034   3046     1   110.5600475 386.601600
   3037   3030   3059     1   110.1100470 384.091200
   3037   3040   3041     1   109.8000471 387.438400
   3037   3040   3042     1   109.8000471 387.438400
   3038   3037   3040     1   110.5600475 386.601600
   3038   3037   3039     1   109.7500473 328.025600
   3039   3037   3040     1   110.5600475 386.601600
   3040   3049   3050     1   109.5600471 388.275200
   3040   3049   3051     1   109.5600471 388.275200
   3041   3040   3049     1   109.8000471 387.438400
   3041   3040   3042     1   107.5800459 329.699200
   3042   3040   3049     1   109.8000471 387.438400
   3043   3055   3056     1   109.5600471 388.275200
   3043   3055   3057     1   109.5600471 388.275200
   3044   3043   3055     1   109.8000471 387.438400
   3044   3043   3045     1   107.5800459 329.699200
   3045   3043   3055     1   109.8000471 387.438400
   3046   3052   3053     1   109.5600471 388.275200
   3046   3052   3054     1   109.5600471 388.275200
   3047   3046   3052     1   109.8000471 387.438400
   3047   3046   3048     1   107.5800459 329.699200
   3048   3046   3052     1   109.8000471 387.438400
   3050   3049   3058     1   109.7800468 425.094400
   3050   3049   3051     1   108.4600466 328.025600
   3051   3049   3058     1   109.7800468 425.094400
   3053   3052   6148     1   109.7800468 425.094400
   3053   3052   3054     1   108.4600466 328.025600
   3054   3052   6148     1   109.7800468 425.094400
   3056   3055   6178     1   109.7800468 425.094400
   3056   3055   3057     1   108.4600466 328.025600
   3057   3055   6178     1   109.7800468 425.094400
   3060   3061   3062     1   108.0100461 406.684800
   3060   3061   3063     1   108.0100461 406.684800
   3060   3064   3065     1   108.0100461 406.684800
   3060   3064   3066     1   108.0100461 406.684800
   3060   3067   3068     1   108.0100461 406.684800
   3060   3067   3069     1   108.0100461 406.684800
   3061   3060   3089     1   110.1100470 384.091200
   3061   3073   3074     1   109.8000471 387.438400
   3061   3073   3075     1   109.8000471 387.438400
   3062   3061   3073     1   110.5600475 386.601600
   3062   3061   3063     1   109.7500473 328.025600
   3063   3061   3073     1   110.5600475 386.601600
   3064   3060   3089     1   110.1100470 384.091200
   3064   3076   3077     1   109.8000471 387.438400
   3064   3076   3078     1   109.8000471 387.438400
   3065   3064   3076     1   110.5600475 386.601600
   3065   3064   3066     1   109.7500473 328.025600
   3066   3064   3076     1   110.5600475 386.601600
   3067   3060   3089     1   110.1100470 384.091200
   3067   3070   3071     1   109.8000471 387.438400
   3067   3070   3072     1   109.8000471 387.438400
   3068   3067   3070     1   110.5600475 386.601600
   3068   3067   3069     1   109.7500473 328.025600
   3069   3067   3070     1   110.5600475 386.601600
   3070   3079   3080     1   109.5600471 388.275200
   3070   3079   3081     1   109.5600471 388.275200
   3071   3070   3079     1   109.8000471 387.438400
   3071   3070   3072     1   107.5800459 329.699200
   3072   3070   3079     1   109.8000471 387.438400
   3073   3085   3086     1   109.5600471 388.275200
   3073   3085   3087     1   109.5600471 388.275200
   3074   3073   3085     1   109.8000471 387.438400
   3074   3073   3075     1   107.5800459 329.699200
   3075   3073   3085     1   109.8000471 387.438400
   3076   3082   3083     1   109.5600471 388.275200
   3076   3082   3084     1   109.5600471 388.275200
   3077   3076   3082     1   109.8000471 387.438400
   3077   3076   3078     1   107.5800459 329.699200
   3078   3076   3082     1   109.8000471 387.438400
   3080   3079   3088     1   109.7800468 425.094400
   3080   3079   3081     1   108.4600466 328.025600
   3081   3079   3088     1   109.7800468 425.094400
   3083   3082   6208     1   109.7800468 425.094400
   3083   3082   3084     1   108.4600466 328.025600
   3084   3082   6208     1   109.7800468 425.094400
   3086   3085   6238     1   109.7800468 425.094400
   3086   3085   3087     1   108.4600466 328.025600
   3087   3085   6238     1   109.7800468 425.094400
   3090   3091   3092     1   108.0100461 406.684800
   3090   3091   3093     1   108.0100461 406.684800
   3090   3094   3095     1   108.0100461 406.684800
   3090   3094   3096     1   108.0100461 406.684800
   3090   3097   3098     1   108.0100461 406.684800
   3090   3097   3099     1   108.0100461 406.684800
   3091   3090   3119     1   110.1100470 384.091200
   3091   3103   3104     1   109.8000471 387.438400
   3091   3103   3105     1   109.8000471 387.438400
   3092   3091   3103     1   110.5600475 386.601600
   3092   3091   3093     1   109.7500473 328.025600
   3093   3091   3103     1   110.5600475 386.601600
   3094   3090   3119     1   110.1100470 384.091200
   3094   3106   3107     1   109.8000471 387.438400
   3094   3106   3108     1   109.8000471 387.438400
   3095   3094   3106     1   110.5600475 386.601600
   3095   3094   3096     1   109.7500473 328.025600
   3096   3094   3106     1   110.5600475 386.601600
   3097   3090   3119     1   110.1100470 384.091200
   3097   3100   3101     1   109.8000471 387.438400
   3097   3100   3102     1   109.8000471 387.438400
   3098   3097   3100     1   110.5600475 386.601600
   3098   3097   3099     1   109.7500473 328.025600
   3099   3097   3100     1   110.5600475 386.601600
   3100   3109   3110     1   109.5600471 388.275200
   3100   3109   3111     1   109.5600471 388.275200
   3101   3100   3109     1   109.8000471 387.438400
   3101   3100   3102     1   107.5800459 329.699200
   3102   3100   3109     1   109.8000471 387.438400
   3103   3115   3116     1   109.5600471 388.275200
   3103   3115   3117     1   109.5600471 388.275200
   3104   3103   3115     1   109.8000471 387.438400
   3104   3103   3105     1   107.5800459 329.699200
   3105   3103   3115     1   109.8000471 387.438400
   3106   3112   3113     1   109.5600471 388.275200
   3106   3112   3114     1   109.5600471 388.275200
   3107   3106   3112     1   109.8000471 387.438400
   3107   3106   3108     1   107.5800459 329.699200
   3108   3106   3112     1   109.8000471 387.438400
   3110   3109   3118     1   109.7800468 425.094400
   3110   3109   3111     1   108.4600466 328.025600
   3111   3109   3118     1   109.7800468 425.094400
   3113   3112   6268     1   109.7800468 425.094400
   3113   3112   3114     1   108.4600466 328.025600
   3114   3112   6268     1   109.7800468 425.094400
   3116   3115   6298     1   109.7800468 425.094400
   3116   3115   3117     1   108.4600466 328.025600
   3117   3115   6298     1   109.7800468 425.094400
   3120   3121   3122     1   108.0100461 406.684800
   3120   3121   3123     1   108.0100461 406.684800
   3120   3124   3125     1   108.0100461 406.684800
   3120   3124   3126     1   108.0100461 406.684800
   3120   3127   3128     1   108.0100461 406.684800
   3120   3127   3129     1   108.0100461 406.684800
   3121   3120   3149     1   110.1100470 384.091200
   3121   3133   3134     1   109.8000471 387.438400
   3121   3133   3135     1   109.8000471 387.438400
   3122   3121   3133     1   110.5600475 386.601600
   3122   3121   3123     1   109.7500473 328.025600
   3123   3121   3133     1   110.5600475 386.601600
   3124   3120   3149     1   110.1100470 384.091200
   3124   3136   3137     1   109.8000471 387.438400
   3124   3136   3138     1   109.8000471 387.438400
   3125   3124   3136     1   110.5600475 386.601600
   3125   3124   3126     1   109.7500473 328.025600
   3126   3124   3136     1   110.5600475 386.601600
   3127   3120   3149     1   110.1100470 384.091200
   3127   3130   3131     1   109.8000471 387.438400
   3127   3130   3132     1   109.8000471 387.438400
   3128   3127   3130     1   110.5600475 386.601600
   3128   3127   3129     1   109.7500473 328.025600
   3129   3127   3130     1   110.5600475 386.601600
   3130   3139   3140     1   109.5600471 388.275200
   3130   3139   3141     1   109.5600471 388.275200
   3131   3130   3139     1   109.8000471 387.438400
   3131   3130   3132     1   107.5800459 329.699200
   3132   3130   3139     1   109.8000471 387.438400
   3133   3145   3146     1   109.5600471 388.275200
   3133   3145   3147     1   109.5600471 388.275200
   3134   3133   3145     1   109.8000471 387.438400
   3134   3133   3135     1   107.5800459 329.699200
   3135   3133   3145     1   109.8000471 387.438400
   3136   3142   3143     1   109.5600471 388.275200
   3136   3142   3144     1   109.5600471 388.275200
   3137   3136   3142     1   109.8000471 387.438400
   3137   3136   3138     1   107.5800459 329.699200
   3138   3136   3142     1   109.8000471 387.438400
   3140   3139   3148     1   109.7800468 425.094400
   3140   3139   3141     1   108.4600466 328.025600
   3141   3139   3148     1   109.7800468 425.094400
   3143   3142   6328     1   109.7800468 425.094400
   3143   3142   3144     1   108.4600466 328.025600
   3144   3142   6328     1   109.7800468 425.094400
   3146   3145   6358     1   109.7800468 425.094400
   3146   3145   3147     1   108.4600466 328.025600
   3147   3145   6358     1   109.7800468 425.094400
   3150   3151   3152     1   108.0100461 406.684800
   3150   3151   3153     1   108.0100461 406.684800
   3150   3154   3155     1   108.0100461 406.684800
   3150   3154   3156     1   108.0100461 406.684800
   3150   3157   3158     1   108.0100461 406.684800
   3150   3157   3159     1   108.0100461 406.684800
   3151   3150   3179     1   110.1100470 384.091200
   3151   3163   3164     1   109.8000471 387.438400
   3151   3163   3165     1   109.8000471 387.438400
   3152   3151   3163     1   110.5600475 386.601600
   3152   3151   3153     1   109.7500473 328.025600
   3153   3151   3163     1   110.5600475 386.601600
   3154   3150   3179     1   110.1100470 384.091200
   3154   3166   3167     1   109.8000471 387.438400
   3154   3166   3168     1   109.8000471 387.438400
   3155   3154   3166     1   110.5600475 386.601600
   3155   3154   3156     1   109.7500473 328.025600
   3156   3154   3166     1   110.5600475 386.601600
   3157   3150   3179     1   110.1100470 384.091200
   3157   3160   3161     1   109.8000471 387.438400
   3157   3160   3162     1   109.8000471 387.438400
   3158   3157   3160     1   110.5600475 386.601600
   3158   3157   3159     1   109.7500473 328.025600
   3159   3157   3160     1   110.5600475 386.601600
   3160   3169   3170     1   109.5600471 388.275200
   3160   3169   3171     1   109.5600471 388.275200
   3161   3160   3169     1   109.8000471 387.438400
   3161   3160   3162     1   107.5800459 329.699200
   3162   3160   3169     1   109.8000471 387.438400
   3163   3175   3176     1   109.5600471 388.275200
   3163   3175   3177     1   109.5600471 388.275200
   3164   3163   3175     1   109.8000471 387.438400
   3164   3163   3165     1   107.5800459 329.699200
   3165   3163   3175     1   109.8000471 387.438400
   3166   3172   3173     1   109.5600471 388.275200
   3166   3172   3174     1   109.5600471 388.275200
   3167   3166   3172     1   109.8000471 387.438400
   3167   3166   3168     1   107.5800459 329.699200
   3168   3166   3172     1   109.8000471 387.438400
   3170   3169   3178     1   109.7800468 425.094400
   3170   3169   3171     1   108.4600466 328.025600
   3171   3169   3178     1   109.7800468 425.094400
   3173   3172   6388     1   109.7800468 425.094400
   3173   3172   3174     1   108.4600466 328.025600
   3174   3172   6388     1   109.7800468 425.094400
   3176   3175   6418     1   109.7800468 425.094400
   3176   3175   3177     1   108.4600466 328.025600
   3177   3175   6418     1   109.7800468 425.094400
   3180   3181   3182     1   108.0100461 406.684800
   3180   3181   3183     1   108.0100461 406.684800
   3180   3184   3185     1   108.0100461 406.684800
   3180   3184   3186     1   108.0100461 406.684800
   3180   3187   3188     1   108.0100461 406.684800
   3180   3187   3189     1   108.0100461 406.684800
   3181   3180   3209     1   110.1100470 384.091200
   3181   3193   3194     1   109.8000471 387.438400
   3181   3193   3195     1   109.8000471 387.438400
   3182   3181   3193     1   110.5600475 386.601600
   3182   3181   3183     1   109.7500473 328.025600
   3183   3181   3193     1   110.5600475 386.601600
   3184   3180   3209     1   110.1100470 384.091200
   3184   3196   3197     1   109.8000471 387.438400
   3184   3196   3198     1   109.8000471 387.438400
   3185   3184   3196     1   110.5600475 386.601600
   3185   3184   3186     1   109.7500473 328.025600
   3186   3184   3196     1   110.5600475 386.601600
   3187   3180   3209     1   110.1100470 384.091200
   3187   3190   3191     1   109.8000471 387.438400
   3187   3190   3192     1   109.8000471 387.438400
   3188   3187   3190     1   110.5600475 386.601600
   3188   3187   3189     1   109.7500473 328.025600
   3189   3187   3190     1   110.5600475 386.601600
   3190   3199   3200     1   109.5600471 388.275200
   3190   3199   3201     1   109.5600471 388.275200
   3191   3190   3199     1   109.8000471 387.438400
   3191   3190   3192     1   107.5800459 329.699200
   3192   3190   3199     1   109.8000471 387.438400
   3193   3205   3206     1   109.5600471 388.275200
   3193   3205   3207     1   109.5600471 388.275200
   3194   3193   3205     1   109.8000471 387.438400
   3194   3193   3195     1   107.5800459 329.699200
   3195   3193   3205     1   109.8000471 387.438400
   3196   3202   3203     1   109.5600471 388.275200
   3196   3202   3204     1   109.5600471 388.275200
   3197   3196   3202     1   109.8000471 387.438400
   3197   3196   3198     1   107.5800459 329.699200
   3198   3196   3202     1   109.8000471 387.438400
   3200   3199   3208     1   109.7800468 425.094400
   3200   3199   3201     1   108.4600466 328.025600
   3201   3199   3208     1   109.7800468 425.094400
   3203   3202   6448     1   109.7800468 425.094400
   3203   3202   3204     1   108.4600466 328.025600
   3204   3202   6448     1   109.7800468 425.094400
   3206   3205   6478     1   109.7800468 425.094400
   3206   3205   3207     1   108.4600466 328.025600
   3207   3205   6478     1   109.7800468 425.094400
   3210   3211   3212     1   108.0100461 406.684800
   3210   3211   3213     1   108.0100461 406.684800
   3210   3214   3215     1   108.0100461 406.684800
   3210   3214   3216     1   108.0100461 406.684800
   3210   3217   3218     1   108.0100461 406.684800
   3210   3217   3219     1   108.0100461 406.684800
   3211   3210   3239     1   110.1100470 384.091200
   3211   3223   3224     1   109.8000471 387.438400
   3211   3223   3225     1   109.8000471 387.438400
   3212   3211   3223     1   110.5600475 386.601600
   3212   3211   3213     1   109.7500473 328.025600
   3213   3211   3223     1   110.5600475 386.601600
   3214   3210   3239     1   110.1100470 384.091200
   3214   3226   3227     1   109.8000471 387.438400
   3214   3226   3228     1   109.8000471 387.438400
   3215   3214   3226     1   110.5600475 386.601600
   3215   3214   3216     1   109.7500473 328.025600
   3216   3214   3226     1   110.5600475 386.601600
   3217   3210   3239     1   110.1100470 384.091200
   3217   3220   3221     1   109.8000471 387.438400
   3217   3220   3222     1   109.8000471 387.438400
   3218   3217   3220     1   110.5600475 386.601600
   3218   3217   3219     1   109.7500473 328.025600
   3219   3217   3220     1   110.5600475 386.601600
   3220   3229   3230     1   109.5600471 388.275200
   3220   3229   3231     1   109.5600471 388.275200
   3221   3220   3229     1   109.8000471 387.438400
   3221   3220   3222     1   107.5800459 329.699200
   3222   3220   3229     1   109.8000471 387.438400
   3223   3235   3236     1   109.5600471 388.275200
   3223   3235   3237     1   109.5600471 388.275200
   3224   3223   3235     1   109.8000471 387.438400
   3224   3223   3225     1   107.5800459 329.699200
   3225   3223   3235     1   109.8000471 387.438400
   3226   3232   3233     1   109.5600471 388.275200
   3226   3232   3234     1   109.5600471 388.275200
   3227   3226   3232     1   109.8000471 387.438400
   3227   3226   3228     1   107.5800459 329.699200
   3228   3226   3232     1   109.8000471 387.438400
   3230   3229   3238     1   109.7800468 425.094400
   3230   3229   3231     1   108.4600466 328.025600
   3231   3229   3238     1   109.7800468 425.094400
   3233   3232   6508     1   109.7800468 425.094400
   3233   3232   3234     1   108.4600466 328.025600
   3234   3232   6508     1   109.7800468 425.094400
   3236   3235   6538     1   109.7800468 425.094400
   3236   3235   3237     1   108.4600466 328.025600
   3237   3235   6538     1   109.7800468 425.094400
   3240   3241   3242     1   108.0100461 406.684800
   3240   3241   3243     1   108.0100461 406.684800
   3240   3244   3245     1   108.0100461 406.684800
   3240   3244   3246     1   108.0100461 406.684800
   3240   3247   3248     1   108.0100461 406.684800
   3240   3247   3249     1   108.0100461 406.684800
   3241   3240   3269     1   110.1100470 384.091200
   3241   3253   3254     1   109.8000471 387.438400
   3241   3253   3255     1   109.8000471 387.438400
   3242   3241   3253     1   110.5600475 386.601600
   3242   3241   3243     1   109.7500473 328.025600
   3243   3241   3253     1   110.5600475 386.601600
   3244   3240   3269     1   110.1100470 384.091200
   3244   3256   3257     1   109.8000471 387.438400
   3244   3256   3258     1   109.8000471 387.438400
   3245   3244   3256     1   110.5600475 386.601600
   3245   3244   3246     1   109.7500473 328.025600
   3246   3244   3256     1   110.5600475 386.601600
   3247   3240   3269     1   110.1100470 384.091200
   3247   3250   3251     1   109.8000471 387.438400
   3247   3250   3252     1   109.8000471 387.438400
   3248   3247   3250     1   110.5600475 386.601600
   3248   3247   3249     1   109.7500473 328.025600
   3249   3247   3250     1   110.5600475 386.601600
   3250   3259   3260     1   109.5600471 388.275200
   3250   3259   3261     1   109.5600471 388.275200
   3251   3250   3259     1   109.8000471 387.438400
   3251   3250   3252     1   107.5800459 329.699200
   3252   3250   3259     1   109.8000471 387.438400
   3253   3265   3266     1   109.5600471 388.275200
   3253   3265   3267     1   109.5600471 388.275200
   3254   3253   3265     1   109.8000471 387.438400
   3254   3253   3255     1   107.5800459 329.699200
   3255   3253   3265     1   109.8000471 387.438400
   3256   3262   3263     1   109.5600471 388.275200
   3256   3262   3264     1   109.5600471 388.275200
   3257   3256   3262     1   109.8000471 387.438400
   3257   3256   3258     1   107.5800459 329.699200
   3258   3256   3262     1   109.8000471 387.438400
   3260   3259   3268     1   109.7800468 425.094400
   3260   3259   3261     1   108.4600466 328.025600
   3261   3259   3268     1   109.7800468 425.094400
   3263   3262   6568     1   109.7800468 425.094400
   3263   3262   3264     1   108.4600466 328.025600
   3264   3262   6568     1   109.7800468 425.094400
   3266   3265   6598     1   109.7800468 425.094400
   3266   3265   3267     1   108.4600466 328.025600
   3267   3265   6598     1   109.7800468 425.094400
   3270   3271   3272     1   108.0100461 406.684800
   3270   3271   3273     1   108.0100461 406.684800
   3270   3274   3275     1   108.0100461 406.684800
   3270   3274   3276     1   108.0100461 406.684800
   3270   3277   3278     1   108.0100461 406.684800
   3270   3277   3279     1   108.0100461 406.684800
   3271   3270   3299     1   110.1100470 384.091200
   3271   3283   3284     1   109.8000471 387.438400
   3271   3283   3285     1   109.8000471 387.438400
   3272   3271   3283     1   110.5600475 386.601600
   3272   3271   3273     1   109.7500473 328.025600
   3273   3271   3283     1   110.5600475 386.601600
   3274   3270   3299     1   110.1100470 384.091200
   3274   3286   3287     1   109.8000471 387.438400
   3274   3286   3288     1   109.8000471 387.438400
   3275   3274   3286     1   110.5600475 386.601600
   3275   3274   3276     1   109.7500473 328.025600
   3276   3274   3286     1   110.5600475 386.601600
   3277   3270   3299     1   110.1100470 384.091200
   3277   3280   3281     1   109.8000471 387.438400
   3277   3280   3282     1   109.8000471 387.438400
   3278   3277   3280     1   110.5600475 386.601600
   3278   3277   3279     1   109.7500473 328.025600
   3279   3277   3280     1   110.5600475 386.601600
   3280   3289   3290     1   109.5600471 388.275200
   3280   3289   3291     1   109.5600471 388.275200
   3281   3280   3289     1   109.8000471 387.438400
   3281   3280   3282     1   107.5800459 329.699200
   3282   3280   3289     1   109.8000471 387.438400
   3283   3295   3296     1   109.5600471 388.275200
   3283   3295   3297     1   109.5600471 388.275200
   3284   3283   3295     1   109.8000471 387.438400
   3284   3283   3285     1   107.5800459 329.699200
   3285   3283   3295     1   109.8000471 387.438400
   3286   3292   3293     1   109.5600471 388.275200
   3286   3292   3294     1   109.5600471 388.275200
   3287   3286   3292     1   109.8000471 387.438400
   3287   3286   3288     1   107.5800459 329.699200
   3288   3286   3292     1   109.8000471 387.438400
   3290   3289   3298     1   109.7800468 425.094400
   3290   3289   3291     1   108.4600466 328.025600
   3291   3289   3298     1   109.7800468 425.094400
   3293   3292   6628     1   109.7800468 425.094400
   3293   3292   3294     1   108.4600466 328.025600
   3294   3292   6628     1   109.7800468 425.094400
   3296   3295   6658     1   109.7800468 425.094400
   3296   3295   3297     1   108.4600466 328.025600
   3297   3295   6658     1   109.7800468 425.094400
   3300   3301   3302     1   108.0100461 406.684800
   3300   3301   3303     1   108.0100461 406.684800
   3300   3304   3305     1   108.0100461 406.684800
   3300   3304   3306     1   108.0100461 406.684800
   3300   3307   3308     1   108.0100461 406.684800
   3300   3307   3309     1   108.0100461 406.684800
   3301   3300   3329     1   110.1100470 384.091200
   3301   3313   3314     1   109.8000471 387.438400
   3301   3313   3315     1   109.8000471 387.438400
   3302   3301   3313     1   110.5600475 386.601600
   3302   3301   3303     1   109.7500473 328.025600
   3303   3301   3313     1   110.5600475 386.601600
   3304   3300   3329     1   110.1100470 384.091200
   3304   3316   3317     1   109.8000471 387.438400
   3304   3316   3318     1   109.8000471 387.438400
   3305   3304   3316     1   110.5600475 386.601600
   3305   3304   3306     1   109.7500473 328.025600
   3306   3304   3316     1   110.5600475 386.601600
   3307   3300   3329     1   110.1100470 384.091200
   3307   3310   3311     1   109.8000471 387.438400
   3307   3310   3312     1   109.8000471 387.438400
   3308   3307   3310     1   110.5600475 386.601600
   3308   3307   3309     1   109.7500473 328.025600
   3309   3307   3310     1   110.5600475 386.601600
   3310   3319   3320     1   109.5600471 388.275200
   3310   3319   3321     1   109.5600471 388.275200
   3311   3310   3319     1   109.8000471 387.438400
   3311   3310   3312     1   107.5800459 329.699200
   3312   3310   3319     1   109.8000471 387.438400
   3313   3325   3326     1   109.5600471 388.275200
   3313   3325   3327     1   109.5600471 388.275200
   3314   3313   3325     1   109.8000471 387.438400
   3314   3313   3315     1   107.5800459 329.699200
   3315   3313   3325     1   109.8000471 387.438400
   3316   3322   3323     1   109.5600471 388.275200
   3316   3322   3324     1   109.5600471 388.275200
   3317   3316   3322     1   109.8000471 387.438400
   3317   3316   3318     1   107.5800459 329.699200
   3318   3316   3322     1   109.8000471 387.438400
   3320   3319   3328     1   109.7800468 425.094400
   3320   3319   3321     1   108.4600466 328.025600
   3321   3319   3328     1   109.7800468 425.094400
   3323   3322   6688     1   109.7800468 425.094400
   3323   3322   3324     1   108.4600466 328.025600
   3324   3322   6688     1   109.7800468 425.094400
   3326   3325   6718     1   109.7800468 425.094400
   3326   3325   3327     1   108.4600466 328.025600
   3327   3325   6718     1   109.7800468 425.094400
   3330   3331   3332     1   108.0100461 406.684800
   3330   3331   3333     1   108.0100461 406.684800
   3330   3334   3335     1   108.0100461 406.684800
   3330   3334   3336     1   108.0100461 406.684800
   3330   3337   3338     1   108.0100461 406.684800
   3330   3337   3339     1   108.0100461 406.684800
   3331   3330   3359     1   110.1100470 384.091200
   3331   3343   3344     1   109.8000471 387.438400
   3331   3343   3345     1   109.8000471 387.438400
   3332   3331   3343     1   110.5600475 386.601600
   3332   3331   3333     1   109.7500473 328.025600
   3333   3331   3343     1   110.5600475 386.601600
   3334   3330   3359     1   110.1100470 384.091200
   3334   3346   3347     1   109.8000471 387.438400
   3334   3346   3348     1   109.8000471 387.438400
   3335   3334   3346     1   110.5600475 386.601600
   3335   3334   3336     1   109.7500473 328.025600
   3336   3334   3346     1   110.5600475 386.601600
   3337   3330   3359     1   110.1100470 384.091200
   3337   3340   3341     1   109.8000471 387.438400
   3337   3340   3342     1   109.8000471 387.438400
   3338   3337   3340     1   110.5600475 386.601600
   3338   3337   3339     1   109.7500473 328.025600
   3339   3337   3340     1   110.5600475 386.601600
   3340   3349   3350     1   109.5600471 388.275200
   3340   3349   3351     1   109.5600471 388.275200
   3341   3340   3349     1   109.8000471 387.438400
   3341   3340   3342     1   107.5800459 329.699200
   3342   3340   3349     1   109.8000471 387.438400
   3343   3355   3356     1   109.5600471 388.275200
   3343   3355   3357     1   109.5600471 388.275200
   3344   3343   3355     1   109.8000471 387.438400
   3344   3343   3345     1   107.5800459 329.699200
   3345   3343   3355     1   109.8000471 387.438400
   3346   3352   3353     1   109.5600471 388.275200
   3346   3352   3354     1   109.5600471 388.275200
   3347   3346   3352     1   109.8000471 387.438400
   3347   3346   3348     1   107.5800459 329.699200
   3348   3346   3352     1   109.8000471 387.438400
   3350   3349   3358     1   109.7800468 425.094400
   3350   3349   3351     1   108.4600466 328.025600
   3351   3349   3358     1   109.7800468 425.094400
   3353   3352   6748     1   109.7800468 425.094400
   3353   3352   3354     1   108.4600466 328.025600
   3354   3352   6748     1   109.7800468 425.094400
   3356   3355   6778     1   109.7800468 425.094400
   3356   3355   3357     1   108.4600466 328.025600
   3357   3355   6778     1   109.7800468 425.094400
   3360   3361   3362     1   108.0100461 406.684800
   3360   3361   3363     1   108.0100461 406.684800
   3360   3364   3365     1   108.0100461 406.684800
   3360   3364   3366     1   108.0100461 406.684800
   3360   3367   3368     1   108.0100461 406.684800
   3360   3367   3369     1   108.0100461 406.684800
   3361   3360   3389     1   110.1100470 384.091200
   3361   3373   3374     1   109.8000471 387.438400
   3361   3373   3375     1   109.8000471 387.438400
   3362   3361   3373     1   110.5600475 386.601600
   3362   3361   3363     1   109.7500473 328.025600
   3363   3361   3373     1   110.5600475 386.601600
   3364   3360   3389     1   110.1100470 384.091200
   3364   3376   3377     1   109.8000471 387.438400
   3364   3376   3378     1   109.8000471 387.438400
   3365   3364   3376     1   110.5600475 386.601600
   3365   3364   3366     1   109.7500473 328.025600
   3366   3364   3376     1   110.5600475 386.601600
   3367   3360   3389     1   110.1100470 384.091200
   3367   3370   3371     1   109.8000471 387.438400
   3367   3370   3372     1   109.8000471 387.438400
   3368   3367   3370     1   110.5600475 386.601600
   3368   3367   3369     1   109.7500473 328.025600
   3369   3367   3370     1   110.5600475 386.601600
   3370   3379   3380     1   109.5600471 388.275200
   3370   3379   3381     1   109.5600471 388.275200
   3371   3370   3379     1   109.8000471 387.438400
   3371   3370   3372     1   107.5800459 329.699200
   3372   3370   3379     1   109.8000471 387.438400
   3373   3385   3386     1   109.5600471 388.275200
   3373   3385   3387     1   109.5600471 388.275200
   3374   3373   3385     1   109.8000471 387.438400
   3374   3373   3375     1   107.5800459 329.699200
   3375   3373   3385     1   109.8000471 387.438400
   3376   3382   3383     1   109.5600471 388.275200
   3376   3382   3384     1   109.5600471 388.275200
   3377   3376   3382     1   109.8000471 387.438400
   3377   3376   3378     1   107.5800459 329.699200
   3378   3376   3382     1   109.8000471 387.438400
   3380   3379   3388     1   109.7800468 425.094400
   3380   3379   3381     1   108.4600466 328.025600
   3381   3379   3388     1   109.7800468 425.094400
   3383   3382   6808     1   109.7800468 425.094400
   3383   3382   3384     1   108.4600466 328.025600
   3384   3382   6808     1   109.7800468 425.094400
   3386   3385   6838     1   109.7800468 425.094400
   3386   3385   3387     1   108.4600466 328.025600
   3387   3385   6838     1   109.7800468 425.094400
   3390   3391   3392     1   108.0100461 406.684800
   3390   3391   3393     1   108.0100461 406.684800
   3390   3394   3395     1   108.0100461 406.684800
   3390   3394   3396     1   108.0100461 406.684800
   3390   3397   3398     1   108.0100461 406.684800
   3390   3397   3399     1   108.0100461 406.684800
   3391   3390   3419     1   110.1100470 384.091200
   3391   3403   3404     1   109.8000471 387.438400
   3391   3403   3405     1   109.8000471 387.438400
   3392   3391   3403     1   110.5600475 386.601600
   3392   3391   3393     1   109.7500473 328.025600
   3393   3391   3403     1   110.5600475 386.601600
   3394   3390   3419     1   110.1100470 384.091200
   3394   3406   3407     1   109.8000471 387.438400
   3394   3406   3408     1   109.8000471 387.438400
   3395   3394   3406     1   110.5600475 386.601600
   3395   3394   3396     1   109.7500473 328.025600
   3396   3394   3406     1   110.5600475 386.601600
   3397   3390   3419     1   110.1100470 384.091200
   3397   3400   3401     1   109.8000471 387.438400
   3397   3400   3402     1   109.8000471 387.438400
   3398   3397   3400     1   110.5600475 386.601600
   3398   3397   3399     1   109.7500473 328.025600
   3399   3397   3400     1   110.5600475 386.601600
   3400   3409   3410     1   109.5600471 388.275200
   3400   3409   3411     1   109.5600471 388.275200
   3401   3400   3409     1   109.8000471 387.438400
   3401   3400   3402     1   107.5800459 329.699200
   3402   3400   3409     1   109.8000471 387.438400
   3403   3415   3416     1   109.5600471 388.275200
   3403   3415   3417     1   109.5600471 388.275200
   3404   3403   3415     1   109.8000471 387.438400
   3404   3403   3405     1   107.5800459 329.699200
   3405   3403   3415     1   109.8000471 387.438400
   3406   3412   3413     1   109.5600471 388.275200
   3406   3412   3414     1   109.5600471 388.275200
   3407   3406   3412     1   109.8000471 387.438400
   3407   3406   3408     1   107.5800459 329.699200
   3408   3406   3412     1   109.8000471 387.438400
   3410   3409   3418     1   109.7800468 425.094400
   3410   3409   3411     1   108.4600466 328.025600
   3411   3409   3418     1   109.7800468 425.094400
   3413   3412   6868     1   109.7800468 425.094400
   3413   3412   3414     1   108.4600466 328.025600
   3414   3412   6868     1   109.7800468 425.094400
   3416   3415   6898     1   109.7800468 425.094400
   3416   3415   3417     1   108.4600466 328.025600
   3417   3415   6898     1   109.7800468 425.094400
   3420   3421   3422     1   108.0100461 406.684800
   3420   3421   3423     1   108.0100461 406.684800
   3420   3424   3425     1   108.0100461 406.684800
   3420   3424   3426     1   108.0100461 406.684800
   3420   3427   3428     1   108.0100461 406.684800
   3420   3427   3429     1   108.0100461 406.684800
   3421   3420   3449     1   110.1100470 384.091200
   3421   3433   3434     1   109.8000471 387.438400
   3421   3433   3435     1   109.8000471 387.438400
   3422   3421   3433     1   110.5600475 386.601600
   3422   3421   3423     1   109.7500473 328.025600
   3423   3421   3433     1   110.5600475 386.601600
   3424   3420   3449     1   110.1100470 384.091200
   3424   3436   3437     1   109.8000471 387.438400
   3424   3436   3438     1   109.8000471 387.438400
   3425   3424   3436     1   110.5600475 386.601600
   3425   3424   3426     1   109.7500473 328.025600
   3426   3424   3436     1   110.5600475 386.601600
   3427   3420   3449     1   110.1100470 384.091200
   3427   3430   3431     1   109.8000471 387.438400
   3427   3430   3432     1   109.8000471 387.438400
   3428   3427   3430     1   110.5600475 386.601600
   3428   3427   3429     1   109.7500473 328.025600
   3429   3427   3430     1   110.5600475 386.601600
   3430   3439   3440     1   109.5600471 388.275200
   3430   3439   3441     1   109.5600471 388.275200
   3431   3430   3439     1   109.8000471 387.438400
   3431   3430   3432     1   107.5800459 329.699200
   3432   3430   3439     1   109.8000471 387.438400
   3433   3445   3446     1   109.5600471 388.275200
   3433   3445   3447     1   109.5600471 388.275200
   3434   3433   3445     1   109.8000471 387.438400
   3434   3433   3435     1   107.5800459 329.699200
   3435   3433   3445     1   109.8000471 387.438400
   3436   3442   3443     1   109.5600471 388.275200
   3436   3442   3444     1   109.5600471 388.275200
   3437   3436   3442     1   109.8000471 387.438400
   3437   3436   3438     1   107.5800459 329.699200
   3438   3436   3442     1   109.8000471 387.438400
   3440   3439   3448     1   109.7800468 425.094400
   3440   3439   3441     1   108.4600466 328.025600
   3441   3439   3448     1   109.7800468 425.094400
   3443   3442   6928     1   109.7800468 425.094400
   3443   3442   3444     1   108.4600466 328.025600
   3444   3442   6928     1   109.7800468 425.094400
   3446   3445   6958     1   109.7800468 425.094400
   3446   3445   3447     1   108.4600466 328.025600
   3447   3445   6958     1   109.7800468 425.094400
   3450   3451   3452     1   108.0100461 406.684800
   3450   3451   3453     1   108.0100461 406.684800
   3450   3454   3455     1   108.0100461 406.684800
   3450   3454   3456     1   108.0100461 406.684800
   3450   3457   3458     1   108.0100461 406.684800
   3450   3457   3459     1   108.0100461 406.684800
   3451   3450   3479     1   110.1100470 384.091200
   3451   3463   3464     1   109.8000471 387.438400
   3451   3463   3465     1   109.8000471 387.438400
   3452   3451   3463     1   110.5600475 386.601600
   3452   3451   3453     1   109.7500473 328.025600
   3453   3451   3463     1   110.5600475 386.601600
   3454   3450   3479     1   110.1100470 384.091200
   3454   3466   3467     1   109.8000471 387.438400
   3454   3466   3468     1   109.8000471 387.438400
   3455   3454   3466     1   110.5600475 386.601600
   3455   3454   3456     1   109.7500473 328.025600
   3456   3454   3466     1   110.5600475 386.601600
   3457   3450   3479     1   110.1100470 384.091200
   3457   3460   3461     1   109.8000471 387.438400
   3457   3460   3462     1   109.8000471 387.438400
   3458   3457   3460     1   110.5600475 386.601600
   3458   3457   3459     1   109.7500473 328.025600
   3459   3457   3460     1   110.5600475 386.601600
   3460   3469   3470     1   109.5600471 388.275200
   3460   3469   3471     1   109.5600471 388.275200
   3461   3460   3469     1   109.8000471 387.438400
   3461   3460   3462     1   107.5800459 329.699200
   3462   3460   3469     1   109.8000471 387.438400
   3463   3475   3476     1   109.5600471 388.275200
   3463   3475   3477     1   109.5600471 388.275200
   3464   3463   3475     1   109.8000471 387.438400
   3464   3463   3465     1   107.5800459 329.699200
   3465   3463   3475     1   109.8000471 387.438400
   3466   3472   3473     1   109.5600471 388.275200
   3466   3472   3474     1   109.5600471 388.275200
   3467   3466   3472     1   109.8000471 387.438400
   3467   3466   3468     1   107.5800459 329.699200
   3468   3466   3472     1   109.8000471 387.438400
   3470   3469   3478     1   109.7800468 425.094400
   3470   3469   3471     1   108.4600466 328.025600
   3471   3469   3478     1   109.7800468 425.094400
   3473   3472   6988     1   109.7800468 425.094400
   3473   3472   3474     1   108.4600466 328.025600
   3474   3472   6988     1   109.7800468 425.094400
   3476   3475   7018     1   109.7800468 425.094400
   3476   3475   3477     1   108.4600466 328.025600
   3477   3475   7018     1   109.7800468 425.094400
   3480   3481   3482     1   108.0100461 406.684800
   3480   3481   3483     1   108.0100461 406.684800
   3480   3484   3485     1   108.0100461 406.684800
   3480   3484   3486     1   108.0100461 406.684800
   3480   3487   3488     1   108.0100461 406.684800
   3480   3487   3489     1   108.0100461 406.684800
   3481   3480   3509     1   110.1100470 384.091200
   3481   3493   3494     1   109.8000471 387.438400
   3481   3493   3495     1   109.8000471 387.438400
   3482   3481   3493     1   110.5600475 386.601600
   3482   3481   3483     1   109.7500473 328.025600
   3483   3481   3493     1   110.5600475 386.601600
   3484   3480   3509     1   110.1100470 384.091200
   3484   3496   3497     1   109.8000471 387.438400
   3484   3496   3498     1   109.8000471 387.438400
   3485   3484   3496     1   110.5600475 386.601600
   3485   3484   3486     1   109.7500473 328.025600
   3486   3484   3496     1   110.5600475 386.601600
   3487   3480   3509     1   110.1100470 384.091200
   3487   3490   3491     1   109.8000471 387.438400
   3487   3490   3492     1   109.8000471 387.438400
   3488   3487   3490     1   110.5600475 386.601600
   3488   3487   3489     1   109.7500473 328.025600
   3489   3487   3490     1   110.5600475 386.601600
   3490   3499   3500     1   109.5600471 388.275200
   3490   3499   3501     1   109.5600471 388.275200
   3491   3490   3499     1   109.8000471 387.438400
   3491   3490   3492     1   107.5800459 329.699200
   3492   3490   3499     1   109.8000471 387.438400
   3493   3505   3506     1   109.5600471 388.275200
   3493   3505   3507     1   109.5600471 388.275200
   3494   3493   3505     1   109.8000471 387.438400
   3494   3493   3495     1   107.5800459 329.699200
   3495   3493   3505     1   109.8000471 387.438400
   3496   3502   3503     1   109.5600471 388.275200
   3496   3502   3504     1   109.5600471 388.275200
   3497   3496   3502     1   109.8000471 387.438400
   3497   3496   3498     1   107.5800459 329.699200
   3498   3496   3502     1   109.8000471 387.438400
   3500   3499   3508     1   109.7800468 425.094400
   3500   3499   3501     1   108.4600466 328.025600
   3501   3499   3508     1   109.7800468 425.094400
   3503   3502   7048     1   109.7800468 425.094400
   3503   3502   3504     1   108.4600466 328.025600
   3504   3502   7048     1   109.7800468 425.094400
   3506   3505   7078     1   109.7800468 425.094400
   3506   3505   3507     1   108.4600466 328.025600
   3507   3505   7078     1   109.7800468 425.094400
   3510   3511   3512     1   108.0100461 406.684800
   3510   3511   3513     1   108.0100461 406.684800
   3510   3514   3515     1   108.0100461 406.684800
   3510   3514   3516     1   108.0100461 406.684800
   3510   3517   3518     1   108.0100461 406.684800
   3510   3517   3519     1   108.0100461 406.684800
   3511   3510   3539     1   110.1100470 384.091200
   3511   3523   3524     1   109.8000471 387.438400
   3511   3523   3525     1   109.8000471 387.438400
   3512   3511   3523     1   110.5600475 386.601600
   3512   3511   3513     1   109.7500473 328.025600
   3513   3511   3523     1   110.5600475 386.601600
   3514   3510   3539     1   110.1100470 384.091200
   3514   3526   3527     1   109.8000471 387.438400
   3514   3526   3528     1   109.8000471 387.438400
   3515   3514   3526     1   110.5600475 386.601600
   3515   3514   3516     1   109.7500473 328.025600
   3516   3514   3526     1   110.5600475 386.601600
   3517   3510   3539     1   110.1100470 384.091200
   3517   3520   3521     1   109.8000471 387.438400
   3517   3520   3522     1   109.8000471 387.438400
   3518   3517   3520     1   110.5600475 386.601600
   3518   3517   3519     1   109.7500473 328.025600
   3519   3517   3520     1   110.5600475 386.601600
   3520   3529   3530     1   109.5600471 388.275200
   3520   3529   3531     1   109.5600471 388.275200
   3521   3520   3529     1   109.8000471 387.438400
   3521   3520   3522     1   107.5800459 329.699200
   3522   3520   3529     1   109.8000471 387.438400
   3523   3535   3536     1   109.5600471 388.275200
   3523   3535   3537     1   109.5600471 388.275200
   3524   3523   3535     1   109.8000471 387.438400
   3524   3523   3525     1   107.5800459 329.699200
   3525   3523   3535     1   109.8000471 387.438400
   3526   3532   3533     1   109.5600471 388.275200
   3526   3532   3534     1   109.5600471 388.275200
   3527   3526   3532     1   109.8000471 387.438400
   3527   3526   3528     1   107.5800459 329.699200
   3528   3526   3532     1   109.8000471 387.438400
   3530   3529   3538     1   109.7800468 425.094400
   3530   3529   3531     1   108.4600466 328.025600
   3531   3529   3538     1   109.7800468 425.094400
   3533   3532   7108     1   109.7800468 425.094400
   3533   3532   3534     1   108.4600466 328.025600
   3534   3532   7108     1   109.7800468 425.094400
   3536   3535   7138     1   109.7800468 425.094400
   3536   3535   3537     1   108.4600466 328.025600
   3537   3535   7138     1   109.7800468 425.094400
   3540   3541   3542     1   108.0100461 406.684800
   3540   3541   3543     1   108.0100461 406.684800
   3540   3544   3545     1   108.0100461 406.684800
   3540   3544   3546     1   108.0100461 406.684800
   3540   3547   3548     1   108.0100461 406.684800
   3540   3547   3549     1   108.0100461 406.684800
   3541   3540   3569     1   110.1100470 384.091200
   3541   3553   3554     1   109.8000471 387.438400
   3541   3553   3555     1   109.8000471 387.438400
   3542   3541   3553     1   110.5600475 386.601600
   3542   3541   3543     1   109.7500473 328.025600
   3543   3541   3553     1   110.5600475 386.601600
   3544   3540   3569     1   110.1100470 384.091200
   3544   3556   3557     1   109.8000471 387.438400
   3544   3556   3558     1   109.8000471 387.438400
   3545   3544   3556     1   110.5600475 386.601600
   3545   3544   3546     1   109.7500473 328.025600
   3546   3544   3556     1   110.5600475 386.601600
   3547   3540   3569     1   110.1100470 384.091200
   3547   3550   3551     1   109.8000471 387.438400
   3547   3550   3552     1   109.8000471 387.438400
   3548   3547   3550     1   110.5600475 386.601600
   3548   3547   3549     1   109.7500473 328.025600
   3549   3547   3550     1   110.5600475 386.601600
   3550   3559   3560     1   109.5600471 388.275200
   3550   3559   3561     1   109.5600471 388.275200
   3551   3550   3559     1   109.8000471 387.438400
   3551   3550   3552     1   107.5800459 329.699200
   3552   3550   3559     1   109.8000471 387.438400
   3553   3565   3566     1   109.5600471 388.275200
   3553   3565   3567     1   109.5600471 388.275200
   3554   3553   3565     1   109.8000471 387.438400
   3554   3553   3555     1   107.5800459 329.699200
   3555   3553   3565     1   109.8000471 387.438400
   3556   3562   3563     1   109.5600471 388.275200
   3556   3562   3564     1   109.5600471 388.275200
   3557   3556   3562     1   109.8000471 387.438400
   3557   3556   3558     1   107.5800459 329.699200
   3558   3556   3562     1   109.8000471 387.438400
   3560   3559   3568     1   109.7800468 425.094400
   3560   3559   3561     1   108.4600466 328.025600
   3561   3559   3568     1   109.7800468 425.094400
   3563   3562   7168     1   109.7800468 425.094400
   3563   3562   3564     1   108.4600466 328.025600
   3564   3562   7168     1   109.7800468 425.094400
   3566   3565   7198     1   109.7800468 425.094400
   3566   3565   3567     1   108.4600466 328.025600
   3567   3565   7198     1   109.7800468 425.094400
   3570   3571   3572     1   108.0100461 406.684800
   3570   3571   3573     1   108.0100461 406.684800
   3570   3574   3575     1   108.0100461 406.684800
   3570   3574   3576     1   108.0100461 406.684800
   3570   3577   3578     1   108.0100461 406.684800
   3570   3577   3579     1   108.0100461 406.684800
   3571   3570   3599     1   110.1100470 384.091200
   3571   3583   3584     1   109.8000471 387.438400
   3571   3583   3585     1   109.8000471 387.438400
   3572   3571   3583     1   110.5600475 386.601600
   3572   3571   3573     1   109.7500473 328.025600
   3573   3571   3583     1   110.5600475 386.601600
   3574   3570   3599     1   110.1100470 384.091200
   3574   3586   3587     1   109.8000471 387.438400
   3574   3586   3588     1   109.8000471 387.438400
   3575   3574   3586     1   110.5600475 386.601600
   3575   3574   3576     1   109.7500473 328.025600
   3576   3574   3586     1   110.5600475 386.601600
   3577   3570   3599     1   110.1100470 384.091200
   3577   3580   3581     1   109.8000471 387.438400
   3577   3580   3582     1   109.8000471 387.438400
   3578   3577   3580     1   110.5600475 386.601600
   3578   3577   3579     1   109.7500473 328.025600
   3579   3577   3580     1   110.5600475 386.601600
   3580   3589   3590     1   109.5600471 388.275200
   3580   3589   3591     1   109.5600471 388.275200
   3581   3580   3589     1   109.8000471 387.438400
   3581   3580   3582     1   107.5800459 329.699200
   3582   3580   3589     1   109.8000471 387.438400
   3583   3595   3596     1   109.5600471 388.275200
   3583   3595   3597     1   109.5600471 388.275200
   3584   3583   3595     1   109.8000471 387.438400
   3584   3583   3585     1   107.5800459 329.699200
   3585   3583   3595     1   109.8000471 387.438400
   3586   3592   3593     1   109.5600471 388.275200
   3586   3592   3594     1   109.5600471 388.275200
   3587   3586   3592     1   109.8000471 387.438400
   3587   3586   3588     1   107.5800459 329.699200
   3588   3586   3592     1   109.8000471 387.438400
   3590   3589   3598     1   109.7800468 425.094400
   3590   3589   3591     1   108.4600466 328.025600
   3591   3589   3598     1   109.7800468 425.094400
   3593   3592   7228     1   109.7800468 425.094400
   3593   3592   3594     1   108.4600466 328.025600
   3594   3592   7228     1   109.7800468 425.094400
   3596   3595   7258     1   109.7800468 425.094400
   3596   3595   3597     1   108.4600466 328.025600
   3597   3595   7258     1   109.7800468 425.094400
   3600   3601   3602     1   108.0100461 406.684800
   3600   3601   3603     1   108.0100461 406.684800
   3600   3604   3605     1   108.0100461 406.684800
   3600   3604   3606     1   108.0100461 406.684800
   3600   3607   3608     1   108.0100461 406.684800
   3600   3607   3609     1   108.0100461 406.684800
   3601   3600   3629     1   110.1100470 384.091200
   3601   3613   3614     1   109.8000471 387.438400
   3601   3613   3615     1   109.8000471 387.438400
   3602   3601   3613     1   110.5600475 386.601600
   3602   3601   3603     1   109.7500473 328.025600
   3603   3601   3613     1   110.5600475 386.601600
   3604   3600   3629     1   110.1100470 384.091200
   3604   3616   3617     1   109.8000471 387.438400
   3604   3616   3618     1   109.8000471 387.438400
   3605   3604   3616     1   110.5600475 386.601600
   3605   3604   3606     1   109.7500473 328.025600
   3606   3604   3616     1   110.5600475 386.601600
   3607   3600   3629     1   110.1100470 384.091200
   3607   3610   3611     1   109.8000471 387.438400
   3607   3610   3612     1   109.8000471 387.438400
   3608   3607   3610     1   110.5600475 386.601600
   3608   3607   3609     1   109.7500473 328.025600
   3609   3607   3610     1   110.5600475 386.601600
   3610   3619   3620     1   109.5600471 388.275200
   3610   3619   3621     1   109.5600471 388.275200
   3611   3610   3619     1   109.8000471 387.438400
   3611   3610   3612     1   107.5800459 329.699200
   3612   3610   3619     1   109.8000471 387.438400
   3613   3625   3626     1   109.5600471 388.275200
   3613   3625   3627     1   109.5600471 388.275200
   3614   3613   3625     1   109.8000471 387.438400
   3614   3613   3615     1   107.5800459 329.699200
   3615   3613   3625     1   109.8000471 387.438400
   3616   3622   3623     1   109.5600471 388.275200
   3616   3622   3624     1   109.5600471 388.275200
   3617   3616   3622     1   109.8000471 387.438400
   3617   3616   3618     1   107.5800459 329.699200
   3618   3616   3622     1   109.8000471 387.438400
   3620   3619   3628     1   109.7800468 425.094400
   3620   3619   3621     1   108.4600466 328.025600
   3621   3619   3628     1   109.7800468 425.094400
   3623   3622   7288     1   109.7800468 425.094400
   3623   3622   3624     1   108.4600466 328.025600
   3624   3622   7288     1   109.7800468 425.094400
   3626   3625   7318     1   109.7800468 425.094400
   3626   3625   3627     1   108.4600466 328.025600
   3627   3625   7318     1   109.7800468 425.094400
   3630   3631   3632     1   108.0100461 406.684800
   3630   3631   3633     1   108.0100461 406.684800
   3630   3634   3635     1   108.0100461 406.684800
   3630   3634   3636     1   108.0100461 406.684800
   3630   3637   3638     1   108.0100461 406.684800
   3630   3637   3639     1   108.0100461 406.684800
   3631   3630   3659     1   110.1100470 384.091200
   3631   3643   3644     1   109.8000471 387.438400
   3631   3643   3645     1   109.8000471 387.438400
   3632   3631   3643     1   110.5600475 386.601600
   3632   3631   3633     1   109.7500473 328.025600
   3633   3631   3643     1   110.5600475 386.601600
   3634   3630   3659     1   110.1100470 384.091200
   3634   3646   3647     1   109.8000471 387.438400
   3634   3646   3648     1   109.8000471 387.438400
   3635   3634   3646     1   110.5600475 386.601600
   3635   3634   3636     1   109.7500473 328.025600
   3636   3634   3646     1   110.5600475 386.601600
   3637   3630   3659     1   110.1100470 384.091200
   3637   3640   3641     1   109.8000471 387.438400
   3637   3640   3642     1   109.8000471 387.438400
   3638   3637   3640     1   110.5600475 386.601600
   3638   3637   3639     1   109.7500473 328.025600
   3639   3637   3640     1   110.5600475 386.601600
   3640   3649   3650     1   109.5600471 388.275200
   3640   3649   3651     1   109.5600471 388.275200
   3641   3640   3649     1   109.8000471 387.438400
   3641   3640   3642     1   107.5800459 329.699200
   3642   3640   3649     1   109.8000471 387.438400
   3643   3655   3656     1   109.5600471 388.275200
   3643   3655   3657     1   109.5600471 388.275200
   3644   3643   3655     1   109.8000471 387.438400
   3644   3643   3645     1   107.5800459 329.699200
   3645   3643   3655     1   109.8000471 387.438400
   3646   3652   3653     1   109.5600471 388.275200
   3646   3652   3654     1   109.5600471 388.275200
   3647   3646   3652     1   109.8000471 387.438400
   3647   3646   3648     1   107.5800459 329.699200
   3648   3646   3652     1   109.8000471 387.438400
   3650   3649   3658     1   109.7800468 425.094400
   3650   3649   3651     1   108.4600466 328.025600
   3651   3649   3658     1   109.7800468 425.094400
   3653   3652   7348     1   109.7800468 425.094400
   3653   3652   3654     1   108.4600466 328.025600
   3654   3652   7348     1   109.7800468 425.094400
   3656   3655   7378     1   109.7800468 425.094400
   3656   3655   3657     1   108.4600466 328.025600
   3657   3655   7378     1   109.7800468 425.094400
   3660   3661   3662     1   108.0100461 406.684800
   3660   3661   3663     1   108.0100461 406.684800
   3660   3664   3665     1   108.0100461 406.684800
   3660   3664   3666     1   108.0100461 406.684800
   3660   3667   3668     1   108.0100461 406.684800
   3660   3667   3669     1   108.0100461 406.684800
   3661   3660   3689     1   110.1100470 384.091200
   3661   3673   3674     1   109.8000471 387.438400
   3661   3673   3675     1   109.8000471 387.438400
   3662   3661   3673     1   110.5600475 386.601600
   3662   3661   3663     1   109.7500473 328.025600
   3663   3661   3673     1   110.5600475 386.601600
   3664   3660   3689     1   110.1100470 384.091200
   3664   3676   3677     1   109.8000471 387.438400
   3664   3676   3678     1   109.8000471 387.438400
   3665   3664   3676     1   110.5600475 386.601600
   3665   3664   3666     1   109.7500473 328.025600
   3666   3664   3676     1   110.5600475 386.601600
   3667   3660   3689     1   110.1100470 384.091200
   3667   3670   3671     1   109.8000471 387.438400
   3667   3670   3672     1   109.8000471 387.438400
   3668   3667   3670     1   110.5600475 386.601600
   3668   3667   3669     1   109.7500473 328.025600
   3669   3667   3670     1   110.5600475 386.601600
   3670   3679   3680     1   109.5600471 388.275200
   3670   3679   3681     1   109.5600471 388.275200
   3671   3670   3679     1   109.8000471 387.438400
   3671   3670   3672     1   107.5800459 329.699200
   3672   3670   3679     1   109.8000471 387.438400
   3673   3685   3686     1   109.5600471 388.275200
   3673   3685   3687     1   109.5600471 388.275200
   3674   3673   3685     1   109.8000471 387.438400
   3674   3673   3675     1   107.5800459 329.699200
   3675   3673   3685     1   109.8000471 387.438400
   3676   3682   3683     1   109.5600471 388.275200
   3676   3682   3684     1   109.5600471 388.275200
   3677   3676   3682     1   109.8000471 387.438400
   3677   3676   3678     1   107.5800459 329.699200
   3678   3676   3682     1   109.8000471 387.438400
   3680   3679   3688     1   109.7800468 425.094400
   3680   3679   3681     1   108.4600466 328.025600
   3681   3679   3688     1   109.7800468 425.094400
   3683   3682   7408     1   109.7800468 425.094400
   3683   3682   3684     1   108.4600466 328.025600
   3684   3682   7408     1   109.7800468 425.094400
   3686   3685   7438     1   109.7800468 425.094400
   3686   3685   3687     1   108.4600466 328.025600
   3687   3685   7438     1   109.7800468 425.094400
   3690   3691   3692     1   108.0100461 406.684800
   3690   3691   3693     1   108.0100461 406.684800
   3690   3694   3695     1   108.0100461 406.684800
   3690   3694   3696     1   108.0100461 406.684800
   3690   3697   3698     1   108.0100461 406.684800
   3690   3697   3699     1   108.0100461 406.684800
   3691   3690   3719     1   110.1100470 384.091200
   3691   3703   3704     1   109.8000471 387.438400
   3691   3703   3705     1   109.8000471 387.438400
   3692   3691   3703     1   110.5600475 386.601600
   3692   3691   3693     1   109.7500473 328.025600
   3693   3691   3703     1   110.5600475 386.601600
   3694   3690   3719     1   110.1100470 384.091200
   3694   3706   3707     1   109.8000471 387.438400
   3694   3706   3708     1   109.8000471 387.438400
   3695   3694   3706     1   110.5600475 386.601600
   3695   3694   3696     1   109.7500473 328.025600
   3696   3694   3706     1   110.5600475 386.601600
   3697   3690   3719     1   110.1100470 384.091200
   3697   3700   3701     1   109.8000471 387.438400
   3697   3700   3702     1   109.8000471 387.438400
   3698   3697   3700     1   110.5600475 386.601600
   3698   3697   3699     1   109.7500473 328.025600
   3699   3697   3700     1   110.5600475 386.601600
   3700   3709   3710     1   109.5600471 388.275200
   3700   3709   3711     1   109.5600471 388.275200
   3701   3700   3709     1   109.8000471 387.438400
   3701   3700   3702     1   107.5800459 329.699200
   3702   3700   3709     1   109.8000471 387.438400
   3703   3715   3716     1   109.5600471 388.275200
   3703   3715   3717     1   109.5600471 388.275200
   3704   3703   3715     1   109.8000471 387.438400
   3704   3703   3705     1   107.5800459 329.699200
   3705   3703   3715     1   109.8000471 387.438400
   3706   3712   3713     1   109.5600471 388.275200
   3706   3712   3714     1   109.5600471 388.275200
   3707   3706   3712     1   109.8000471 387.438400
   3707   3706   3708     1   107.5800459 329.699200
   3708   3706   3712     1   109.8000471 387.438400
   3710   3709   3718     1   109.7800468 425.094400
   3710   3709   3711     1   108.4600466 328.025600
   3711   3709   3718     1   109.7800468 425.094400
   3713   3712   7468     1   109.7800468 425.094400
   3713   3712   3714     1   108.4600466 328.025600
   3714   3712   7468     1   109.7800468 425.094400
   3716   3715   7498     1   109.7800468 425.094400
   3716   3715   3717     1   108.4600466 328.025600
   3717   3715   7498     1   109.7800468 425.094400
   3720   3721   3722     1   108.0100461 406.684800
   3720   3721   3723     1   108.0100461 406.684800
   3720   3724   3725     1   108.0100461 406.684800
   3720   3724   3726     1   108.0100461 406.684800
   3720   3727   3728     1   108.0100461 406.684800
   3720   3727   3729     1   108.0100461 406.684800
   3721   3720   3749     1   110.1100470 384.091200
   3721   3733   3734     1   109.8000471 387.438400
   3721   3733   3735     1   109.8000471 387.438400
   3722   3721   3733     1   110.5600475 386.601600
   3722   3721   3723     1   109.7500473 328.025600
   3723   3721   3733     1   110.5600475 386.601600
   3724   3720   3749     1   110.1100470 384.091200
   3724   3736   3737     1   109.8000471 387.438400
   3724   3736   3738     1   109.8000471 387.438400
   3725   3724   3736     1   110.5600475 386.601600
   3725   3724   3726     1   109.7500473 328.025600
   3726   3724   3736     1   110.5600475 386.601600
   3727   3720   3749     1   110.1100470 384.091200
   3727   3730   3731     1   109.8000471 387.438400
   3727   3730   3732     1   109.8000471 387.438400
   3728   3727   3730     1   110.5600475 386.601600
   3728   3727   3729     1   109.7500473 328.025600
   3729   3727   3730     1   110.5600475 386.601600
   3730   3739   3740     1   109.5600471 388.275200
   3730   3739   3741     1   109.5600471 388.275200
   3731   3730   3739     1   109.8000471 387.438400
   3731   3730   3732     1   107.5800459 329.699200
   3732   3730   3739     1   109.8000471 387.438400
   3733   3745   3746     1   109.5600471 388.275200
   3733   3745   3747     1   109.5600471 388.275200
   3734   3733   3745     1   109.8000471 387.438400
   3734   3733   3735     1   107.5800459 329.699200
   3735   3733   3745     1   109.8000471 387.438400
   3736   3742   3743     1   109.5600471 388.275200
   3736   3742   3744     1   109.5600471 388.275200
   3737   3736   3742     1   109.8000471 387.438400
   3737   3736   3738     1   107.5800459 329.699200
   3738   3736   3742     1   109.8000471 387.438400
   3740   3739   3748     1   109.7800468 425.094400
   3740   3739   3741     1   108.4600466 328.025600
   3741   3739   3748     1   109.7800468 425.094400
   3743   3742   7528     1   109.7800468 425.094400
   3743   3742   3744     1   108.4600466 328.025600
   3744   3742   7528     1   109.7800468 425.094400
   3746   3745   7558     1   109.7800468 425.094400
   3746   3745   3747     1   108.4600466 328.025600
   3747   3745   7558     1   109.7800468 425.094400
   3750   3751   3752     1   108.0100461 406.684800
   3750   3751   3753     1   108.0100461 406.684800
   3750   3754   3755     1   108.0100461 406.684800
   3750   3754   3756     1   108.0100461 406.684800
   3750   3757   3758     1   108.0100461 406.684800
   3750   3757   3759     1   108.0100461 406.684800
   3751   3750   3779     1   110.1100470 384.091200
   3751   3763   3764     1   109.8000471 387.438400
   3751   3763   3765     1   109.8000471 387.438400
   3752   3751   3763     1   110.5600475 386.601600
   3752   3751   3753     1   109.7500473 328.025600
   3753   3751   3763     1   110.5600475 386.601600
   3754   3750   3779     1   110.1100470 384.091200
   3754   3766   3767     1   109.8000471 387.438400
   3754   3766   3768     1   109.8000471 387.438400
   3755   3754   3766     1   110.5600475 386.601600
   3755   3754   3756     1   109.7500473 328.025600
   3756   3754   3766     1   110.5600475 386.601600
   3757   3750   3779     1   110.1100470 384.091200
   3757   3760   3761     1   109.8000471 387.438400
   3757   3760   3762     1   109.8000471 387.438400
   3758   3757   3760     1   110.5600475 386.601600
   3758   3757   3759     1   109.7500473 328.025600
   3759   3757   3760     1   110.5600475 386.601600
   3760   3769   3770     1   109.5600471 388.275200
   3760   3769   3771     1   109.5600471 388.275200
   3761   3760   3769     1   109.8000471 387.438400
   3761   3760   3762     1   107.5800459 329.699200
   3762   3760   3769     1   109.8000471 387.438400
   3763   3775   3776     1   109.5600471 388.275200
   3763   3775   3777     1   109.5600471 388.275200
   3764   3763   3775     1   109.8000471 387.438400
   3764   3763   3765     1   107.5800459 329.699200
   3765   3763   3775     1   109.8000471 387.438400
   3766   3772   3773     1   109.5600471 388.275200
   3766   3772   3774     1   109.5600471 388.275200
   3767   3766   3772     1   109.8000471 387.438400
   3767   3766   3768     1   107.5800459 329.699200
   3768   3766   3772     1   109.8000471 387.438400
   3770   3769   3778     1   109.7800468 425.094400
   3770   3769   3771     1   108.4600466 328.025600
   3771   3769   3778     1   109.7800468 425.094400
   3773   3772   7588     1   109.7800468 425.094400
   3773   3772   3774     1   108.4600466 328.025600
   3774   3772   7588     1   109.7800468 425.094400
   3776   3775   7618     1   109.7800468 425.094400
   3776   3775   3777     1   108.4600466 328.025600
   3777   3775   7618     1   109.7800468 425.094400
   3780   3781   3782     1   108.0100461 406.684800
   3780   3781   3783     1   108.0100461 406.684800
   3780   3784   3785     1   108.0100461 406.684800
   3780   3784   3786     1   108.0100461 406.684800
   3780   3787   3788     1   108.0100461 406.684800
   3780   3787   3789     1   108.0100461 406.684800
   3781   3780   3809     1   110.1100470 384.091200
   3781   3793   3794     1   109.8000471 387.438400
   3781   3793   3795     1   109.8000471 387.438400
   3782   3781   3793     1   110.5600475 386.601600
   3782   3781   3783     1   109.7500473 328.025600
   3783   3781   3793     1   110.5600475 386.601600
   3784   3780   3809     1   110.1100470 384.091200
   3784   3796   3797     1   109.8000471 387.438400
   3784   3796   3798     1   109.8000471 387.438400
   3785   3784   3796     1   110.5600475 386.601600
   3785   3784   3786     1   109.7500473 328.025600
   3786   3784   3796     1   110.5600475 386.601600
   3787   3780   3809     1   110.1100470 384.091200
   3787   3790   3791     1   109.8000471 387.438400
   3787   3790   3792     1   109.8000471 387.438400
   3788   3787   3790     1   110.5600475 386.601600
   3788   3787   3789     1   109.7500473 328.025600
   3789   3787   3790     1   110.5600475 386.601600
   3790   3799   3800     1   109.5600471 388.275200
   3790   3799   3801     1   109.5600471 388.275200
   3791   3790   3799     1   109.8000471 387.438400
   3791   3790   3792     1   107.5800459 329.699200
   3792   3790   3799     1   109.8000471 387.438400
   3793   3805   3806     1   109.5600471 388.275200
   3793   3805   3807     1   109.5600471 388.275200
   3794   3793   3805     1   109.8000471 387.438400
   3794   3793   3795     1   107.5800459 329.699200
   3795   3793   3805     1   109.8000471 387.438400
   3796   3802   3803     1   109.5600471 388.275200
   3796   3802   3804     1   109.5600471 388.275200
   3797   3796   3802     1   109.8000471 387.438400
   3797   3796   3798     1   107.5800459 329.699200
   3798   3796   3802     1   109.8000471 387.438400
   3800   3799   3808     1   109.7800468 425.094400
   3800   3799   3801     1   108.4600466 328.025600
   3801   3799   3808     1   109.7800468 425.094400
   3803   3802   7630     1   109.7800468 425.094400
   3803   3802   3804     1   108.4600466 328.025600
   3804   3802   7630     1   109.7800468 425.094400
   3806   3805   7653     1   109.7800468 425.094400
   3806   3805   3807     1   108.4600466 328.025600
   3807   3805   7653     1   109.7800468 425.094400
   3810   3811   3812     1   108.0100461 406.684800
   3810   3811   3813     1   108.0100461 406.684800
   3810   3814   3815     1   108.0100461 406.684800
   3810   3814   3816     1   108.0100461 406.684800
   3810   3817   3818     1   108.0100461 406.684800
   3810   3817   3819     1   108.0100461 406.684800
   3811   3810   3839     1   110.1100470 384.091200
   3811   3823   3824     1   109.8000471 387.438400
   3811   3823   3825     1   109.8000471 387.438400
   3812   3811   3823     1   110.5600475 386.601600
   3812   3811   3813     1   109.7500473 328.025600
   3813   3811   3823     1   110.5600475 386.601600
   3814   3810   3839     1   110.1100470 384.091200
   3814   3826   3827     1   109.8000471 387.438400
   3814   3826   3828     1   109.8000471 387.438400
   3815   3814   3826     1   110.5600475 386.601600
   3815   3814   3816     1   109.7500473 328.025600
   3816   3814   3826     1   110.5600475 386.601600
   3817   3810   3839     1   110.1100470 384.091200
   3817   3820   3821     1   109.8000471 387.438400
   3817   3820   3822     1   109.8000471 387.438400
   3818   3817   3820     1   110.5600475 386.601600
   3818   3817   3819     1   109.7500473 328.025600
   3819   3817   3820     1   110.5600475 386.601600
   3820   3829   3830     1   109.5600471 388.275200
   3820   3829   3831     1   109.5600471 388.275200
   3821   3820   3829     1   109.8000471 387.438400
   3821   3820   3822     1   107.5800459 329.699200
   3822   3820   3829     1   109.8000471 387.438400
   3823   3835   3836     1   109.5600471 388.275200
   3823   3835   3837     1   109.5600471 388.275200
   3824   3823   3835     1   109.8000471 387.438400
   3824   3823   3825     1   107.5800459 329.699200
   3825   3823   3835     1   109.8000471 387.438400
   3826   3832   3833     1   109.5600471 388.275200
   3826   3832   3834     1   109.5600471 388.275200
   3827   3826   3832     1   109.8000471 387.438400
   3827   3826   3828     1   107.5800459 329.699200
   3828   3826   3832     1   109.8000471 387.438400
   3830   3829   3838     1   109.7800468 425.094400
   3830   3829   3831     1   108.4600466 328.025600
   3831   3829   3838     1   109.7800468 425.094400
   3833   3832   7676     1   109.7800468 425.094400
   3833   3832   3834     1   108.4600466 328.025600
   3834   3832   7676     1   109.7800468 425.094400
   3836   3835   7699     1   109.7800468 425.094400
   3836   3835   3837     1   108.4600466 328.025600
   3837   3835   7699     1   109.7800468 425.094400
   3840   3841   3842     1   108.0100461 406.684800
   3840   3841   3843     1   108.0100461 406.684800
   3840   3844   3845     1   108.0100461 406.684800
   3840   3844   3846     1   108.0100461 406.684800
   3840   3847   3848     1   108.0100461 406.684800
   3840   3847   3849     1   108.0100461 406.684800
   3841   3840   3869     1   110.1100470 384.091200
   3841   3853   3854     1   109.8000471 387.438400
   3841   3853   3855     1   109.8000471 387.438400
   3842   3841   3853     1   110.5600475 386.601600
   3842   3841   3843     1   109.7500473 328.025600
   3843   3841   3853     1   110.5600475 386.601600
   3844   3840   3869     1   110.1100470 384.091200
   3844   3856   3857     1   109.8000471 387.438400
   3844   3856   3858     1   109.8000471 387.438400
   3845   3844   3856     1   110.5600475 386.601600
   3845   3844   3846     1   109.7500473 328.025600
   3846   3844   3856     1   110.5600475 386.601600
   3847   3840   3869     1   110.1100470 384.091200
   3847   3850   3851     1   109.8000471 387.438400
   3847   3850   3852     1   109.8000471 387.438400
   3848   3847   3850     1   110.5600475 386.601600
   3848   3847   3849     1   109.7500473 328.025600
   3849   3847   3850     1   110.5600475 386.601600
   3850   3859   3860     1   109.5600471 388.275200
   3850   3859   3861     1   109.5600471 388.275200
   3851   3850   3859     1   109.8000471 387.438400
   3851   3850   3852     1   107.5800459 329.699200
   3852   3850   3859     1   109.8000471 387.438400
   3853   3865   3866     1   109.5600471 388.275200
   3853   3865   3867     1   109.5600471 388.275200
   3854   3853   3865     1   109.8000471 387.438400
   3854   3853   3855     1   107.5800459 329.699200
   3855   3853   3865     1   109.8000471 387.438400
   3856   3862   3863     1   109.5600471 388.275200
   3856   3862   3864     1   109.5600471 388.275200
   3857   3856   3862     1   109.8000471 387.438400
   3857   3856   3858     1   107.5800459 329.699200
   3858   3856   3862     1   109.8000471 387.438400
   3860   3859   3868     1   109.7800468 425.094400
   3860   3859   3861     1   108.4600466 328.025600
   3861   3859   3868     1   109.7800468 425.094400
   3863   3862   7722     1   109.7800468 425.094400
   3863   3862   3864     1   108.4600466 328.025600
   3864   3862   7722     1   109.7800468 425.094400
   3866   3865   7745     1   109.7800468 425.094400
   3866   3865   3867     1   108.4600466 328.025600
   3867   3865   7745     1   109.7800468 425.094400
   3870   3871   3872     1   108.0100461 406.684800
   3870   3871   3873     1   108.0100461 406.684800
   3870   3874   3875     1   108.0100461 406.684800
   3870   3874   3876     1   108.0100461 406.684800
   3870   3877   3878     1   108.0100461 406.684800
   3870   3877   3879     1   108.0100461 406.684800
   3871   3870   3899     1   110.1100470 384.091200
   3871   3883   3884     1   109.8000471 387.438400
   3871   3883   3885     1   109.8000471 387.438400
   3872   3871   3883     1   110.5600475 386.601600
   3872   3871   3873     1   109.7500473 328.025600
   3873   3871   3883     1   110.5600475 386.601600
   3874   3870   3899     1   110.1100470 384.091200
   3874   3886   3887     1   109.8000471 387.438400
   3874   3886   3888     1   109.8000471 387.438400
   3875   3874   3886     1   110.5600475 386.601600
   3875   3874   3876     1   109.7500473 328.025600
   3876   3874   3886     1   110.5600475 386.601600
   3877   3870   3899     1   110.1100470 384.091200
   3877   3880   3881     1   109.8000471 387.438400
   3877   3880   3882     1   109.8000471 387.438400
   3878   3877   3880     1   110.5600475 386.601600
   3878   3877   3879     1   109.7500473 328.025600
   3879   3877   3880     1   110.5600475 386.601600
   3880   3889   3890     1   109.5600471 388.275200
   3880   3889   3891     1   109.5600471 388.275200
   3881   3880   3889     1   109.8000471 387.438400
   3881   3880   3882     1   107.5800459 329.699200
   3882   3880   3889     1   109.8000471 387.438400
   3883   3895   3896     1   109.5600471 388.275200
   3883   3895   3897     1   109.5600471 388.275200
   3884   3883   3895     1   109.8000471 387.438400
   3884   3883   3885     1   107.5800459 329.699200
   3885   3883   3895     1   109.8000471 387.438400
   3886   3892   3893     1   109.5600471 388.275200
   3886   3892   3894     1   109.5600471 388.275200
   3887   3886   3892     1   109.8000471 387.438400
   3887   3886   3888     1   107.5800459 329.699200
   3888   3886   3892     1   109.8000471 387.438400
   3890   3889   3898     1   109.7800468 425.094400
   3890   3889   3891     1   108.4600466 328.025600
   3891   3889   3898     1   109.7800468 425.094400
   3893   3892   7768     1   109.7800468 425.094400
   3893   3892   3894     1   108.4600466 328.025600
   3894   3892   7768     1   109.7800468 425.094400
   3896   3895   7791     1   109.7800468 425.094400
   3896   3895   3897     1   108.4600466 328.025600
   3897   3895   7791     1   109.7800468 425.094400
   3900   3901   3902     1   108.0100461 406.684800
   3900   3901   3903     1   108.0100461 406.684800
   3900   3904   3905     1   108.0100461 406.684800
   3900   3904   3906     1   108.0100461 406.684800
   3900   3907   3908     1   108.0100461 406.684800
   3900   3907   3909     1   108.0100461 406.684800
   3901   3900   3929     1   110.1100470 384.091200
   3901   3913   3914     1   109.8000471 387.438400
   3901   3913   3915     1   109.8000471 387.438400
   3902   3901   3913     1   110.5600475 386.601600
   3902   3901   3903     1   109.7500473 328.025600
   3903   3901   3913     1   110.5600475 386.601600
   3904   3900   3929     1   110.1100470 384.091200
   3904   3916   3917     1   109.8000471 387.438400
   3904   3916   3918     1   109.8000471 387.438400
   3905   3904   3916     1   110.5600475 386.601600
   3905   3904   3906     1   109.7500473 328.025600
   3906   3904   3916     1   110.5600475 386.601600
   3907   3900   3929     1   110.1100470 384.091200
   3907   3910   3911     1   109.8000471 387.438400
   3907   3910   3912     1   109.8000471 387.438400
   3908   3907   3910     1   110.5600475 386.601600
   3908   3907   3909     1   109.7500473 328.025600
   3909   3907   3910     1   110.5600475 386.601600
   3910   3919   3920     1   109.5600471 388.275200
   3910   3919   3921     1   109.5600471 388.275200
   3911   3910   3919     1   109.8000471 387.438400
   3911   3910   3912     1   107.5800459 329.699200
   3912   3910   3919     1   109.8000471 387.438400
   3913   3925   3926     1   109.5600471 388.275200
   3913   3925   3927     1   109.5600471 388.275200
   3914   3913   3925     1   109.8000471 387.438400
   3914   3913   3915     1   107.5800459 329.699200
   3915   3913   3925     1   109.8000471 387.438400
   3916   3922   3923     1   109.5600471 388.275200
   3916   3922   3924     1   109.5600471 388.275200
   3917   3916   3922     1   109.8000471 387.438400
   3917   3916   3918     1   107.5800459 329.699200
   3918   3916   3922     1   109.8000471 387.438400
   3920   3919   3928     1   109.7800468 425.094400
   3920   3919   3921     1   108.4600466 328.025600
   3921   3919   3928     1   109.7800468 425.094400
   3923   3922   7814     1   109.7800468 425.094400
   3923   3922   3924     1   108.4600466 328.025600
   3924   3922   7814     1   109.7800468 425.094400
   3926   3925   7837     1   109.7800468 425.094400
   3926   3925   3927     1   108.4600466 328.025600
   3927   3925   7837     1   109.7800468 425.094400
   3930   3931   3932     1   108.0100461 406.684800
   3930   3931   3933     1   108.0100461 406.684800
   3930   3934   3935     1   108.0100461 406.684800
   3930   3934   3936     1   108.0100461 406.684800
   3930   3937   3938     1   108.0100461 406.684800
   3930   3937   3939     1   108.0100461 406.684800
   3931   3930   3959     1   110.1100470 384.091200
   3931   3943   3944     1   109.8000471 387.438400
   3931   3943   3945     1   109.8000471 387.438400
   3932   3931   3943     1   110.5600475 386.601600
   3932   3931   3933     1   109.7500473 328.025600
   3933   3931   3943     1   110.5600475 386.601600
   3934   3930   3959     1   110.1100470 384.091200
   3934   3946   3947     1   109.8000471 387.438400
   3934   3946   3948     1   109.8000471 387.438400
   3935   3934   3946     1   110.5600475 386.601600
   3935   3934   3936     1   109.7500473 328.025600
   3936   3934   3946     1   110.5600475 386.601600
   3937   3930   3959     1   110.1100470 384.091200
   3937   3940   3941     1   109.8000471 387.438400
   3937   3940   3942     1   109.8000471 387.438400
   3938   3937   3940     1   110.5600475 386.601600
   3938   3937   3939     1   109.7500473 328.025600
   3939   3937   3940     1   110.5600475 386.601600
   3940   3949   3950     1   109.5600471 388.275200
   3940   3949   3951     1   109.5600471 388.275200
   3941   3940   3949     1   109.8000471 387.438400
   3941   3940   3942     1   107.5800459 329.699200
   3942   3940   3949     1   109.8000471 387.438400
   3943   3955   3956     1   109.5600471 388.275200
   3943   3955   3957     1   109.5600471 388.275200
   3944   3943   3955     1   109.8000471 387.438400
   3944   3943   3945     1   107.5800459 329.699200
   3945   3943   3955     1   109.8000471 387.438400
   3946   3952   3953     1   109.5600471 388.275200
   3946   3952   3954     1   109.5600471 388.275200
   3947   3946   3952     1   109.8000471 387.438400
   3947   3946   3948     1   107.5800459 329.699200
   3948   3946   3952     1   109.8000471 387.438400
   3950   3949   3958     1   109.7800468 425.094400
   3950   3949   3951     1   108.4600466 328.025600
   3951   3949   3958     1   109.7800468 425.094400
   3953   3952   7860     1   109.7800468 425.094400
   3953   3952   3954     1   108.4600466 328.025600
   3954   3952   7860     1   109.7800468 425.094400
   3956   3955   7883     1   109.7800468 425.094400
   3956   3955   3957     1   108.4600466 328.025600
   3957   3955   7883     1   109.7800468 425.094400
   3960   3961   3962     1   108.0100461 406.684800
   3960   3961   3963     1   108.0100461 406.684800
   3960   3964   3965     1   108.0100461 406.684800
   3960   3964   3966     1   108.0100461 406.684800
   3960   3967   3968     1   108.0100461 406.684800
   3960   3967   3969     1   108.0100461 406.684800
   3961   3960   3989     1   110.1100470 384.091200
   3961   3973   3974     1   109.8000471 387.438400
   3961   3973   3975     1   109.8000471 387.438400
   3962   3961   3973     1   110.5600475 386.601600
   3962   3961   3963     1   109.7500473 328.025600
   3963   3961   3973     1   110.5600475 386.601600
   3964   3960   3989     1   110.1100470 384.091200
   3964   3976   3977     1   109.8000471 387.438400
   3964   3976   3978     1   109.8000471 387.438400
   3965   3964   3976     1   110.5600475 386.601600
   3965   3964   3966     1   109.7500473 328.025600
   3966   3964   3976     1   110.5600475 386.601600
   3967   3960   3989     1   110.1100470 384.091200
   3967   3970   3971     1   109.8000471 387.438400
   3967   3970   3972     1   109.8000471 387.438400
   3968   3967   3970     1   110.5600475 386.601600
   3968   3967   3969     1   109.7500473 328.025600
   3969   3967   3970     1   110.5600475 386.601600
   3970   3979   3980     1   109.5600471 388.275200
   3970   3979   3981     1   109.5600471 388.275200
   3971   3970   3979     1   109.8000471 387.438400
   3971   3970   3972     1   107.5800459 329.699200
   3972   3970   3979     1   109.8000471 387.438400
   3973   3985   3986     1   109.5600471 388.275200
   3973   3985   3987     1   109.5600471 388.275200
   3974   3973   3985     1   109.8000471 387.438400
   3974   3973   3975     1   107.5800459 329.699200
   3975   3973   3985     1   109.8000471 387.438400
   3976   3982   3983     1   109.5600471 388.275200
   3976   3982   3984     1   109.5600471 388.275200
   3977   3976   3982     1   109.8000471 387.438400
   3977   3976   3978     1   107.5800459 329.699200
   3978   3976   3982     1   109.8000471 387.438400
   3980   3979   3988     1   109.7800468 425.094400
   3980   3979   3981     1   108.4600466 328.025600
   3981   3979   3988     1   109.7800468 425.094400
   3983   3982   7906     1   109.7800468 425.094400
   3983   3982   3984     1   108.4600466 328.025600
   3984   3982   7906     1   109.7800468 425.094400
   3986   3985   7929     1   109.7800468 425.094400
   3986   3985   3987     1   108.4600466 328.025600
   3987   3985   7929     1   109.7800468 425.094400
   3990   3991   3992     1   108.0100461 406.684800
   3990   3991   3993     1   108.0100461 406.684800
   3990   3994   3995     1   108.0100461 406.684800
   3990   3994   3996     1   108.0100461 406.684800
   3990   3997   3998     1   108.0100461 406.684800
   3990   3997   3999     1   108.0100461 406.684800
   3991   3990   4019     1   110.1100470 384.091200
   3991   4003   4004     1   109.8000471 387.438400
   3991   4003   4005     1   109.8000471 387.438400
   3992   3991   4003     1   110.5600475 386.601600
   3992   3991   3993     1   109.7500473 328.025600
   3993   3991   4003     1   110.5600475 386.601600
   3994   3990   4019     1   110.1100470 384.091200
   3994   4006   4007     1   109.8000471 387.438400
   3994   4006   4008     1   109.8000471 387.438400
   3995   3994   4006     1   110.5600475 386.601600
   3995   3994   3996     1   109.7500473 328.025600
   3996   3994   4006     1   110.5600475 386.601600
   3997   3990   4019     1   110.1100470 384.091200
   3997   4000   4001     1   109.8000471 387.438400
   3997   4000   4002     1   109.8000471 387.438400
   3998   3997   4000     1   110.5600475 386.601600
   3998   3997   3999     1   109.7500473 328.025600
   3999   3997   4000     1   110.5600475 386.601600
   4000   4009   4010     1   109.5600471 388.275200
   4000   4009   4011     1   109.5600471 388.275200
   4001   4000   4009     1   109.8000471 387.438400
   4001   4000   4002     1   107.5800459 329.699200
   4002   4000   4009     1   109.8000471 387.438400
   4003   4015   4016     1   109.5600471 388.275200
   4003   4015   4017     1   109.5600471 388.275200
   4004   4003   4015     1   109.8000471 387.438400
   4004   4003   4005     1   107.5800459 329.699200
   4005   4003   4015     1   109.8000471 387.438400
   4006   4012   4013     1   109.5600471 388.275200
   4006   4012   4014     1   109.5600471 388.275200
   4007   4006   4012     1   109.8000471 387.438400
   4007   4006   4008     1   107.5800459 329.699200
   4008   4006   4012     1   109.8000471 387.438400
   4010   4009   4018     1   109.7800468 425.094400
   4010   4009   4011     1   108.4600466 328.025600
   4011   4009   4018     1   109.7800468 425.094400
   4013   4012   7952     1   109.7800468 425.094400
   4013   4012   4014     1   108.4600466 328.025600
   4014   4012   7952     1   109.7800468 425.094400
   4016   4015   7975     1   109.7800468 425.094400
   4016   4015   4017     1   108.4600466 328.025600
   4017   4015   7975     1   109.7800468 425.094400
   4020   4021   4022     1   108.0100461 406.684800
   4020   4021   4023     1   108.0100461 406.684800
   4020   4024   4025     1   108.0100461 406.684800
   4020   4024   4026     1   108.0100461 406.684800
   4020   4027   4028     1   108.0100461 406.684800
   4020   4027   4029     1   108.0100461 406.684800
   4021   4020   4049     1   110.1100470 384.091200
   4021   4033   4034     1   109.8000471 387.438400
   4021   4033   4035     1   109.8000471 387.438400
   4022   4021   4033     1   110.5600475 386.601600
   4022   4021   4023     1   109.7500473 328.025600
   4023   4021   4033     1   110.5600475 386.601600
   4024   4020   4049     1   110.1100470 384.091200
   4024   4036   4037     1   109.8000471 387.438400
   4024   4036   4038     1   109.8000471 387.438400
   4025   4024   4036     1   110.5600475 386.601600
   4025   4024   4026     1   109.7500473 328.025600
   4026   4024   4036     1   110.5600475 386.601600
   4027   4020   4049     1   110.1100470 384.091200
   4027   4030   4031     1   109.8000471 387.438400
   4027   4030   4032     1   109.8000471 387.438400
   4028   4027   4030     1   110.5600475 386.601600
   4028   4027   4029     1   109.7500473 328.025600
   4029   4027   4030     1   110.5600475 386.601600
   4030   4039   4040     1   109.5600471 388.275200
   4030   4039   4041     1   109.5600471 388.275200
   4031   4030   4039     1   109.8000471 387.438400
   4031   4030   4032     1   107.5800459 329.699200
   4032   4030   4039     1   109.8000471 387.438400
   4033   4045   4046     1   109.5600471 388.275200
   4033   4045   4047     1   109.5600471 388.275200
   4034   4033   4045     1   109.8000471 387.438400
   4034   4033   4035     1   107.5800459 329.699200
   4035   4033   4045     1   109.8000471 387.438400
   4036   4042   4043     1   109.5600471 388.275200
   4036   4042   4044     1   109.5600471 388.275200
   4037   4036   4042     1   109.8000471 387.438400
   4037   4036   4038     1   107.5800459 329.699200
   4038   4036   4042     1   109.8000471 387.438400
   4040   4039   4048     1   109.7800468 425.094400
   4040   4039   4041     1   108.4600466 328.025600
   4041   4039   4048     1   109.7800468 425.094400
   4043   4042   7998     1   109.7800468 425.094400
   4043   4042   4044     1   108.4600466 328.025600
   4044   4042   7998     1   109.7800468 425.094400
   4046   4045   8021     1   109.7800468 425.094400
   4046   4045   4047     1   108.4600466 328.025600
   4047   4045   8021     1   109.7800468 425.094400
   4050   4051   4052     1   108.0100461 406.684800
   4050   4051   4053     1   108.0100461 406.684800
   4050   4054   4055     1   108.0100461 406.684800
   4050   4054   4056     1   108.0100461 406.684800
   4050   4057   4058     1   108.0100461 406.684800
   4050   4057   4059     1   108.0100461 406.684800
   4051   4050   4079     1   110.1100470 384.091200
   4051   4063   4064     1   109.8000471 387.438400
   4051   4063   4065     1   109.8000471 387.438400
   4052   4051   4063     1   110.5600475 386.601600
   4052   4051   4053     1   109.7500473 328.025600
   4053   4051   4063     1   110.5600475 386.601600
   4054   4050   4079     1   110.1100470 384.091200
   4054   4066   4067     1   109.8000471 387.438400
   4054   4066   4068     1   109.8000471 387.438400
   4055   4054   4066     1   110.5600475 386.601600
   4055   4054   4056     1   109.7500473 328.025600
   4056   4054   4066     1   110.5600475 386.601600
   4057   4050   4079     1   110.1100470 384.091200
   4057   4060   4061     1   109.8000471 387.438400
   4057   4060   4062     1   109.8000471 387.438400
   4058   4057   4060     1   110.5600475 386.601600
   4058   4057   4059     1   109.7500473 328.025600
   4059   4057   4060     1   110.5600475 386.601600
   4060   4069   4070     1   109.5600471 388.275200
   4060   4069   4071     1   109.5600471 388.275200
   4061   4060   4069     1   109.8000471 387.438400
   4061   4060   4062     1   107.5800459 329.699200
   4062   4060   4069     1   109.8000471 387.438400
   4063   4075   4076     1   109.5600471 388.275200
   4063   4075   4077     1   109.5600471 388.275200
   4064   4063   4075     1   109.8000471 387.438400
   4064   4063   4065     1   107.5800459 329.699200
   4065   4063   4075     1   109.8000471 387.438400
   4066   4072   4073     1   109.5600471 388.275200
   4066   4072   4074     1   109.5600471 388.275200
   4067   4066   4072     1   109.8000471 387.438400
   4067   4066   4068     1   107.5800459 329.699200
   4068   4066   4072     1   109.8000471 387.438400
   4070   4069   4078     1   109.7800468 425.094400
   4070   4069   4071     1   108.4600466 328.025600
   4071   4069   4078     1   109.7800468 425.094400
   4073   4072   8044     1   109.7800468 425.094400
   4073   4072   4074     1   108.4600466 328.025600
   4074   4072   8044     1   109.7800468 425.094400
   4076   4075   8067     1   109.7800468 425.094400
   4076   4075   4077     1   108.4600466 328.025600
   4077   4075   8067     1   109.7800468 425.094400
   4080   4081   4082     1   108.0100461 406.684800
   4080   4081   4083     1   108.0100461 406.684800
   4080   4084   4085     1   108.0100461 406.684800
   4080   4084   4086     1   108.0100461 406.684800
   4080   4087   4088     1   108.0100461 406.684800
   4080   4087   4089     1   108.0100461 406.684800
   4081   4080   4109     1   110.1100470 384.091200
   4081   4093   4094     1   109.8000471 387.438400
   4081   4093   4095     1   109.8000471 387.438400
   4082   4081   4093     1   110.5600475 386.601600
   4082   4081   4083     1   109.7500473 328.025600
   4083   4081   4093     1   110.5600475 386.601600
   4084   4080   4109     1   110.1100470 384.091200
   4084   4096   4097     1   109.8000471 387.438400
   4084   4096   4098     1   109.8000471 387.438400
   4085   4084   4096     1   110.5600475 386.601600
   4085   4084   4086     1   109.7500473 328.025600
   4086   4084   4096     1   110.5600475 386.601600
   4087   4080   4109     1   110.1100470 384.091200
   4087   4090   4091     1   109.8000471 387.438400
   4087   4090   4092     1   109.8000471 387.438400
   4088   4087   4090     1   110.5600475 386.601600
   4088   4087   4089     1   109.7500473 328.025600
   4089   4087   4090     1   110.5600475 386.601600
   4090   4099   4100     1   109.5600471 388.275200
   4090   4099   4101     1   109.5600471 388.275200
   4091   4090   4099     1   109.8000471 387.438400
   4091   4090   4092     1   107.5800459 329.699200
   4092   4090   4099     1   109.8000471 387.438400
   4093   4105   4106     1   109.5600471 388.275200
   4093   4105   4107     1   109.5600471 388.275200
   4094   4093   4105     1   109.8000471 387.438400
   4094   4093   4095     1   107.5800459 329.699200
   4095   4093   4105     1   109.8000471 387.438400
   4096   4102   4103     1   109.5600471 388.275200
   4096   4102   4104     1   109.5600471 388.275200
   4097   4096   4102     1   109.8000471 387.438400
   4097   4096   4098     1   107.5800459 329.699200
   4098   4096   4102     1   109.8000471 387.438400
   4100   4099   4108     1   109.7800468 425.094400
   4100   4099   4101     1   108.4600466 328.025600
   4101   4099   4108     1   109.7800468 425.094400
   4103   4102   8090     1   109.7800468 425.094400
   4103   4102   4104     1   108.4600466 328.025600
   4104   4102   8090     1   109.7800468 425.094400
   4106   4105   8113     1   109.7800468 425.094400
   4106   4105   4107     1   108.4600466 328.025600
   4107   4105   8113     1   109.7800468 425.094400
   4110   4111   4112     1   108.0100461 406.684800
   4110   4111   4113     1   108.0100461 406.684800
   4110   4114   4115     1   108.0100461 406.684800
   4110   4114   4116     1   108.0100461 406.684800
   4110   4117   4118     1   108.0100461 406.684800
   4110   4117   4119     1   108.0100461 406.684800
   4111   4110   4139     1   110.1100470 384.091200
   4111   4123   4124     1   109.8000471 387.438400
   4111   4123   4125     1   109.8000471 387.438400
   4112   4111   4123     1   110.5600475 386.601600
   4112   4111   4113     1   109.7500473 328.025600
   4113   4111   4123     1   110.5600475 386.601600
   4114   4110   4139     1   110.1100470 384.091200
   4114   4126   4127     1   109.8000471 387.438400
   4114   4126   4128     1   109.8000471 387.438400
   4115   4114   4126     1   110.5600475 386.601600
   4115   4114   4116     1   109.7500473 328.025600
   4116   4114   4126     1   110.5600475 386.601600
   4117   4110   4139     1   110.1100470 384.091200
   4117   4120   4121     1   109.8000471 387.438400
   4117   4120   4122     1   109.8000471 387.438400
   4118   4117   4120     1   110.5600475 386.601600
   4118   4117   4119     1   109.7500473 328.025600
   4119   4117   4120     1   110.5600475 386.601600
   4120   4129   4130     1   109.5600471 388.275200
   4120   4129   4131     1   109.5600471 388.275200
   4121   4120   4129     1   109.8000471 387.438400
   4121   4120   4122     1   107.5800459 329.699200
   4122   4120   4129     1   109.8000471 387.438400
   4123   4135   4136     1   109.5600471 388.275200
   4123   4135   4137     1   109.5600471 388.275200
   4124   4123   4135     1   109.8000471 387.438400
   4124   4123   4125     1   107.5800459 329.699200
   4125   4123   4135     1   109.8000471 387.438400
   4126   4132   4133     1   109.5600471 388.275200
   4126   4132   4134     1   109.5600471 388.275200
   4127   4126   4132     1   109.8000471 387.438400
   4127   4126   4128     1   107.5800459 329.699200
   4128   4126   4132     1   109.8000471 387.438400
   4130   4129   4138     1   109.7800468 425.094400
   4130   4129   4131     1   108.4600466 328.025600
   4131   4129   4138     1   109.7800468 425.094400
   4133   4132   8136     1   109.7800468 425.094400
   4133   4132   4134     1   108.4600466 328.025600
   4134   4132   8136     1   109.7800468 425.094400
   4136   4135   8159     1   109.7800468 425.094400
   4136   4135   4137     1   108.4600466 328.025600
   4137   4135   8159     1   109.7800468 425.094400
   4140   4141   4142     1   108.0100461 406.684800
   4140   4141   4143     1   108.0100461 406.684800
   4140   4144   4145     1   108.0100461 406.684800
   4140   4144   4146     1   108.0100461 406.684800
   4140   4147   4148     1   108.0100461 406.684800
   4140   4147   4149     1   108.0100461 406.684800
   4141   4140   4169     1   110.1100470 384.091200
   4141   4153   4154     1   109.8000471 387.438400
   4141   4153   4155     1   109.8000471 387.438400
   4142   4141   4153     1   110.5600475 386.601600
   4142   4141   4143     1   109.7500473 328.025600
   4143   4141   4153     1   110.5600475 386.601600
   4144   4140   4169     1   110.1100470 384.091200
   4144   4156   4157     1   109.8000471 387.438400
   4144   4156   4158     1   109.8000471 387.438400
   4145   4144   4156     1   110.5600475 386.601600
   4145   4144   4146     1   109.7500473 328.025600
   4146   4144   4156     1   110.5600475 386.601600
   4147   4140   4169     1   110.1100470 384.091200
   4147   4150   4151     1   109.8000471 387.438400
   4147   4150   4152     1   109.8000471 387.438400
   4148   4147   4150     1   110.5600475 386.601600
   4148   4147   4149     1   109.7500473 328.025600
   4149   4147   4150     1   110.5600475 386.601600
   4150   4159   4160     1   109.5600471 388.275200
   4150   4159   4161     1   109.5600471 388.275200
   4151   4150   4159     1   109.8000471 387.438400
   4151   4150   4152     1   107.5800459 329.699200
   4152   4150   4159     1   109.8000471 387.438400
   4153   4165   4166     1   109.5600471 388.275200
   4153   4165   4167     1   109.5600471 388.275200
   4154   4153   4165     1   109.8000471 387.438400
   4154   4153   4155     1   107.5800459 329.699200
   4155   4153   4165     1   109.8000471 387.438400
   4156   4162   4163     1   109.5600471 388.275200
   4156   4162   4164     1   109.5600471 388.275200
   4157   4156   4162     1   109.8000471 387.438400
   4157   4156   4158     1   107.5800459 329.699200
   4158   4156   4162     1   109.8000471 387.438400
   4160   4159   4168     1   109.7800468 425.094400
   4160   4159   4161     1   108.4600466 328.025600
   4161   4159   4168     1   109.7800468 425.094400
   4163   4162   8182     1   109.7800468 425.094400
   4163   4162   4164     1   108.4600466 328.025600
   4164   4162   8182     1   109.7800468 425.094400
   4166   4165   8205     1   109.7800468 425.094400
   4166   4165   4167     1   108.4600466 328.025600
   4167   4165   8205     1   109.7800468 425.094400
   4170   4171   4172     1   108.0100461 406.684800
   4170   4171   4173     1   108.0100461 406.684800
   4170   4174   4175     1   108.0100461 406.684800
   4170   4174   4176     1   108.0100461 406.684800
   4170   4177   4178     1   108.0100461 406.684800
   4170   4177   4179     1   108.0100461 406.684800
   4171   4170   4199     1   110.1100470 384.091200
   4171   4183   4184     1   109.8000471 387.438400
   4171   4183   4185     1   109.8000471 387.438400
   4172   4171   4183     1   110.5600475 386.601600
   4172   4171   4173     1   109.7500473 328.025600
   4173   4171   4183     1   110.5600475 386.601600
   4174   4170   4199     1   110.1100470 384.091200
   4174   4186   4187     1   109.8000471 387.438400
   4174   4186   4188     1   109.8000471 387.438400
   4175   4174   4186     1   110.5600475 386.601600
   4175   4174   4176     1   109.7500473 328.025600
   4176   4174   4186     1   110.5600475 386.601600
   4177   4170   4199     1   110.1100470 384.091200
   4177   4180   4181     1   109.8000471 387.438400
   4177   4180   4182     1   109.8000471 387.438400
   4178   4177   4180     1   110.5600475 386.601600
   4178   4177   4179     1   109.7500473 328.025600
   4179   4177   4180     1   110.5600475 386.601600
   4180   4189   4190     1   109.5600471 388.275200
   4180   4189   4191     1   109.5600471 388.275200
   4181   4180   4189     1   109.8000471 387.438400
   4181   4180   4182     1   107.5800459 329.699200
   4182   4180   4189     1   109.8000471 387.438400
   4183   4195   4196     1   109.5600471 388.275200
   4183   4195   4197     1   109.5600471 388.275200
   4184   4183   4195     1   109.8000471 387.438400
   4184   4183   4185     1   107.5800459 329.699200
   4185   4183   4195     1   109.8000471 387.438400
   4186   4192   4193     1   109.5600471 388.275200
   4186   4192   4194     1   109.5600471 388.275200
   4187   4186   4192     1   109.8000471 387.438400
   4187   4186   4188     1   107.5800459 329.699200
   4188   4186   4192     1   109.8000471 387.438400
   4190   4189   4198     1   109.7800468 425.094400
   4190   4189   4191     1   108.4600466 328.025600
   4191   4189   4198     1   109.7800468 425.094400
   4193   4192   8228     1   109.7800468 425.094400
   4193   4192   4194     1   108.4600466 328.025600
   4194   4192   8228     1   109.7800468 425.094400
   4196   4195   8251     1   109.7800468 425.094400
   4196   4195   4197     1   108.4600466 328.025600
   4197   4195   8251     1   109.7800468 425.094400
   4200   4201   4202     1   108.0100461 406.684800
   4200   4201   4203     1   108.0100461 406.684800
   4200   4204   4205     1   108.0100461 406.684800
   4200   4204   4206     1   108.0100461 406.684800
   4200   4207   4208     1   108.0100461 406.684800
   4200   4207   4209     1   108.0100461 406.684800
   4201   4200   4229     1   110.1100470 384.091200
   4201   4213   4214     1   109.8000471 387.438400
   4201   4213   4215     1   109.8000471 387.438400
   4202   4201   4213     1   110.5600475 386.601600
   4202   4201   4203     1   109.7500473 328.025600
   4203   4201   4213     1   110.5600475 386.601600
   4204   4200   4229     1   110.1100470 384.091200
   4204   4216   4217     1   109.8000471 387.438400
   4204   4216   4218     1   109.8000471 387.438400
   4205   4204   4216     1   110.5600475 386.601600
   4205   4204   4206     1   109.7500473 328.025600
   4206   4204   4216     1   110.5600475 386.601600
   4207   4200   4229     1   110.1100470 384.091200
   4207   4210   4211     1   109.8000471 387.438400
   4207   4210   4212     1   109.8000471 387.438400
   4208   4207   4210     1   110.5600475 386.601600
   4208   4207   4209     1   109.7500473 328.025600
   4209   4207   4210     1   110.5600475 386.601600
   4210   4219   4220     1   109.5600471 388.275200
   4210   4219   4221     1   109.5600471 388.275200
   4211   4210   4219     1   109.8000471 387.438400
   4211   4210   4212     1   107.5800459 329.699200
   4212   4210   4219     1   109.8000471 387.438400
   4213   4225   4226     1   109.5600471 388.275200
   4213   4225   4227     1   109.5600471 388.275200
   4214   4213   4225     1   109.8000471 387.438400
   4214   4213   4215     1   107.5800459 329.699200
   4215   4213   4225     1   109.8000471 387.438400
   4216   4222   4223     1   109.5600471 388.275200
   4216   4222   4224     1   109.5600471 388.275200
   4217   4216   4222     1   109.8000471 387.438400
   4217   4216   4218     1   107.5800459 329.699200
   4218   4216   4222     1   109.8000471 387.438400
   4220   4219   4228     1   109.7800468 425.094400
   4220   4219   4221     1   108.4600466 328.025600
   4221   4219   4228     1   109.7800468 425.094400
   4223   4222   8274     1   109.7800468 425.094400
   4223   4222   4224     1   108.4600466 328.025600
   4224   4222   8274     1   109.7800468 425.094400
   4226   4225   8297     1   109.7800468 425.094400
   4226   4225   4227     1   108.4600466 328.025600
   4227   4225   8297     1   109.7800468 425.094400
   4230   4231   4232     1   108.0100461 406.684800
   4230   4231   4233     1   108.0100461 406.684800
   4230   4234   4235     1   108.0100461 406.684800
   4230   4234   4236     1   108.0100461 406.684800
   4230   4237   4238     1   108.0100461 406.684800
   4230   4237   4239     1   108.0100461 406.684800
   4231   4230   4259     1   110.1100470 384.091200
   4231   4243   4244     1   109.8000471 387.438400
   4231   4243   4245     1   109.8000471 387.438400
   4232   4231   4243     1   110.5600475 386.601600
   4232   4231   4233     1   109.7500473 328.025600
   4233   4231   4243     1   110.5600475 386.601600
   4234   4230   4259     1   110.1100470 384.091200
   4234   4246   4247     1   109.8000471 387.438400
   4234   4246   4248     1   109.8000471 387.438400
   4235   4234   4246     1   110.5600475 386.601600
   4235   4234   4236     1   109.7500473 328.025600
   4236   4234   4246     1   110.5600475 386.601600
   4237   4230   4259     1   110.1100470 384.091200
   4237   4240   4241     1   109.8000471 387.438400
   4237   4240   4242     1   109.8000471 387.438400
   4238   4237   4240     1   110.5600475 386.601600
   4238   4237   4239     1   109.7500473 328.025600
   4239   4237   4240     1   110.5600475 386.601600
   4240   4249   4250     1   109.5600471 388.275200
   4240   4249   4251     1   109.5600471 388.275200
   4241   4240   4249     1   109.8000471 387.438400
   4241   4240   4242     1   107.5800459 329.699200
   4242   4240   4249     1   109.8000471 387.438400
   4243   4255   4256     1   109.5600471 388.275200
   4243   4255   4257     1   109.5600471 388.275200
   4244   4243   4255     1   109.8000471 387.438400
   4244   4243   4245     1   107.5800459 329.699200
   4245   4243   4255     1   109.8000471 387.438400
   4246   4252   4253     1   109.5600471 388.275200
   4246   4252   4254     1   109.5600471 388.275200
   4247   4246   4252     1   109.8000471 387.438400
   4247   4246   4248     1   107.5800459 329.699200
   4248   4246   4252     1   109.8000471 387.438400
   4250   4249   4258     1   109.7800468 425.094400
   4250   4249   4251     1   108.4600466 328.025600
   4251   4249   4258     1   109.7800468 425.094400
   4253   4252   8320     1   109.7800468 425.094400
   4253   4252   4254     1   108.4600466 328.025600
   4254   4252   8320     1   109.7800468 425.094400
   4256   4255   8343     1   109.7800468 425.094400
   4256   4255   4257     1   108.4600466 328.025600
   4257   4255   8343     1   109.7800468 425.094400
   4260   4261   4262     1   108.0100461 406.684800
   4260   4261   4263     1   108.0100461 406.684800
   4260   4264   4265     1   108.0100461 406.684800
   4260   4264   4266     1   108.0100461 406.684800
   4260   4267   4268     1   108.0100461 406.684800
   4260   4267   4269     1   108.0100461 406.684800
   4261   4260   4289     1   110.1100470 384.091200
   4261   4273   4274     1   109.8000471 387.438400
   4261   4273   4275     1   109.8000471 387.438400
   4262   4261   4273     1   110.5600475 386.601600
   4262   4261   4263     1   109.7500473 328.025600
   4263   4261   4273     1   110.5600475 386.601600
   4264   4260   4289     1   110.1100470 384.091200
   4264   4276   4277     1   109.8000471 387.438400
   4264   4276   4278     1   109.8000471 387.438400
   4265   4264   4276     1   110.5600475 386.601600
   4265   4264   4266     1   109.7500473 328.025600
   4266   4264   4276     1   110.5600475 386.601600
   4267   4260   4289     1   110.1100470 384.091200
   4267   4270   4271     1   109.8000471 387.438400
   4267   4270   4272     1   109.8000471 387.438400
   4268   4267   4270     1   110.5600475 386.601600
   4268   4267   4269     1   109.7500473 328.025600
   4269   4267   4270     1   110.5600475 386.601600
   4270   4279   4280     1   109.5600471 388.275200
   4270   4279   4281     1   109.5600471 388.275200
   4271   4270   4279     1   109.8000471 387.438400
   4271   4270   4272     1   107.5800459 329.699200
   4272   4270   4279     1   109.8000471 387.438400
   4273   4285   4286     1   109.5600471 388.275200
   4273   4285   4287     1   109.5600471 388.275200
   4274   4273   4285     1   109.8000471 387.438400
   4274   4273   4275     1   107.5800459 329.699200
   4275   4273   4285     1   109.8000471 387.438400
   4276   4282   4283     1   109.5600471 388.275200
   4276   4282   4284     1   109.5600471 388.275200
   4277   4276   4282     1   109.8000471 387.438400
   4277   4276   4278     1   107.5800459 329.699200
   4278   4276   4282     1   109.8000471 387.438400
   4280   4279   4288     1   109.7800468 425.094400
   4280   4279   4281     1   108.4600466 328.025600
   4281   4279   4288     1   109.7800468 425.094400
   4283   4282   8366     1   109.7800468 425.094400
   4283   4282   4284     1   108.4600466 328.025600
   4284   4282   8366     1   109.7800468 425.094400
   4286   4285   8389     1   109.7800468 425.094400
   4286   4285   4287     1   108.4600466 328.025600
   4287   4285   8389     1   109.7800468 425.094400
   4290   4291   4292     1   108.0100461 406.684800
   4290   4291   4293     1   108.0100461 406.684800
   4290   4294   4295     1   108.0100461 406.684800
   4290   4294   4296     1   108.0100461 406.684800
   4290   4297   4298     1   108.0100461 406.684800
   4290   4297   4299     1   108.0100461 406.684800
   4291   4290   4319     1   110.1100470 384.091200
   4291   4303   4304     1   109.8000471 387.438400
   4291   4303   4305     1   109.8000471 387.438400
   4292   4291   4303     1   110.5600475 386.601600
   4292   4291   4293     1   109.7500473 328.025600
   4293   4291   4303     1   110.5600475 386.601600
   4294   4290   4319     1   110.1100470 384.091200
   4294   4306   4307     1   109.8000471 387.438400
   4294   4306   4308     1   109.8000471 387.438400
   4295   4294   4306     1   110.5600475 386.601600
   4295   4294   4296     1   109.7500473 328.025600
   4296   4294   4306     1   110.5600475 386.601600
   4297   4290   4319     1   110.1100470 384.091200
   4297   4300   4301     1   109.8000471 387.438400
   4297   4300   4302     1   109.8000471 387.438400
   4298   4297   4300     1   110.5600475 386.601600
   4298   4297   4299     1   109.7500473 328.025600
   4299   4297   4300     1   110.5600475 386.601600
   4300   4309   4310     1   109.5600471 388.275200
   4300   4309   4311     1   109.5600471 388.275200
   4301   4300   4309     1   109.8000471 387.438400
   4301   4300   4302     1   107.5800459 329.699200
   4302   4300   4309     1   109.8000471 387.438400
   4303   4315   4316     1   109.5600471 388.275200
   4303   4315   4317     1   109.5600471 388.275200
   4304   4303   4315     1   109.8000471 387.438400
   4304   4303   4305     1   107.5800459 329.699200
   4305   4303   4315     1   109.8000471 387.438400
   4306   4312   4313     1   109.5600471 388.275200
   4306   4312   4314     1   109.5600471 388.275200
   4307   4306   4312     1   109.8000471 387.438400
   4307   4306   4308     1   107.5800459 329.699200
   4308   4306   4312     1   109.8000471 387.438400
   4310   4309   4318     1   109.7800468 425.094400
   4310   4309   4311     1   108.4600466 328.025600
   4311   4309   4318     1   109.7800468 425.094400
   4313   4312   8412     1   109.7800468 425.094400
   4313   4312   4314     1   108.4600466 328.025600
   4314   4312   8412     1   109.7800468 425.094400
   4316   4315   8435     1   109.7800468 425.094400
   4316   4315   4317     1   108.4600466 328.025600
   4317   4315   8435     1   109.7800468 425.094400
   4320   4321   4322     1   108.0100461 406.684800
   4320   4321   4323     1   108.0100461 406.684800
   4320   4324   4325     1   108.0100461 406.684800
   4320   4324   4326     1   108.0100461 406.684800
   4320   4327   4328     1   108.0100461 406.684800
   4320   4327   4329     1   108.0100461 406.684800
   4321   4320   4349     1   110.1100470 384.091200
   4321   4333   4334     1   109.8000471 387.438400
   4321   4333   4335     1   109.8000471 387.438400
   4322   4321   4333     1   110.5600475 386.601600
   4322   4321   4323     1   109.7500473 328.025600
   4323   4321   4333     1   110.5600475 386.601600
   4324   4320   4349     1   110.1100470 384.091200
   4324   4336   4337     1   109.8000471 387.438400
   4324   4336   4338     1   109.8000471 387.438400
   4325   4324   4336     1   110.5600475 386.601600
   4325   4324   4326     1   109.7500473 328.025600
   4326   4324   4336     1   110.5600475 386.601600
   4327   4320   4349     1   110.1100470 384.091200
   4327   4330   4331     1   109.8000471 387.438400
   4327   4330   4332     1   109.8000471 387.438400
   4328   4327   4330     1   110.5600475 386.601600
   4328   4327   4329     1   109.7500473 328.025600
   4329   4327   4330     1   110.5600475 386.601600
   4330   4339   4340     1   109.5600471 388.275200
   4330   4339   4341     1   109.5600471 388.275200
   4331   4330   4339     1   109.8000471 387.438400
   4331   4330   4332     1   107.5800459 329.699200
   4332   4330   4339     1   109.8000471 387.438400
   4333   4345   4346     1   109.5600471 388.275200
   4333   4345   4347     1   109.5600471 388.275200
   4334   4333   4345     1   109.8000471 387.438400
   4334   4333   4335     1   107.5800459 329.699200
   4335   4333   4345     1   109.8000471 387.438400
   4336   4342   4343     1   109.5600471 388.275200
   4336   4342   4344     1   109.5600471 388.275200
   4337   4336   4342     1   109.8000471 387.438400
   4337   4336   4338     1   107.5800459 329.699200
   4338   4336   4342     1   109.8000471 387.438400
   4340   4339   4348     1   109.7800468 425.094400
   4340   4339   4341     1   108.4600466 328.025600
   4341   4339   4348     1   109.7800468 425.094400
   4343   4342   8458     1   109.7800468 425.094400
   4343   4342   4344     1   108.4600466 328.025600
   4344   4342   8458     1   109.7800468 425.094400
   4346   4345   8481     1   109.7800468 425.094400
   4346   4345   4347     1   108.4600466 328.025600
   4347   4345   8481     1   109.7800468 425.094400
   4350   4351   4352     1   108.0100461 406.684800
   4350   4351   4353     1   108.0100461 406.684800
   4350   4354   4355     1   108.0100461 406.684800
   4350   4354   4356     1   108.0100461 406.684800
   4350   4357   4358     1   108.0100461 406.684800
   4350   4357   4359     1   108.0100461 406.684800
   4351   4350   4379     1   110.1100470 384.091200
   4351   4363   4364     1   109.8000471 387.438400
   4351   4363   4365     1   109.8000471 387.438400
   4352   4351   4363     1   110.5600475 386.601600
   4352   4351   4353     1   109.7500473 328.025600
   4353   4351   4363     1   110.5600475 386.601600
   4354   4350   4379     1   110.1100470 384.091200
   4354   4366   4367     1   109.8000471 387.438400
   4354   4366   4368     1   109.8000471 387.438400
   4355   4354   4366     1   110.5600475 386.601600
   4355   4354   4356     1   109.7500473 328.025600
   4356   4354   4366     1   110.5600475 386.601600
   4357   4350   4379     1   110.1100470 384.091200
   4357   4360   4361     1   109.8000471 387.438400
   4357   4360   4362     1   109.8000471 387.438400
   4358   4357   4360     1   110.5600475 386.601600
   4358   4357   4359     1   109.7500473 328.025600
   4359   4357   4360     1   110.5600475 386.601600
   4360   4369   4370     1   109.5600471 388.275200
   4360   4369   4371     1   109.5600471 388.275200
   4361   4360   4369     1   109.8000471 387.438400
   4361   4360   4362     1   107.5800459 329.699200
   4362   4360   4369     1   109.8000471 387.438400
   4363   4375   4376     1   109.5600471 388.275200
   4363   4375   4377     1   109.5600471 388.275200
   4364   4363   4375     1   109.8000471 387.438400
   4364   4363   4365     1   107.5800459 329.699200
   4365   4363   4375     1   109.8000471 387.438400
   4366   4372   4373     1   109.5600471 388.275200
   4366   4372   4374     1   109.5600471 388.275200
   4367   4366   4372     1   109.8000471 387.438400
   4367   4366   4368     1   107.5800459 329.699200
   4368   4366   4372     1   109.8000471 387.438400
   4370   4369   4378     1   109.7800468 425.094400
   4370   4369   4371     1   108.4600466 328.025600
   4371   4369   4378     1   109.7800468 425.094400
   4373   4372   8504     1   109.7800468 425.094400
   4373   4372   4374     1   108.4600466 328.025600
   4374   4372   8504     1   109.7800468 425.094400
   4376   4375   8527     1   109.7800468 425.094400
   4376   4375   4377     1   108.4600466 328.025600
   4377   4375   8527     1   109.7800468 425.094400
   4380   4381   4382     1   108.0100461 406.684800
   4380   4381   4383     1   108.0100461 406.684800
   4380   4384   4385     1   108.0100461 406.684800
   4380   4384   4386     1   108.0100461 406.684800
   4380   4387   4388     1   108.0100461 406.684800
   4380   4387   4389     1   108.0100461 406.684800
   4381   4380   4409     1   110.1100470 384.091200
   4381   4393   4394     1   109.8000471 387.438400
   4381   4393   4395     1   109.8000471 387.438400
   4382   4381   4393     1   110.5600475 386.601600
   4382   4381   4383     1   109.7500473 328.025600
   4383   4381   4393     1   110.5600475 386.601600
   4384   4380   4409     1   110.1100470 384.091200
   4384   4396   4397     1   109.8000471 387.438400
   4384   4396   4398     1   109.8000471 387.438400
   4385   4384   4396     1   110.5600475 386.601600
   4385   4384   4386     1   109.7500473 328.025600
   4386   4384   4396     1   110.5600475 386.601600
   4387   4380   4409     1   110.1100470 384.091200
   4387   4390   4391     1   109.8000471 387.438400
   4387   4390   4392     1   109.8000471 387.438400
   4388   4387   4390     1   110.5600475 386.601600
   4388   4387   4389     1   109.7500473 328.025600
   4389   4387   4390     1   110.5600475 386.601600
   4390   4399   4400     1   109.5600471 388.275200
   4390   4399   4401     1   109.5600471 388.275200
   4391   4390   4399     1   109.8000471 387.438400
   4391   4390   4392     1   107.5800459 329.699200
   4392   4390   4399     1   109.8000471 387.438400
   4393   4405   4406     1   109.5600471 388.275200
   4393   4405   4407     1   109.5600471 388.275200
   4394   4393   4405     1   109.8000471 387.438400
   4394   4393   4395     1   107.5800459 329.699200
   4395   4393   4405     1   109.8000471 387.438400
   4396   4402   4403     1   109.5600471 388.275200
   4396   4402   4404     1   109.5600471 388.275200
   4397   4396   4402     1   109.8000471 387.438400
   4397   4396   4398     1   107.5800459 329.699200
   4398   4396   4402     1   109.8000471 387.438400
   4400   4399   4408     1   109.7800468 425.094400
   4400   4399   4401     1   108.4600466 328.025600
   4401   4399   4408     1   109.7800468 425.094400
   4403   4402   8550     1   109.7800468 425.094400
   4403   4402   4404     1   108.4600466 328.025600
   4404   4402   8550     1   109.7800468 425.094400
   4406   4405   8573     1   109.7800468 425.094400
   4406   4405   4407     1   108.4600466 328.025600
   4407   4405   8573     1   109.7800468 425.094400
   4410   4411   4412     1   108.0100461 406.684800
   4410   4411   4413     1   108.0100461 406.684800
   4410   4414   4415     1   108.0100461 406.684800
   4410   4414   4416     1   108.0100461 406.684800
   4410   4417   4418     1   108.0100461 406.684800
   4410   4417   4419     1   108.0100461 406.684800
   4411   4410   4439     1   110.1100470 384.091200
   4411   4423   4424     1   109.8000471 387.438400
   4411   4423   4425     1   109.8000471 387.438400
   4412   4411   4423     1   110.5600475 386.601600
   4412   4411   4413     1   109.7500473 328.025600
   4413   4411   4423     1   110.5600475 386.601600
   4414   4410   4439     1   110.1100470 384.091200
   4414   4426   4427     1   109.8000471 387.438400
   4414   4426   4428     1   109.8000471 387.438400
   4415   4414   4426     1   110.5600475 386.601600
   4415   4414   4416     1   109.7500473 328.025600
   4416   4414   4426     1   110.5600475 386.601600
   4417   4410   4439     1   110.1100470 384.091200
   4417   4420   4421     1   109.8000471 387.438400
   4417   4420   4422     1   109.8000471 387.438400
   4418   4417   4420     1   110.5600475 386.601600
   4418   4417   4419     1   109.7500473 328.025600
   4419   4417   4420     1   110.5600475 386.601600
   4420   4429   4430     1   109.5600471 388.275200
   4420   4429   4431     1   109.5600471 388.275200
   4421   4420   4429     1   109.8000471 387.438400
   4421   4420   4422     1   107.5800459 329.699200
   4422   4420   4429     1   109.8000471 387.438400
   4423   4435   4436     1   109.5600471 388.275200
   4423   4435   4437     1   109.5600471 388.275200
   4424   4423   4435     1   109.8000471 387.438400
   4424   4423   4425     1   107.5800459 329.699200
   4425   4423   4435     1   109.8000471 387.438400
   4426   4432   4433     1   109.5600471 388.275200
   4426   4432   4434     1   109.5600471 388.275200
   4427   4426   4432     1   109.8000471 387.438400
   4427   4426   4428     1   107.5800459 329.699200
   4428   4426   4432     1   109.8000471 387.438400
   4430   4429   4438     1   109.7800468 425.094400
   4430   4429   4431     1   108.4600466 328.025600
   4431   4429   4438     1   109.7800468 425.094400
   4433   4432   8596     1   109.7800468 425.094400
   4433   4432   4434     1   108.4600466 328.025600
   4434   4432   8596     1   109.7800468 425.094400
   4436   4435   8619     1   109.7800468 425.094400
   4436   4435   4437     1   108.4600466 328.025600
   4437   4435   8619     1   109.7800468 425.094400
   4440   4441   4442     1   108.0100461 406.684800
   4440   4441   4443     1   108.0100461 406.684800
   4440   4444   4445     1   108.0100461 406.684800
   4440   4444   4446     1   108.0100461 406.684800
   4440   4447   4448     1   108.0100461 406.684800
   4440   4447   4449     1   108.0100461 406.684800
   4441   4440   4469     1   110.1100470 384.091200
   4441   4453   4454     1   109.8000471 387.438400
   4441   4453   4455     1   109.8000471 387.438400
   4442   4441   4453     1   110.5600475 386.601600
   4442   4441   4443     1   109.7500473 328.025600
   4443   4441   4453     1   110.5600475 386.601600
   4444   4440   4469     1   110.1100470 384.091200
   4444   4456   4457     1   109.8000471 387.438400
   4444   4456   4458     1   109.8000471 387.438400
   4445   4444   4456     1   110.5600475 386.601600
   4445   4444   4446     1   109.7500473 328.025600
   4446   4444   4456     1   110.5600475 386.601600
   4447   4440   4469     1   110.1100470 384.091200
   4447   4450   4451     1   109.8000471 387.438400
   4447   4450   4452     1   109.8000471 387.438400
   4448   4447   4450     1   110.5600475 386.601600
   4448   4447   4449     1   109.7500473 328.025600
   4449   4447   4450     1   110.5600475 386.601600
   4450   4459   4460     1   109.5600471 388.275200
   4450   4459   4461     1   109.5600471 388.275200
   4451   4450   4459     1   109.8000471 387.438400
   4451   4450   4452     1   107.5800459 329.699200
   4452   4450   4459     1   109.8000471 387.438400
   4453   4465   4466     1   109.5600471 388.275200
   4453   4465   4467     1   109.5600471 388.275200
   4454   4453   4465     1   109.8000471 387.438400
   4454   4453   4455     1   107.5800459 329.699200
   4455   4453   4465     1   109.8000471 387.438400
   4456   4462   4463     1   109.5600471 388.275200
   4456   4462   4464     1   109.5600471 388.275200
   4457   4456   4462     1   109.8000471 387.438400
   4457   4456   4458     1   107.5800459 329.699200
   4458   4456   4462     1   109.8000471 387.438400
   4460   4459   4468     1   109.7800468 425.094400
   4460   4459   4461     1   108.4600466 328.025600
   4461   4459   4468     1   109.7800468 425.094400
   4463   4462   8642     1   109.7800468 425.094400
   4463   4462   4464     1   108.4600466 328.025600
   4464   4462   8642     1   109.7800468 425.094400
   4466   4465   8665     1   109.7800468 425.094400
   4466   4465   4467     1   108.4600466 328.025600
   4467   4465   8665     1   109.7800468 425.094400
   4470   4471   4472     1   108.0100461 406.684800
   4470   4471   4473     1   108.0100461 406.684800
   4470   4474   4475     1   108.0100461 406.684800
   4470   4474   4476     1   108.0100461 406.684800
   4470   4477   4478     1   108.0100461 406.684800
   4470   4477   4479     1   108.0100461 406.684800
   4471   4470   4499     1   110.1100470 384.091200
   4471   4483   4484     1   109.8000471 387.438400
   4471   4483   4485     1   109.8000471 387.438400
   4472   4471   4483     1   110.5600475 386.601600
   4472   4471   4473     1   109.7500473 328.025600
   4473   4471   4483     1   110.5600475 386.601600
   4474   4470   4499     1   110.1100470 384.091200
   4474   4486   4487     1   109.8000471 387.438400
   4474   4486   4488     1   109.8000471 387.438400
   4475   4474   4486     1   110.5600475 386.601600
   4475   4474   4476     1   109.7500473 328.025600
   4476   4474   4486     1   110.5600475 386.601600
   4477   4470   4499     1   110.1100470 384.091200
   4477   4480   4481     1   109.8000471 387.438400
   4477   4480   4482     1   109.8000471 387.438400
   4478   4477   4480     1   110.5600475 386.601600
   4478   4477   4479     1   109.7500473 328.025600
   4479   4477   4480     1   110.5600475 386.601600
   4480   4489   4490     1   109.5600471 388.275200
   4480   4489   4491     1   109.5600471 388.275200
   4481   4480   4489     1   109.8000471 387.438400
   4481   4480   4482     1   107.5800459 329.699200
   4482   4480   4489     1   109.8000471 387.438400
   4483   4495   4496     1   109.5600471 388.275200
   4483   4495   4497     1   109.5600471 388.275200
   4484   4483   4495     1   109.8000471 387.438400
   4484   4483   4485     1   107.5800459 329.699200
   4485   4483   4495     1   109.8000471 387.438400
   4486   4492   4493     1   109.5600471 388.275200
   4486   4492   4494     1   109.5600471 388.275200
   4487   4486   4492     1   109.8000471 387.438400
   4487   4486   4488     1   107.5800459 329.699200
   4488   4486   4492     1   109.8000471 387.438400
   4490   4489   4498     1   109.7800468 425.094400
   4490   4489   4491     1   108.4600466 328.025600
   4491   4489   4498     1   109.7800468 425.094400
   4493   4492   8688     1   109.7800468 425.094400
   4493   4492   4494     1   108.4600466 328.025600
   4494   4492   8688     1   109.7800468 425.094400
   4496   4495   8711     1   109.7800468 425.094400
   4496   4495   4497     1   108.4600466 328.025600
   4497   4495   8711     1   109.7800468 425.094400
   4500   4501   4502     1   108.0100461 406.684800
   4500   4501   4503     1   108.0100461 406.684800
   4500   4504   4505     1   108.0100461 406.684800
   4500   4504   4506     1   108.0100461 406.684800
   4500   4507   4508     1   108.0100461 406.684800
   4500   4507   4509     1   108.0100461 406.684800
   4501   4500   4529     1   110.1100470 384.091200
   4501   4513   4514     1   109.8000471 387.438400
   4501   4513   4515     1   109.8000471 387.438400
   4502   4501   4513     1   110.5600475 386.601600
   4502   4501   4503     1   109.7500473 328.025600
   4503   4501   4513     1   110.5600475 386.601600
   4504   4500   4529     1   110.1100470 384.091200
   4504   4516   4517     1   109.8000471 387.438400
   4504   4516   4518     1   109.8000471 387.438400
   4505   4504   4516     1   110.5600475 386.601600
   4505   4504   4506     1   109.7500473 328.025600
   4506   4504   4516     1   110.5600475 386.601600
   4507   4500   4529     1   110.1100470 384.091200
   4507   4510   4511     1   109.8000471 387.438400
   4507   4510   4512     1   109.8000471 387.438400
   4508   4507   4510     1   110.5600475 386.601600
   4508   4507   4509     1   109.7500473 328.025600
   4509   4507   4510     1   110.5600475 386.601600
   4510   4519   4520     1   109.5600471 388.275200
   4510   4519   4521     1   109.5600471 388.275200
   4511   4510   4519     1   109.8000471 387.438400
   4511   4510   4512     1   107.5800459 329.699200
   4512   4510   4519     1   109.8000471 387.438400
   4513   4525   4526     1   109.5600471 388.275200
   4513   4525   4527     1   109.5600471 388.275200
   4514   4513   4525     1   109.8000471 387.438400
   4514   4513   4515     1   107.5800459 329.699200
   4515   4513   4525     1   109.8000471 387.438400
   4516   4522   4523     1   109.5600471 388.275200
   4516   4522   4524     1   109.5600471 388.275200
   4517   4516   4522     1   109.8000471 387.438400
   4517   4516   4518     1   107.5800459 329.699200
   4518   4516   4522     1   109.8000471 387.438400
   4520   4519   4528     1   109.7800468 425.094400
   4520   4519   4521     1   108.4600466 328.025600
   4521   4519   4528     1   109.7800468 425.094400
   4523   4522   8734     1   109.7800468 425.094400
   4523   4522   4524     1   108.4600466 328.025600
   4524   4522   8734     1   109.7800468 425.094400
   4526   4525   8757     1   109.7800468 425.094400
   4526   4525   4527     1   108.4600466 328.025600
   4527   4525   8757     1   109.7800468 425.094400
   4530   4531   4532     1   108.0100461 406.684800
   4530   4531   4533     1   108.0100461 406.684800
   4530   4534   4535     1   108.0100461 406.684800
   4530   4534   4536     1   108.0100461 406.684800
   4530   4537   4538     1   108.0100461 406.684800
   4530   4537   4539     1   108.0100461 406.684800
   4531   4530   4559     1   110.1100470 384.091200
   4531   4543   4544     1   109.8000471 387.438400
   4531   4543   4545     1   109.8000471 387.438400
   4532   4531   4543     1   110.5600475 386.601600
   4532   4531   4533     1   109.7500473 328.025600
   4533   4531   4543     1   110.5600475 386.601600
   4534   4530   4559     1   110.1100470 384.091200
   4534   4546   4547     1   109.8000471 387.438400
   4534   4546   4548     1   109.8000471 387.438400
   4535   4534   4546     1   110.5600475 386.601600
   4535   4534   4536     1   109.7500473 328.025600
   4536   4534   4546     1   110.5600475 386.601600
   4537   4530   4559     1   110.1100470 384.091200
   4537   4540   4541     1   109.8000471 387.438400
   4537   4540   4542     1   109.8000471 387.438400
   4538   4537   4540     1   110.5600475 386.601600
   4538   4537   4539     1   109.7500473 328.025600
   4539   4537   4540     1   110.5600475 386.601600
   4540   4549   4550     1   109.5600471 388.275200
   4540   4549   4551     1   109.5600471 388.275200
   4541   4540   4549     1   109.8000471 387.438400
   4541   4540   4542     1   107.5800459 329.699200
   4542   4540   4549     1   109.8000471 387.438400
   4543   4555   4556     1   109.5600471 388.275200
   4543   4555   4557     1   109.5600471 388.275200
   4544   4543   4555     1   109.8000471 387.438400
   4544   4543   4545     1   107.5800459 329.699200
   4545   4543   4555     1   109.8000471 387.438400
   4546   4552   4553     1   109.5600471 388.275200
   4546   4552   4554     1   109.5600471 388.275200
   4547   4546   4552     1   109.8000471 387.438400
   4547   4546   4548     1   107.5800459 329.699200
   4548   4546   4552     1   109.8000471 387.438400
   4550   4549   4558     1   109.7800468 425.094400
   4550   4549   4551     1   108.4600466 328.025600
   4551   4549   4558     1   109.7800468 425.094400
   4553   4552   8780     1   109.7800468 425.094400
   4553   4552   4554     1   108.4600466 328.025600
   4554   4552   8780     1   109.7800468 425.094400
   4556   4555   8803     1   109.7800468 425.094400
   4556   4555   4557     1   108.4600466 328.025600
   4557   4555   8803     1   109.7800468 425.094400
   4560   4561   4562     1   108.0100461 406.684800
   4560   4561   4563     1   108.0100461 406.684800
   4560   4564   4565     1   108.0100461 406.684800
   4560   4564   4566     1   108.0100461 406.684800
   4560   4567   4568     1   108.0100461 406.684800
   4560   4567   4569     1   108.0100461 406.684800
   4561   4560   4589     1   110.1100470 384.091200
   4561   4573   4574     1   109.8000471 387.438400
   4561   4573   4575     1   109.8000471 387.438400
   4562   4561   4573     1   110.5600475 386.601600
   4562   4561   4563     1   109.7500473 328.025600
   4563   4561   4573     1   110.5600475 386.601600
   4564   4560   4589     1   110.1100470 384.091200
   4564   4576   4577     1   109.8000471 387.438400
   4564   4576   4578     1   109.8000471 387.438400
   4565   4564   4576     1   110.5600475 386.601600
   4565   4564   4566     1   109.7500473 328.025600
   4566   4564   4576     1   110.5600475 386.601600
   4567   4560   4589     1   110.1100470 384.091200
   4567   4570   4571     1   109.8000471 387.438400
   4567   4570   4572     1   109.8000471 387.438400
   4568   4567   4570     1   110.5600475 386.601600
   4568   4567   4569     1   109.7500473 328.025600
   4569   4567   4570     1   110.5600475 386.601600
   4570   4579   4580     1   109.5600471 388.275200
   4570   4579   4581     1   109.5600471 388.275200
   4571   4570   4579     1   109.8000471 387.438400
   4571   4570   4572     1   107.5800459 329.699200
   4572   4570   4579     1   109.8000471 387.438400
   4573   4585   4586     1   109.5600471 388.275200
   4573   4585   4587     1   109.5600471 388.275200
   4574   4573   4585     1   109.8000471 387.438400
   4574   4573   4575     1   107.5800459 329.699200
   4575   4573   4585     1   109.8000471 387.438400
   4576   4582   4583     1   109.5600471 388.275200
   4576   4582   4584     1   109.5600471 388.275200
   4577   4576   4582     1   109.8000471 387.438400
   4577   4576   4578     1   107.5800459 329.699200
   4578   4576   4582     1   109.8000471 387.438400
   4580   4579   4588     1   109.7800468 425.094400
   4580   4579   4581     1   108.4600466 328.025600
   4581   4579   4588     1   109.7800468 425.094400
   4583   4582   8826     1   109.7800468 425.094400
   4583   4582   4584     1   108.4600466 328.025600
   4584   4582   8826     1   109.7800468 425.094400
   4586   4585   8849     1   109.7800468 425.094400
   4586   4585   4587     1   108.4600466 328.025600
   4587   4585   8849     1   109.7800468 425.094400
   4590   4591   4592     1   108.0100461 406.684800
   4590   4591   4593     1   108.0100461 406.684800
   4590   4594   4595     1   108.0100461 406.684800
   4590   4594   4596     1   108.0100461 406.684800
   4590   4597   4598     1   108.0100461 406.684800
   4590   4597   4599     1   108.0100461 406.684800
   4591   4590   4619     1   110.1100470 384.091200
   4591   4603   4604     1   109.8000471 387.438400
   4591   4603   4605     1   109.8000471 387.438400
   4592   4591   4603     1   110.5600475 386.601600
   4592   4591   4593     1   109.7500473 328.025600
   4593   4591   4603     1   110.5600475 386.601600
   4594   4590   4619     1   110.1100470 384.091200
   4594   4606   4607     1   109.8000471 387.438400
   4594   4606   4608     1   109.8000471 387.438400
   4595   4594   4606     1   110.5600475 386.601600
   4595   4594   4596     1   109.7500473 328.025600
   4596   4594   4606     1   110.5600475 386.601600
   4597   4590   4619     1   110.1100470 384.091200
   4597   4600   4601     1   109.8000471 387.438400
   4597   4600   4602     1   109.8000471 387.438400
   4598   4597   4600     1   110.5600475 386.601600
   4598   4597   4599     1   109.7500473 328.025600
   4599   4597   4600     1   110.5600475 386.601600
   4600   4609   4610     1   109.5600471 388.275200
   4600   4609   4611     1   109.5600471 388.275200
   4601   4600   4609     1   109.8000471 387.438400
   4601   4600   4602     1   107.5800459 329.699200
   4602   4600   4609     1   109.8000471 387.438400
   4603   4615   4616     1   109.5600471 388.275200
   4603   4615   4617     1   109.5600471 388.275200
   4604   4603   4615     1   109.8000471 387.438400
   4604   4603   4605     1   107.5800459 329.699200
   4605   4603   4615     1   109.8000471 387.438400
   4606   4612   4613     1   109.5600471 388.275200
   4606   4612   4614     1   109.5600471 388.275200
   4607   4606   4612     1   109.8000471 387.438400
   4607   4606   4608     1   107.5800459 329.699200
   4608   4606   4612     1   109.8000471 387.438400
   4610   4609   4618     1   109.7800468 425.094400
   4610   4609   4611     1   108.4600466 328.025600
   4611   4609   4618     1   109.7800468 425.094400
   4613   4612   8872     1   109.7800468 425.094400
   4613   4612   4614     1   108.4600466 328.025600
   4614   4612   8872     1   109.7800468 425.094400
   4616   4615   8895     1   109.7800468 425.094400
   4616   4615   4617     1   108.4600466 328.025600
   4617   4615   8895     1   109.7800468 425.094400
   4620   4621   4622     1   108.0100461 406.684800
   4620   4621   4623     1   108.0100461 406.684800
   4620   4624   4625     1   108.0100461 406.684800
   4620   4624   4626     1   108.0100461 406.684800
   4620   4627   4628     1   108.0100461 406.684800
   4620   4627   4629     1   108.0100461 406.684800
   4621   4620   4649     1   110.1100470 384.091200
   4621   4633   4634     1   109.8000471 387.438400
   4621   4633   4635     1   109.8000471 387.438400
   4622   4621   4633     1   110.5600475 386.601600
   4622   4621   4623     1   109.7500473 328.025600
   4623   4621   4633     1   110.5600475 386.601600
   4624   4620   4649     1   110.1100470 384.091200
   4624   4636   4637     1   109.8000471 387.438400
   4624   4636   4638     1   109.8000471 387.438400
   4625   4624   4636     1   110.5600475 386.601600
   4625   4624   4626     1   109.7500473 328.025600
   4626   4624   4636     1   110.5600475 386.601600
   4627   4620   4649     1   110.1100470 384.091200
   4627   4630   4631     1   109.8000471 387.438400
   4627   4630   4632     1   109.8000471 387.438400
   4628   4627   4630     1   110.5600475 386.601600
   4628   4627   4629     1   109.7500473 328.025600
   4629   4627   4630     1   110.5600475 386.601600
   4630   4639   4640     1   109.5600471 388.275200
   4630   4639   4641     1   109.5600471 388.275200
   4631   4630   4639     1   109.8000471 387.438400
   4631   4630   4632     1   107.5800459 329.699200
   4632   4630   4639     1   109.8000471 387.438400
   4633   4645   4646     1   109.5600471 388.275200
   4633   4645   4647     1   109.5600471 388.275200
   4634   4633   4645     1   109.8000471 387.438400
   4634   4633   4635     1   107.5800459 329.699200
   4635   4633   4645     1   109.8000471 387.438400
   4636   4642   4643     1   109.5600471 388.275200
   4636   4642   4644     1   109.5600471 388.275200
   4637   4636   4642     1   109.8000471 387.438400
   4637   4636   4638     1   107.5800459 329.699200
   4638   4636   4642     1   109.8000471 387.438400
   4640   4639   4648     1   109.7800468 425.094400
   4640   4639   4641     1   108.4600466 328.025600
   4641   4639   4648     1   109.7800468 425.094400
   4643   4642   8918     1   109.7800468 425.094400
   4643   4642   4644     1   108.4600466 328.025600
   4644   4642   8918     1   109.7800468 425.094400
   4646   4645   8941     1   109.7800468 425.094400
   4646   4645   4647     1   108.4600466 328.025600
   4647   4645   8941     1   109.7800468 425.094400
   4650   4651   4652     1   108.0100461 406.684800
   4650   4651   4653     1   108.0100461 406.684800
   4650   4654   4655     1   108.0100461 406.684800
   4650   4654   4656     1   108.0100461 406.684800
   4650   4657   4658     1   108.0100461 406.684800
   4650   4657   4659     1   108.0100461 406.684800
   4651   4650   4679     1   110.1100470 384.091200
   4651   4663   4664     1   109.8000471 387.438400
   4651   4663   4665     1   109.8000471 387.438400
   4652   4651   4663     1   110.5600475 386.601600
   4652   4651   4653     1   109.7500473 328.025600
   4653   4651   4663     1   110.5600475 386.601600
   4654   4650   4679     1   110.1100470 384.091200
   4654   4666   4667     1   109.8000471 387.438400
   4654   4666   4668     1   109.8000471 387.438400
   4655   4654   4666     1   110.5600475 386.601600
   4655   4654   4656     1   109.7500473 328.025600
   4656   4654   4666     1   110.5600475 386.601600
   4657   4650   4679     1   110.1100470 384.091200
   4657   4660   4661     1   109.8000471 387.438400
   4657   4660   4662     1   109.8000471 387.438400
   4658   4657   4660     1   110.5600475 386.601600
   4658   4657   4659     1   109.7500473 328.025600
   4659   4657   4660     1   110.5600475 386.601600
   4660   4669   4670     1   109.5600471 388.275200
   4660   4669   4671     1   109.5600471 388.275200
   4661   4660   4669     1   109.8000471 387.438400
   4661   4660   4662     1   107.5800459 329.699200
   4662   4660   4669     1   109.8000471 387.438400
   4663   4675   4676     1   109.5600471 388.275200
   4663   4675   4677     1   109.5600471 388.275200
   4664   4663   4675     1   109.8000471 387.438400
   4664   4663   4665     1   107.5800459 329.699200
   4665   4663   4675     1   109.8000471 387.438400
   4666   4672   4673     1   109.5600471 388.275200
   4666   4672   4674     1   109.5600471 388.275200
   4667   4666   4672     1   109.8000471 387.438400
   4667   4666   4668     1   107.5800459 329.699200
   4668   4666   4672     1   109.8000471 387.438400
   4670   4669   4678     1   109.7800468 425.094400
   4670   4669   4671     1   108.4600466 328.025600
   4671   4669   4678     1   109.7800468 425.094400
   4673   4672   8964     1   109.7800468 425.094400
   4673   4672   4674     1   108.4600466 328.025600
   4674   4672   8964     1   109.7800468 425.094400
   4676   4675   8987     1   109.7800468 425.094400
   4676   4675   4677     1   108.4600466 328.025600
   4677   4675   8987     1   109.7800468 425.094400
   4680   4681   4682     1   108.0100461 406.684800
   4680   4681   4683     1   108.0100461 406.684800
   4680   4684   4685     1   108.0100461 406.684800
   4680   4684   4686     1   108.0100461 406.684800
   4680   4687   4688     1   108.0100461 406.684800
   4680   4687   4689     1   108.0100461 406.684800
   4681   4680   4709     1   110.1100470 384.091200
   4681   4693   4694     1   109.8000471 387.438400
   4681   4693   4695     1   109.8000471 387.438400
   4682   4681   4693     1   110.5600475 386.601600
   4682   4681   4683     1   109.7500473 328.025600
   4683   4681   4693     1   110.5600475 386.601600
   4684   4680   4709     1   110.1100470 384.091200
   4684   4696   4697     1   109.8000471 387.438400
   4684   4696   4698     1   109.8000471 387.438400
   4685   4684   4696     1   110.5600475 386.601600
   4685   4684   4686     1   109.7500473 328.025600
   4686   4684   4696     1   110.5600475 386.601600
   4687   4680   4709     1   110.1100470 384.091200
   4687   4690   4691     1   109.8000471 387.438400
   4687   4690   4692     1   109.8000471 387.438400
   4688   4687   4690     1   110.5600475 386.601600
   4688   4687   4689     1   109.7500473 328.025600
   4689   4687   4690     1   110.5600475 386.601600
   4690   4699   4700     1   109.5600471 388.275200
   4690   4699   4701     1   109.5600471 388.275200
   4691   4690   4699     1   109.8000471 387.438400
   4691   4690   4692     1   107.5800459 329.699200
   4692   4690   4699     1   109.8000471 387.438400
   4693   4705   4706     1   109.5600471 388.275200
   4693   4705   4707     1   109.5600471 388.275200
   4694   4693   4705     1   109.8000471 387.438400
   4694   4693   4695     1   107.5800459 329.699200
   4695   4693   4705     1   109.8000471 387.438400
   4696   4702   4703     1   109.5600471 388.275200
   4696   4702   4704     1   109.5600471 388.275200
   4697   4696   4702     1   109.8000471 387.438400
   4697   4696   4698     1   107.5800459 329.699200
   4698   4696   4702     1   109.8000471 387.438400
   4700   4699   4708     1   109.7800468 425.094400
   4700   4699   4701     1   108.4600466 328.025600
   4701   4699   4708     1   109.7800468 425.094400
   4703   4702   9010     1   109.7800468 425.094400
   4703   4702   4704     1   108.4600466 328.025600
   4704   4702   9010     1   109.7800468 425.094400
   4706   4705   9033     1   109.7800468 425.094400
   4706   4705   4707     1   108.4600466 328.025600
   4707   4705   9033     1   109.7800468 425.094400
   4710   4711   4712     1   108.0100461 406.684800
   4710   4711   4713     1   108.0100461 406.684800
   4710   4714   4715     1   108.0100461 406.684800
   4710   4714   4716     1   108.0100461 406.684800
   4710   4717   4718     1   108.0100461 406.684800
   4710   4717   4719     1   108.0100461 406.684800
   4711   4710   4739     1   110.1100470 384.091200
   4711   4723   4724     1   109.8000471 387.438400
   4711   4723   4725     1   109.8000471 387.438400
   4712   4711   4723     1   110.5600475 386.601600
   4712   4711   4713     1   109.7500473 328.025600
   4713   4711   4723     1   110.5600475 386.601600
   4714   4710   4739     1   110.1100470 384.091200
   4714   4726   4727     1   109.8000471 387.438400
   4714   4726   4728     1   109.8000471 387.438400
   4715   4714   4726     1   110.5600475 386.601600
   4715   4714   4716     1   109.7500473 328.025600
   4716   4714   4726     1   110.5600475 386.601600
   4717   4710   4739     1   110.1100470 384.091200
   4717   4720   4721     1   109.8000471 387.438400
   4717   4720   4722     1   109.8000471 387.438400
   4718   4717   4720     1   110.5600475 386.601600
   4718   4717   4719     1   109.7500473 328.025600
   4719   4717   4720     1   110.5600475 386.601600
   4720   4729   4730     1   109.5600471 388.275200
   4720   4729   4731     1   109.5600471 388.275200
   4721   4720   4729     1   109.8000471 387.438400
   4721   4720   4722     1   107.5800459 329.699200
   4722   4720   4729     1   109.8000471 387.438400
   4723   4735   4736     1   109.5600471 388.275200
   4723   4735   4737     1   109.5600471 388.275200
   4724   4723   4735     1   109.8000471 387.438400
   4724   4723   4725     1   107.5800459 329.699200
   4725   4723   4735     1   109.8000471 387.438400
   4726   4732   4733     1   109.5600471 388.275200
   4726   4732   4734     1   109.5600471 388.275200
   4727   4726   4732     1   109.8000471 387.438400
   4727   4726   4728     1   107.5800459 329.699200
   4728   4726   4732     1   109.8000471 387.438400
   4730   4729   4738     1   109.7800468 425.094400
   4730   4729   4731     1   108.4600466 328.025600
   4731   4729   4738     1   109.7800468 425.094400
   4733   4732   9056     1   109.7800468 425.094400
   4733   4732   4734     1   108.4600466 328.025600
   4734   4732   9056     1   109.7800468 425.094400
   4736   4735   9079     1   109.7800468 425.094400
   4736   4735   4737     1   108.4600466 328.025600
   4737   4735   9079     1   109.7800468 425.094400
   4740   4741   4742     1   108.0100461 406.684800
   4740   4741   4743     1   108.0100461 406.684800
   4740   4744   4745     1   108.0100461 406.684800
   4740   4744   4746     1   108.0100461 406.684800
   4740   4747   4748     1   108.0100461 406.684800
   4740   4747   4749     1   108.0100461 406.684800
   4741   4740   4769     1   110.1100470 384.091200
   4741   4753   4754     1   109.8000471 387.438400
   4741   4753   4755     1   109.8000471 387.438400
   4742   4741   4753     1   110.5600475 386.601600
   4742   4741   4743     1   109.7500473 328.025600
   4743   4741   4753     1   110.5600475 386.601600
   4744   4740   4769     1   110.1100470 384.091200
   4744   4756   4757     1   109.8000471 387.438400
   4744   4756   4758     1   109.8000471 387.438400
   4745   4744   4756     1   110.5600475 386.601600
   4745   4744   4746     1   109.7500473 328.025600
   4746   4744   4756     1   110.5600475 386.601600
   4747   4740   4769     1   110.1100470 384.091200
   4747   4750   4751     1   109.8000471 387.438400
   4747   4750   4752     1   109.8000471 387.438400
   4748   4747   4750     1   110.5600475 386.601600
   4748   4747   4749     1   109.7500473 328.025600
   4749   4747   4750     1   110.5600475 386.601600
   4750   4759   4760     1   109.5600471 388.275200
   4750   4759   4761     1   109.5600471 388.275200
   4751   4750   4759     1   109.8000471 387.438400
   4751   4750   4752     1   107.5800459 329.699200
   4752   4750   4759     1   109.8000471 387.438400
   4753   4765   4766     1   109.5600471 388.275200
   4753   4765   4767     1   109.5600471 388.275200
   4754   4753   4765     1   109.8000471 387.438400
   4754   4753   4755     1   107.5800459 329.699200
   4755   4753   4765     1   109.8000471 387.438400
   4756   4762   4763     1   109.5600471 388.275200
   4756   4762   4764     1   109.5600471 388.275200
   4757   4756   4762     1   109.8000471 387.438400
   4757   4756   4758     1   107.5800459 329.699200
   4758   4756   4762     1   109.8000471 387.438400
   4760   4759   4768     1   109.7800468 425.094400
   4760   4759   4761     1   108.4600466 328.025600
   4761   4759   4768     1   109.7800468 425.094400
   4763   4762   9102     1   109.7800468 425.094400
   4763   4762   4764     1   108.4600466 328.025600
   4764   4762   9102     1   109.7800468 425.094400
   4766   4765   9125     1   109.7800468 425.094400
   4766   4765   4767     1   108.4600466 328.025600
   4767   4765   9125     1   109.7800468 425.094400
   4770   4771   4772     1   108.0100461 406.684800
   4770   4771   4773     1   108.0100461 406.684800
   4770   4774   4775     1   108.0100461 406.684800
   4770   4774   4776     1   108.0100461 406.684800
   4770   4777   4778     1   108.0100461 406.684800
   4770   4777   4779     1   108.0100461 406.684800
   4771   4770   4799     1   110.1100470 384.091200
   4771   4783   4784     1   109.8000471 387.438400
   4771   4783   4785     1   109.8000471 387.438400
   4772   4771   4783     1   110.5600475 386.601600
   4772   4771   4773     1   109.7500473 328.025600
   4773   4771   4783     1   110.5600475 386.601600
   4774   4770   4799     1   110.1100470 384.091200
   4774   4786   4787     1   109.8000471 387.438400
   4774   4786   4788     1   109.8000471 387.438400
   4775   4774   4786     1   110.5600475 386.601600
   4775   4774   4776     1   109.7500473 328.025600
   4776   4774   4786     1   110.5600475 386.601600
   4777   4770   4799     1   110.1100470 384.091200
   4777   4780   4781     1   109.8000471 387.438400
   4777   4780   4782     1   109.8000471 387.438400
   4778   4777   4780     1   110.5600475 386.601600
   4778   4777   4779     1   109.7500473 328.025600
   4779   4777   4780     1   110.5600475 386.601600
   4780   4789   4790     1   109.5600471 388.275200
   4780   4789   4791     1   109.5600471 388.275200
   4781   4780   4789     1   109.8000471 387.438400
   4781   4780   4782     1   107.5800459 329.699200
   4782   4780   4789     1   109.8000471 387.438400
   4783   4795   4796     1   109.5600471 388.275200
   4783   4795   4797     1   109.5600471 388.275200
   4784   4783   4795     1   109.8000471 387.438400
   4784   4783   4785     1   107.5800459 329.699200
   4785   4783   4795     1   109.8000471 387.438400
   4786   4792   4793     1   109.5600471 388.275200
   4786   4792   4794     1   109.5600471 388.275200
   4787   4786   4792     1   109.8000471 387.438400
   4787   4786   4788     1   107.5800459 329.699200
   4788   4786   4792     1   109.8000471 387.438400
   4790   4789   4798     1   109.7800468 425.094400
   4790   4789   4791     1   108.4600466 328.025600
   4791   4789   4798     1   109.7800468 425.094400
   4793   4792   9148     1   109.7800468 425.094400
   4793   4792   4794     1   108.4600466 328.025600
   4794   4792   9148     1   109.7800468 425.094400
   4796   4795   9171     1   109.7800468 425.094400
   4796   4795   4797     1   108.4600466 328.025600
   4797   4795   9171     1   109.7800468 425.094400
   4800   4801   4802     1   108.0100461 406.684800
   4800   4801   4803     1   108.0100461 406.684800
   4800   4804   4805     1   108.0100461 406.684800
   4800   4804   4806     1   108.0100461 406.684800
   4800   4807   4808     1   108.0100461 406.684800
   4800   4807   4809     1   108.0100461 406.684800
   4801   4800   4829     1   110.1100470 384.091200
   4801   4813   4814     1   109.8000471 387.438400
   4801   4813   4815     1   109.8000471 387.438400
   4802   4801   4813     1   110.5600475 386.601600
   4802   4801   4803     1   109.7500473 328.025600
   4803   4801   4813     1   110.5600475 386.601600
   4804   4800   4829     1   110.1100470 384.091200
   4804   4816   4817     1   109.8000471 387.438400
   4804   4816   4818     1   109.8000471 387.438400
   4805   4804   4816     1   110.5600475 386.601600
   4805   4804   4806     1   109.7500473 328.025600
   4806   4804   4816     1   110.5600475 386.601600
   4807   4800   4829     1   110.1100470 384.091200
   4807   4810   4811     1   109.8000471 387.438400
   4807   4810   4812     1   109.8000471 387.438400
   4808   4807   4810     1   110.5600475 386.601600
   4808   4807   4809     1   109.7500473 328.025600
   4809   4807   4810     1   110.5600475 386.601600
   4810   4819   4820     1   109.5600471 388.275200
   4810   4819   4821     1   109.5600471 388.275200
   4811   4810   4819     1   109.8000471 387.438400
   4811   4810   4812     1   107.5800459 329.699200
   4812   4810   4819     1   109.8000471 387.438400
   4813   4825   4826     1   109.5600471 388.275200
   4813   4825   4827     1   109.5600471 388.275200
   4814   4813   4825     1   109.8000471 387.438400
   4814   4813   4815     1   107.5800459 329.699200
   4815   4813   4825     1   109.8000471 387.438400
   4816   4822   4823     1   109.5600471 388.275200
   4816   4822   4824     1   109.5600471 388.275200
   4817   4816   4822     1   109.8000471 387.438400
   4817   4816   4818     1   107.5800459 329.699200
   4818   4816   4822     1   109.8000471 387.438400
   4820   4819   4828     1   109.7800468 425.094400
   4820   4819   4821     1   108.4600466 328.025600
   4821   4819   4828     1   109.7800468 425.094400
   4823   4822   9194     1   109.7800468 425.094400
   4823   4822   4824     1   108.4600466 328.025600
   4824   4822   9194     1   109.7800468 425.094400
   4826   4825   9217     1   109.7800468 425.094400
   4826   4825   4827     1   108.4600466 328.025600
   4827   4825   9217     1   109.7800468 425.094400
   4830   4831   4832     1   108.0100461 406.684800
   4830   4831   4833     1   108.0100461 406.684800
   4830   4834   4835     1   108.0100461 406.684800
   4830   4834   4836     1   108.0100461 406.684800
   4830   4837   4838     1   108.0100461 406.684800
   4830   4837   4839     1   108.0100461 406.684800
   4831   4830   4859     1   110.1100470 384.091200
   4831   4843   4844     1   109.8000471 387.438400
   4831   4843   4845     1   109.8000471 387.438400
   4832   4831   4843     1   110.5600475 386.601600
   4832   4831   4833     1   109.7500473 328.025600
   4833   4831   4843     1   110.5600475 386.601600
   4834   4830   4859     1   110.1100470 384.091200
   4834   4846   4847     1   109.8000471 387.438400
   4834   4846   4848     1   109.8000471 387.438400
   4835   4834   4846     1   110.5600475 386.601600
   4835   4834   4836     1   109.7500473 328.025600
   4836   4834   4846     1   110.5600475 386.601600
   4837   4830   4859     1   110.1100470 384.091200
   4837   4840   4841     1   109.8000471 387.438400
   4837   4840   4842     1   109.8000471 387.438400
   4838   4837   4840     1   110.5600475 386.601600
   4838   4837   4839     1   109.7500473 328.025600
   4839   4837   4840     1   110.5600475 386.601600
   4840   4849   4850     1   109.5600471 388.275200
   4840   4849   4851     1   109.5600471 388.275200
   4841   4840   4849     1   109.8000471 387.438400
   4841   4840   4842     1   107.5800459 329.699200
   4842   4840   4849     1   109.8000471 387.438400
   4843   4855   4856     1   109.5600471 388.275200
   4843   4855   4857     1   109.5600471 388.275200
   4844   4843   4855     1   109.8000471 387.438400
   4844   4843   4845     1   107.5800459 329.699200
   4845   4843   4855     1   109.8000471 387.438400
   4846   4852   4853     1   109.5600471 388.275200
   4846   4852   4854     1   109.5600471 388.275200
   4847   4846   4852     1   109.8000471 387.438400
   4847   4846   4848     1   107.5800459 329.699200
   4848   4846   4852     1   109.8000471 387.438400
   4850   4849   4858     1   109.7800468 425.094400
   4850   4849   4851     1   108.4600466 328.025600
   4851   4849   4858     1   109.7800468 425.094400
   4853   4852   9240     1   109.7800468 425.094400
   4853   4852   4854     1   108.4600466 328.025600
   4854   4852   9240     1   109.7800468 425.094400
   4856   4855   9263     1   109.7800468 425.094400
   4856   4855   4857     1   108.4600466 328.025600
   4857   4855   9263     1   109.7800468 425.094400
   4860   4861   4862     1   108.0100461 406.684800
   4860   4861   4863     1   108.0100461 406.684800
   4860   4864   4865     1   108.0100461 406.684800
   4860   4864   4866     1   108.0100461 406.684800
   4860   4867   4868     1   108.0100461 406.684800
   4860   4867   4869     1   108.0100461 406.684800
   4861   4860   4889     1   110.1100470 384.091200
   4861   4873   4874     1   109.8000471 387.438400
   4861   4873   4875     1   109.8000471 387.438400
   4862   4861   4873     1   110.5600475 386.601600
   4862   4861   4863     1   109.7500473 328.025600
   4863   4861   4873     1   110.5600475 386.601600
   4864   4860   4889     1   110.1100470 384.091200
   4864   4876   4877     1   109.8000471 387.438400
   4864   4876   4878     1   109.8000471 387.438400
   4865   4864   4876     1   110.5600475 386.601600
   4865   4864   4866     1   109.7500473 328.025600
   4866   4864   4876     1   110.5600475 386.601600
   4867   4860   4889     1   110.1100470 384.091200
   4867   4870   4871     1   109.8000471 387.438400
   4867   4870   4872     1   109.8000471 387.438400
   4868   4867   4870     1   110.5600475 386.601600
   4868   4867   4869     1   109.7500473 328.025600
   4869   4867   4870     1   110.5600475 386.601600
   4870   4879   4880     1   109.5600471 388.275200
   4870   4879   4881     1   109.5600471 388.275200
   4871   4870   4879     1   109.8000471 387.438400
   4871   4870   4872     1   107.5800459 329.699200
   4872   4870   4879     1   109.8000471 387.438400
   4873   4885   4886     1   109.5600471 388.275200
   4873   4885   4887     1   109.5600471 388.275200
   4874   4873   4885     1   109.8000471 387.438400
   4874   4873   4875     1   107.5800459 329.699200
   4875   4873   4885     1   109.8000471 387.438400
   4876   4882   4883     1   109.5600471 388.275200
   4876   4882   4884     1   109.5600471 388.275200
   4877   4876   4882     1   109.8000471 387.438400
   4877   4876   4878     1   107.5800459 329.699200
   4878   4876   4882     1   109.8000471 387.438400
   4880   4879   4888     1   109.7800468 425.094400
   4880   4879   4881     1   108.4600466 328.025600
   4881   4879   4888     1   109.7800468 425.094400
   4883   4882   9286     1   109.7800468 425.094400
   4883   4882   4884     1   108.4600466 328.025600
   4884   4882   9286     1   109.7800468 425.094400
   4886   4885   9309     1   109.7800468 425.094400
   4886   4885   4887     1   108.4600466 328.025600
   4887   4885   9309     1   109.7800468 425.094400
   4890   4891   4892     1   108.0100461 406.684800
   4890   4891   4893     1   108.0100461 406.684800
   4890   4894   4895     1   108.0100461 406.684800
   4890   4894   4896     1   108.0100461 406.684800
   4890   4897   4898     1   108.0100461 406.684800
   4890   4897   4899     1   108.0100461 406.684800
   4891   4890   4919     1   110.1100470 384.091200
   4891   4903   4904     1   109.8000471 387.438400
   4891   4903   4905     1   109.8000471 387.438400
   4892   4891   4903     1   110.5600475 386.601600
   4892   4891   4893     1   109.7500473 328.025600
   4893   4891   4903     1   110.5600475 386.601600
   4894   4890   4919     1   110.1100470 384.091200
   4894   4906   4907     1   109.8000471 387.438400
   4894   4906   4908     1   109.8000471 387.438400
   4895   4894   4906     1   110.5600475 386.601600
   4895   4894   4896     1   109.7500473 328.025600
   4896   4894   4906     1   110.5600475 386.601600
   4897   4890   4919     1   110.1100470 384.091200
   4897   4900   4901     1   109.8000471 387.438400
   4897   4900   4902     1   109.8000471 387.438400
   4898   4897   4900     1   110.5600475 386.601600
   4898   4897   4899     1   109.7500473 328.025600
   4899   4897   4900     1   110.5600475 386.601600
   4900   4909   4910     1   109.5600471 388.275200
   4900   4909   4911     1   109.5600471 388.275200
   4901   4900   4909     1   109.8000471 387.438400
   4901   4900   4902     1   107.5800459 329.699200
   4902   4900   4909     1   109.8000471 387.438400
   4903   4915   4916     1   109.5600471 388.275200
   4903   4915   4917     1   109.5600471 388.275200
   4904   4903   4915     1   109.8000471 387.438400
   4904   4903   4905     1   107.5800459 329.699200
   4905   4903   4915     1   109.8000471 387.438400
   4906   4912   4913     1   109.5600471 388.275200
   4906   4912   4914     1   109.5600471 388.275200
   4907   4906   4912     1   109.8000471 387.438400
   4907   4906   4908     1   107.5800459 329.699200
   4908   4906   4912     1   109.8000471 387.438400
   4910   4909   4918     1   109.7800468 425.094400
   4910   4909   4911     1   108.4600466 328.025600
   4911   4909   4918     1   109.7800468 425.094400
   4913   4912   9332     1   109.7800468 425.094400
   4913   4912   4914     1   108.4600466 328.025600
   4914   4912   9332     1   109.7800468 425.094400
   4916   4915   9355     1   109.7800468 425.094400
   4916   4915   4917     1   108.4600466 328.025600
   4917   4915   9355     1   109.7800468 425.094400
   4920   4921   4922     1   108.0100461 406.684800
   4920   4921   4923     1   108.0100461 406.684800
   4920   4924   4925     1   108.0100461 406.684800
   4920   4924   4926     1   108.0100461 406.684800
   4920   4927   4928     1   108.0100461 406.684800
   4920   4927   4929     1   108.0100461 406.684800
   4921   4920   4949     1   110.1100470 384.091200
   4921   4933   4934     1   109.8000471 387.438400
   4921   4933   4935     1   109.8000471 387.438400
   4922   4921   4933     1   110.5600475 386.601600
   4922   4921   4923     1   109.7500473 328.025600
   4923   4921   4933     1   110.5600475 386.601600
   4924   4920   4949     1   110.1100470 384.091200
   4924   4936   4937     1   109.8000471 387.438400
   4924   4936   4938     1   109.8000471 387.438400
   4925   4924   4936     1   110.5600475 386.601600
   4925   4924   4926     1   109.7500473 328.025600
   4926   4924   4936     1   110.5600475 386.601600
   4927   4920   4949     1   110.1100470 384.091200
   4927   4930   4931     1   109.8000471 387.438400
   4927   4930   4932     1   109.8000471 387.438400
   4928   4927   4930     1   110.5600475 386.601600
   4928   4927   4929     1   109.7500473 328.025600
   4929   4927   4930     1   110.5600475 386.601600
   4930   4939   4940     1   109.5600471 388.275200
   4930   4939   4941     1   109.5600471 388.275200
   4931   4930   4939     1   109.8000471 387.438400
   4931   4930   4932     1   107.5800459 329.699200
   4932   4930   4939     1   109.8000471 387.438400
   4933   4945   4946     1   109.5600471 388.275200
   4933   4945   4947     1   109.5600471 388.275200
   4934   4933   4945     1   109.8000471 387.438400
   4934   4933   4935     1   107.5800459 329.699200
   4935   4933   4945     1   109.8000471 387.438400
   4936   4942   4943     1   109.5600471 388.275200
   4936   4942   4944     1   109.5600471 388.275200
   4937   4936   4942     1   109.8000471 387.438400
   4937   4936   4938     1   107.5800459 329.699200
   4938   4936   4942     1   109.8000471 387.438400
   4940   4939   4948     1   109.7800468 425.094400
   4940   4939   4941     1   108.4600466 328.025600
   4941   4939   4948     1   109.7800468 425.094400
   4943   4942   9378     1   109.7800468 425.094400
   4943   4942   4944     1   108.4600466 328.025600
   4944   4942   9378     1   109.7800468 425.094400
   4946   4945   9401     1   109.7800468 425.094400
   4946   4945   4947     1   108.4600466 328.025600
   4947   4945   9401     1   109.7800468 425.094400
   4950   4951   4952     1   108.0100461 406.684800
   4950   4951   4953     1   108.0100461 406.684800
   4950   4954   4955     1   108.0100461 406.684800
   4950   4954   4956     1   108.0100461 406.684800
   4950   4957   4958     1   108.0100461 406.684800
   4950   4957   4959     1   108.0100461 406.684800
   4951   4950   4979     1   110.1100470 384.091200
   4951   4963   4964     1   109.8000471 387.438400
   4951   4963   4965     1   109.8000471 387.438400
   4952   4951   4963     1   110.5600475 386.601600
   4952   4951   4953     1   109.7500473 328.025600
   4953   4951   4963     1   110.5600475 386.601600
   4954   4950   4979     1   110.1100470 384.091200
   4954   4966   4967     1   109.8000471 387.438400
   4954   4966   4968     1   109.8000471 387.438400
   4955   4954   4966     1   110.5600475 386.601600
   4955   4954   4956     1   109.7500473 328.025600
   4956   4954   4966     1   110.5600475 386.601600
   4957   4950   4979     1   110.1100470 384.091200
   4957   4960   4961     1   109.8000471 387.438400
   4957   4960   4962     1   109.8000471 387.438400
   4958   4957   4960     1   110.5600475 386.601600
   4958   4957   4959     1   109.7500473 328.025600
   4959   4957   4960     1   110.5600475 386.601600
   4960   4969   4970     1   109.5600471 388.275200
   4960   4969   4971     1   109.5600471 388.275200
   4961   4960   4969     1   109.8000471 387.438400
   4961   4960   4962     1   107.5800459 329.699200
   4962   4960   4969     1   109.8000471 387.438400
   4963   4975   4976     1   109.5600471 388.275200
   4963   4975   4977     1   109.5600471 388.275200
   4964   4963   4975     1   109.8000471 387.438400
   4964   4963   4965     1   107.5800459 329.699200
   4965   4963   4975     1   109.8000471 387.438400
   4966   4972   4973     1   109.5600471 388.275200
   4966   4972   4974     1   109.5600471 388.275200
   4967   4966   4972     1   109.8000471 387.438400
   4967   4966   4968     1   107.5800459 329.699200
   4968   4966   4972     1   109.8000471 387.438400
   4970   4969   4978     1   109.7800468 425.094400
   4970   4969   4971     1   108.4600466 328.025600
   4971   4969   4978     1   109.7800468 425.094400
   4973   4972   9424     1   109.7800468 425.094400
   4973   4972   4974     1   108.4600466 328.025600
   4974   4972   9424     1   109.7800468 425.094400
   4976   4975   9447     1   109.7800468 425.094400
   4976   4975   4977     1   108.4600466 328.025600
   4977   4975   9447     1   109.7800468 425.094400
   4980   4981   4982     1   108.0100461 406.684800
   4980   4981   4983     1   108.0100461 406.684800
   4980   4984   4985     1   108.0100461 406.684800
   4980   4984   4986     1   108.0100461 406.684800
   4980   4987   4988     1   108.0100461 406.684800
   4980   4987   4989     1   108.0100461 406.684800
   4981   4980   5009     1   110.1100470 384.091200
   4981   4993   4994     1   109.8000471 387.438400
   4981   4993   4995     1   109.8000471 387.438400
   4982   4981   4993     1   110.5600475 386.601600
   4982   4981   4983     1   109.7500473 328.025600
   4983   4981   4993     1   110.5600475 386.601600
   4984   4980   5009     1   110.1100470 384.091200
   4984   4996   4997     1   109.8000471 387.438400
   4984   4996   4998     1   109.8000471 387.438400
   4985   4984   4996     1   110.5600475 386.601600
   4985   4984   4986     1   109.7500473 328.025600
   4986   4984   4996     1   110.5600475 386.601600
   4987   4980   5009     1   110.1100470 384.091200
   4987   4990   4991     1   109.8000471 387.438400
   4987   4990   4992     1   109.8000471 387.438400
   4988   4987   4990     1   110.5600475 386.601600
   4988   4987   4989     1   109.7500473 328.025600
   4989   4987   4990     1   110.5600475 386.601600
   4990   4999   5000     1   109.5600471 388.275200
   4990   4999   5001     1   109.5600471 388.275200
   4991   4990   4999     1   109.8000471 387.438400
   4991   4990   4992     1   107.5800459 329.699200
   4992   4990   4999     1   109.8000471 387.438400
   4993   5005   5006     1   109.5600471 388.275200
   4993   5005   5007     1   109.5600471 388.275200
   4994   4993   5005     1   109.8000471 387.438400
   4994   4993   4995     1   107.5800459 329.699200
   4995   4993   5005     1   109.8000471 387.438400
   4996   5002   5003     1   109.5600471 388.275200
   4996   5002   5004     1   109.5600471 388.275200
   4997   4996   5002     1   109.8000471 387.438400
   4997   4996   4998     1   107.5800459 329.699200
   4998   4996   5002     1   109.8000471 387.438400
   5000   4999   5008     1   109.7800468 425.094400
   5000   4999   5001     1   108.4600466 328.025600
   5001   4999   5008     1   109.7800468 425.094400
   5003   5002   9470     1   109.7800468 425.094400
   5003   5002   5004     1   108.4600466 328.025600
   5004   5002   9470     1   109.7800468 425.094400
   5006   5005   9493     1   109.7800468 425.094400
   5006   5005   5007     1   108.4600466 328.025600
   5007   5005   9493     1   109.7800468 425.094400
   5010   5011   5012     1   108.0100461 406.684800
   5010   5011   5013     1   108.0100461 406.684800
   5010   5014   5015     1   108.0100461 406.684800
   5010   5014   5016     1   108.0100461 406.684800
   5010   5017   5018     1   108.0100461 406.684800
   5010   5017   5019     1   108.0100461 406.684800
   5011   5010   5039     1   110.1100470 384.091200
   5011   5023   5024     1   109.8000471 387.438400
   5011   5023   5025     1   109.8000471 387.438400
   5012   5011   5023     1   110.5600475 386.601600
   5012   5011   5013     1   109.7500473 328.025600
   5013   5011   5023     1   110.5600475 386.601600
   5014   5010   5039     1   110.1100470 384.091200
   5014   5026   5027     1   109.8000471 387.438400
   5014   5026   5028     1   109.8000471 387.438400
   5015   5014   5026     1   110.5600475 386.601600
   5015   5014   5016     1   109.7500473 328.025600
   5016   5014   5026     1   110.5600475 386.601600
   5017   5010   5039     1   110.1100470 384.091200
   5017   5020   5021     1   109.8000471 387.438400
   5017   5020   5022     1   109.8000471 387.438400
   5018   5017   5020     1   110.5600475 386.601600
   5018   5017   5019     1   109.7500473 328.025600
   5019   5017   5020     1   110.5600475 386.601600
   5020   5029   5030     1   109.5600471 388.275200
   5020   5029   5031     1   109.5600471 388.275200
   5021   5020   5029     1   109.8000471 387.438400
   5021   5020   5022     1   107.5800459 329.699200
   5022   5020   5029     1   109.8000471 387.438400
   5023   5035   5036     1   109.5600471 388.275200
   5023   5035   5037     1   109.5600471 388.275200
   5024   5023   5035     1   109.8000471 387.438400
   5024   5023   5025     1   107.5800459 329.699200
   5025   5023   5035     1   109.8000471 387.438400
   5026   5032   5033     1   109.5600471 388.275200
   5026   5032   5034     1   109.5600471 388.275200
   5027   5026   5032     1   109.8000471 387.438400
   5027   5026   5028     1   107.5800459 329.699200
   5028   5026   5032     1   109.8000471 387.438400
   5030   5029   5038     1   109.7800468 425.094400
   5030   5029   5031     1   108.4600466 328.025600
   5031   5029   5038     1   109.7800468 425.094400
   5033   5032   9516     1   109.7800468 425.094400
   5033   5032   5034     1   108.4600466 328.025600
   5034   5032   9516     1   109.7800468 425.094400
   5036   5035   9539     1   109.7800468 425.094400
   5036   5035   5037     1   108.4600466 328.025600
   5037   5035   9539     1   109.7800468 425.094400
   5040   5041   5042     1   108.0100461 406.684800
   5040   5041   5043     1   108.0100461 406.684800
   5040   5044   5045     1   108.0100461 406.684800
   5040   5044   5046     1   108.0100461 406.684800
   5040   5047   5048     1   108.0100461 406.684800
   5040   5047   5049     1   108.0100461 406.684800
   5041   5040   5069     1   110.1100470 384.091200
   5041   5053   5054     1   109.8000471 387.438400
   5041   5053   5055     1   109.8000471 387.438400
   5042   5041   5053     1   110.5600475 386.601600
   5042   5041   5043     1   109.7500473 328.025600
   5043   5041   5053     1   110.5600475 386.601600
   5044   5040   5069     1   110.1100470 384.091200
   5044   5056   5057     1   109.8000471 387.438400
   5044   5056   5058     1   109.8000471 387.438400
   5045   5044   5056     1   110.5600475 386.601600
   5045   5044   5046     1   109.7500473 328.025600
   5046   5044   5056     1   110.5600475 386.601600
   5047   5040   5069     1   110.1100470 384.091200
   5047   5050   5051     1   109.8000471 387.438400
   5047   5050   5052     1   109.8000471 387.438400
   5048   5047   5050     1   110.5600475 386.601600
   5048   5047   5049     1   109.7500473 328.025600
   5049   5047   5050     1   110.5600475 386.601600
   5050   5059   5060     1   109.5600471 388.275200
   5050   5059   5061     1   109.5600471 388.275200
   5051   5050   5059     1   109.8000471 387.438400
   5051   5050   5052     1   107.5800459 329.699200
   5052   5050   5059     1   109.8000471 387.438400
   5053   5065   5066     1   109.5600471 388.275200
   5053   5065   5067     1   109.5600471 388.275200
   5054   5053   5065     1   109.8000471 387.438400
   5054   5053   5055     1   107.5800459 329.699200
   5055   5053   5065     1   109.8000471 387.438400
   5056   5062   5063     1   109.5600471 388.275200
   5056   5062   5064     1   109.5600471 388.275200
   5057   5056   5062     1   109.8000471 387.438400
   5057   5056   5058     1   107.5800459 329.699200
   5058   5056   5062     1   109.8000471 387.438400
   5060   5059   5068     1   109.7800468 425.094400
   5060   5059   5061     1   108.4600466 328.025600
   5061   5059   5068     1   109.7800468 425.094400
   5063   5062   9562     1   109.7800468 425.094400
   5063   5062   5064     1   108.4600466 328.025600
   5064   5062   9562     1   109.7800468 425.094400
   5066   5065   9585     1   109.7800468 425.094400
   5066   5065   5067     1   108.4600466 328.025600
   5067   5065   9585     1   109.7800468 425.094400
   5070   5071   5072     1   108.0100461 406.684800
   5070   5071   5073     1   108.0100461 406.684800
   5070   5074   5075     1   108.0100461 406.684800
   5070   5074   5076     1   108.0100461 406.684800
   5070   5077   5078     1   108.0100461 406.684800
   5070   5077   5079     1   108.0100461 406.684800
   5071   5070   5099     1   110.1100470 384.091200
   5071   5083   5084     1   109.8000471 387.438400
   5071   5083   5085     1   109.8000471 387.438400
   5072   5071   5083     1   110.5600475 386.601600
   5072   5071   5073     1   109.7500473 328.025600
   5073   5071   5083     1   110.5600475 386.601600
   5074   5070   5099     1   110.1100470 384.091200
   5074   5086   5087     1   109.8000471 387.438400
   5074   5086   5088     1   109.8000471 387.438400
   5075   5074   5086     1   110.5600475 386.601600
   5075   5074   5076     1   109.7500473 328.025600
   5076   5074   5086     1   110.5600475 386.601600
   5077   5070   5099     1   110.1100470 384.091200
   5077   5080   5081     1   109.8000471 387.438400
   5077   5080   5082     1   109.8000471 387.438400
   5078   5077   5080     1   110.5600475 386.601600
   5078   5077   5079     1   109.7500473 328.025600
   5079   5077   5080     1   110.5600475 386.601600
   5080   5089   5090     1   109.5600471 388.275200
   5080   5089   5091     1   109.5600471 388.275200
   5081   5080   5089     1   109.8000471 387.438400
   5081   5080   5082     1   107.5800459 329.699200
   5082   5080   5089     1   109.8000471 387.438400
   5083   5095   5096     1   109.5600471 388.275200
   5083   5095   5097     1   109.5600471 388.275200
   5084   5083   5095     1   109.8000471 387.438400
   5084   5083   5085     1   107.5800459 329.699200
   5085   5083   5095     1   109.8000471 387.438400
   5086   5092   5093     1   109.5600471 388.275200
   5086   5092   5094     1   109.5600471 388.275200
   5087   5086   5092     1   109.8000471 387.438400
   5087   5086   5088     1   107.5800459 329.699200
   5088   5086   5092     1   109.8000471 387.438400
   5090   5089   5098     1   109.7800468 425.094400
   5090   5089   5091     1   108.4600466 328.025600
   5091   5089   5098     1   109.7800468 425.094400
   5093   5092   9608     1   109.7800468 425.094400
   5093   5092   5094     1   108.4600466 328.025600
   5094   5092   9608     1   109.7800468 425.094400
   5096   5095   9631     1   109.7800468 425.094400
   5096   5095   5097     1   108.4600466 328.025600
   5097   5095   9631     1   109.7800468 425.094400
   5100   5101   5102     1   108.0100461 406.684800
   5100   5101   5103     1   108.0100461 406.684800
   5100   5104   5105     1   108.0100461 406.684800
   5100   5104   5106     1   108.0100461 406.684800
   5100   5107   5108     1   108.0100461 406.684800
   5100   5107   5109     1   108.0100461 406.684800
   5101   5100   5129     1   110.1100470 384.091200
   5101   5113   5114     1   109.8000471 387.438400
   5101   5113   5115     1   109.8000471 387.438400
   5102   5101   5113     1   110.5600475 386.601600
   5102   5101   5103     1   109.7500473 328.025600
   5103   5101   5113     1   110.5600475 386.601600
   5104   5100   5129     1   110.1100470 384.091200
   5104   5116   5117     1   109.8000471 387.438400
   5104   5116   5118     1   109.8000471 387.438400
   5105   5104   5116     1   110.5600475 386.601600
   5105   5104   5106     1   109.7500473 328.025600
   5106   5104   5116     1   110.5600475 386.601600
   5107   5100   5129     1   110.1100470 384.091200
   5107   5110   5111     1   109.8000471 387.438400
   5107   5110   5112     1   109.8000471 387.438400
   5108   5107   5110     1   110.5600475 386.601600
   5108   5107   5109     1   109.7500473 328.025600
   5109   5107   5110     1   110.5600475 386.601600
   5110   5119   5120     1   109.5600471 388.275200
   5110   5119   5121     1   109.5600471 388.275200
   5111   5110   5119     1   109.8000471 387.438400
   5111   5110   5112     1   107.5800459 329.699200
   5112   5110   5119     1   109.8000471 387.438400
   5113   5125   5126     1   109.5600471 388.275200
   5113   5125   5127     1   109.5600471 388.275200
   5114   5113   5125     1   109.8000471 387.438400
   5114   5113   5115     1   107.5800459 329.699200
   5115   5113   5125     1   109.8000471 387.438400
   5116   5122   5123     1   109.5600471 388.275200
   5116   5122   5124     1   109.5600471 388.275200
   5117   5116   5122     1   109.8000471 387.438400
   5117   5116   5118     1   107.5800459 329.699200
   5118   5116   5122     1   109.8000471 387.438400
   5120   5119   5128     1   109.7800468 425.094400
   5120   5119   5121     1   108.4600466 328.025600
   5121   5119   5128     1   109.7800468 425.094400
   5123   5122   9654     1   109.7800468 425.094400
   5123   5122   5124     1   108.4600466 328.025600
   5124   5122   9654     1   109.7800468 425.094400
   5126   5125   9677     1   109.7800468 425.094400
   5126   5125   5127     1   108.4600466 328.025600
   5127   5125   9677     1   109.7800468 425.094400
   5130   5131   5132     1   108.0100461 406.684800
   5130   5131   5133     1   108.0100461 406.684800
   5130   5134   5135     1   108.0100461 406.684800
   5130   5134   5136     1   108.0100461 406.684800
   5130   5137   5138     1   108.0100461 406.684800
   5130   5137   5139     1   108.0100461 406.684800
   5131   5130   5159     1   110.1100470 384.091200
   5131   5143   5144     1   109.8000471 387.438400
   5131   5143   5145     1   109.8000471 387.438400
   5132   5131   5143     1   110.5600475 386.601600
   5132   5131   5133     1   109.7500473 328.025600
   5133   5131   5143     1   110.5600475 386.601600
   5134   5130   5159     1   110.1100470 384.091200
   5134   5146   5147     1   109.8000471 387.438400
   5134   5146   5148     1   109.8000471 387.438400
   5135   5134   5146     1   110.5600475 386.601600
   5135   5134   5136     1   109.7500473 328.025600
   5136   5134   5146     1   110.5600475 386.601600
   5137   5130   5159     1   110.1100470 384.091200
   5137   5140   5141     1   109.8000471 387.438400
   5137   5140   5142     1   109.8000471 387.438400
   5138   5137   5140     1   110.5600475 386.601600
   5138   5137   5139     1   109.7500473 328.025600
   5139   5137   5140     1   110.5600475 386.601600
   5140   5149   5150     1   109.5600471 388.275200
   5140   5149   5151     1   109.5600471 388.275200
   5141   5140   5149     1   109.8000471 387.438400
   5141   5140   5142     1   107.5800459 329.699200
   5142   5140   5149     1   109.8000471 387.438400
   5143   5155   5156     1   109.5600471 388.275200
   5143   5155   5157     1   109.5600471 388.275200
   5144   5143   5155     1   109.8000471 387.438400
   5144   5143   5145     1   107.5800459 329.699200
   5145   5143   5155     1   109.8000471 387.438400
   5146   5152   5153     1   109.5600471 388.275200
   5146   5152   5154     1   109.5600471 388.275200
   5147   5146   5152     1   109.8000471 387.438400
   5147   5146   5148     1   107.5800459 329.699200
   5148   5146   5152     1   109.8000471 387.438400
   5150   5149   5158     1   109.7800468 425.094400
   5150   5149   5151     1   108.4600466 328.025600
   5151   5149   5158     1   109.7800468 425.094400
   5153   5152   9700     1   109.7800468 425.094400
   5153   5152   5154     1   108.4600466 328.025600
   5154   5152   9700     1   109.7800468 425.094400
   5156   5155   9723     1   109.7800468 425.094400
   5156   5155   5157     1   108.4600466 328.025600
   5157   5155   9723     1   109.7800468 425.094400
   5160   5161   5162     1   108.0100461 406.684800
   5160   5161   5163     1   108.0100461 406.684800
   5160   5164   5165     1   108.0100461 406.684800
   5160   5164   5166     1   108.0100461 406.684800
   5160   5167   5168     1   108.0100461 406.684800
   5160   5167   5169     1   108.0100461 406.684800
   5161   5160   5189     1   110.1100470 384.091200
   5161   5173   5174     1   109.8000471 387.438400
   5161   5173   5175     1   109.8000471 387.438400
   5162   5161   5173     1   110.5600475 386.601600
   5162   5161   5163     1   109.7500473 328.025600
   5163   5161   5173     1   110.5600475 386.601600
   5164   5160   5189     1   110.1100470 384.091200
   5164   5176   5177     1   109.8000471 387.438400
   5164   5176   5178     1   109.8000471 387.438400
   5165   5164   5176     1   110.5600475 386.601600
   5165   5164   5166     1   109.7500473 328.025600
   5166   5164   5176     1   110.5600475 386.601600
   5167   5160   5189     1   110.1100470 384.091200
   5167   5170   5171     1   109.8000471 387.438400
   5167   5170   5172     1   109.8000471 387.438400
   5168   5167   5170     1   110.5600475 386.601600
   5168   5167   5169     1   109.7500473 328.025600
   5169   5167   5170     1   110.5600475 386.601600
   5170   5179   5180     1   109.5600471 388.275200
   5170   5179   5181     1   109.5600471 388.275200
   5171   5170   5179     1   109.8000471 387.438400
   5171   5170   5172     1   107.5800459 329.699200
   5172   5170   5179     1   109.8000471 387.438400
   5173   5185   5186     1   109.5600471 388.275200
   5173   5185   5187     1   109.5600471 388.275200
   5174   5173   5185     1   109.8000471 387.438400
   5174   5173   5175     1   107.5800459 329.699200
   5175   5173   5185     1   109.8000471 387.438400
   5176   5182   5183     1   109.5600471 388.275200
   5176   5182   5184     1   109.5600471 388.275200
   5177   5176   5182     1   109.8000471 387.438400
   5177   5176   5178     1   107.5800459 329.699200
   5178   5176   5182     1   109.8000471 387.438400
   5180   5179   5188     1   109.7800468 425.094400
   5180   5179   5181     1   108.4600466 328.025600
   5181   5179   5188     1   109.7800468 425.094400
   5183   5182   9746     1   109.7800468 425.094400
   5183   5182   5184     1   108.4600466 328.025600
   5184   5182   9746     1   109.7800468 425.094400
   5186   5185   9769     1   109.7800468 425.094400
   5186   5185   5187     1   108.4600466 328.025600
   5187   5185   9769     1   109.7800468 425.094400
   5190   5191   5192     1   108.0100461 406.684800
   5190   5191   5193     1   108.0100461 406.684800
   5190   5194   5195     1   108.0100461 406.684800
   5190   5194   5196     1   108.0100461 406.684800
   5190   5197   5198     1   108.0100461 406.684800
   5190   5197   5199     1   108.0100461 406.684800
   5191   5190   5219     1   110.1100470 384.091200
   5191   5203   5204     1   109.8000471 387.438400
   5191   5203   5205     1   109.8000471 387.438400
   5192   5191   5203     1   110.5600475 386.601600
   5192   5191   5193     1   109.7500473 328.025600
   5193   5191   5203     1   110.5600475 386.601600
   5194   5190   5219     1   110.1100470 384.091200
   5194   5206   5207     1   109.8000471 387.438400
   5194   5206   5208     1   109.8000471 387.438400
   5195   5194   5206     1   110.5600475 386.601600
   5195   5194   5196     1   109.7500473 328.025600
   5196   5194   5206     1   110.5600475 386.601600
   5197   5190   5219     1   110.1100470 384.091200
   5197   5200   5201     1   109.8000471 387.438400
   5197   5200   5202     1   109.8000471 387.438400
   5198   5197   5200     1   110.5600475 386.601600
   5198   5197   5199     1   109.7500473 328.025600
   5199   5197   5200     1   110.5600475 386.601600
   5200   5209   5210     1   109.5600471 388.275200
   5200   5209   5211     1   109.5600471 388.275200
   5201   5200   5209     1   109.8000471 387.438400
   5201   5200   5202     1   107.5800459 329.699200
   5202   5200   5209     1   109.8000471 387.438400
   5203   5215   5216     1   109.5600471 388.275200
   5203   5215   5217     1   109.5600471 388.275200
   5204   5203   5215     1   109.8000471 387.438400
   5204   5203   5205     1   107.5800459 329.699200
   5205   5203   5215     1   109.8000471 387.438400
   5206   5212   5213     1   109.5600471 388.275200
   5206   5212   5214     1   109.5600471 388.275200
   5207   5206   5212     1   109.8000471 387.438400
   5207   5206   5208     1   107.5800459 329.699200
   5208   5206   5212     1   109.8000471 387.438400
   5210   5209   5218     1   109.7800468 425.094400
   5210   5209   5211     1   108.4600466 328.025600
   5211   5209   5218     1   109.7800468 425.094400
   5213   5212   9792     1   109.7800468 425.094400
   5213   5212   5214     1   108.4600466 328.025600
   5214   5212   9792     1   109.7800468 425.094400
   5216   5215   9815     1   109.7800468 425.094400
   5216   5215   5217     1   108.4600466 328.025600
   5217   5215   9815     1   109.7800468 425.094400
   5220   5221   5222     1   108.0100461 406.684800
   5220   5221   5223     1   108.0100461 406.684800
   5220   5224   5225     1   108.0100461 406.684800
   5220   5224   5226     1   108.0100461 406.684800
   5220   5227   5228     1   108.0100461 406.684800
   5220   5227   5229     1   108.0100461 406.684800
   5221   5220   5249     1   110.1100470 384.091200
   5221   5233   5234     1   109.8000471 387.438400
   5221   5233   5235     1   109.8000471 387.438400
   5222   5221   5233     1   110.5600475 386.601600
   5222   5221   5223     1   109.7500473 328.025600
   5223   5221   5233     1   110.5600475 386.601600
   5224   5220   5249     1   110.1100470 384.091200
   5224   5236   5237     1   109.8000471 387.438400
   5224   5236   5238     1   109.8000471 387.438400
   5225   5224   5236     1   110.5600475 386.601600
   5225   5224   5226     1   109.7500473 328.025600
   5226   5224   5236     1   110.5600475 386.601600
   5227   5220   5249     1   110.1100470 384.091200
   5227   5230   5231     1   109.8000471 387.438400
   5227   5230   5232     1   109.8000471 387.438400
   5228   5227   5230     1   110.5600475 386.601600
   5228   5227   5229     1   109.7500473 328.025600
   5229   5227   5230     1   110.5600475 386.601600
   5230   5239   5240     1   109.5600471 388.275200
   5230   5239   5241     1   109.5600471 388.275200
   5231   5230   5239     1   109.8000471 387.438400
   5231   5230   5232     1   107.5800459 329.699200
   5232   5230   5239     1   109.8000471 387.438400
   5233   5245   5246     1   109.5600471 388.275200
   5233   5245   5247     1   109.5600471 388.275200
   5234   5233   5245     1   109.8000471 387.438400
   5234   5233   5235     1   107.5800459 329.699200
   5235   5233   5245     1   109.8000471 387.438400
   5236   5242   5243     1   109.5600471 388.275200
   5236   5242   5244     1   109.5600471 388.275200
   5237   5236   5242     1   109.8000471 387.438400
   5237   5236   5238     1   107.5800459 329.699200
   5238   5236   5242     1   109.8000471 387.438400
   5240   5239   5248     1   109.7800468 425.094400
   5240   5239   5241     1   108.4600466 328.025600
   5241   5239   5248     1   109.7800468 425.094400
   5243   5242   9838     1   109.7800468 425.094400
   5243   5242   5244     1   108.4600466 328.025600
   5244   5242   9838     1   109.7800468 425.094400
   5246   5245   9861     1   109.7800468 425.094400
   5246   5245   5247     1   108.4600466 328.025600
   5247   5245   9861     1   109.7800468 425.094400
   5250   5251   5252     1   108.0100461 406.684800
   5250   5251   5253     1   108.0100461 406.684800
   5250   5254   5255     1   108.0100461 406.684800
   5250   5254   5256     1   108.0100461 406.684800
   5250   5257   5258     1   108.0100461 406.684800
   5250   5257   5259     1   108.0100461 406.684800
   5251   5250   5279     1   110.1100470 384.091200
   5251   5263   5264     1   109.8000471 387.438400
   5251   5263   5265     1   109.8000471 387.438400
   5252   5251   5263     1   110.5600475 386.601600
   5252   5251   5253     1   109.7500473 328.025600
   5253   5251   5263     1   110.5600475 386.601600
   5254   5250   5279     1   110.1100470 384.091200
   5254   5266   5267     1   109.8000471 387.438400
   5254   5266   5268     1   109.8000471 387.438400
   5255   5254   5266     1   110.5600475 386.601600
   5255   5254   5256     1   109.7500473 328.025600
   5256   5254   5266     1   110.5600475 386.601600
   5257   5250   5279     1   110.1100470 384.091200
   5257   5260   5261     1   109.8000471 387.438400
   5257   5260   5262     1   109.8000471 387.438400
   5258   5257   5260     1   110.5600475 386.601600
   5258   5257   5259     1   109.7500473 328.025600
   5259   5257   5260     1   110.5600475 386.601600
   5260   5269   5270     1   109.5600471 388.275200
   5260   5269   5271     1   109.5600471 388.275200
   5261   5260   5269     1   109.8000471 387.438400
   5261   5260   5262     1   107.5800459 329.699200
   5262   5260   5269     1   109.8000471 387.438400
   5263   5275   5276     1   109.5600471 388.275200
   5263   5275   5277     1   109.5600471 388.275200
   5264   5263   5275     1   109.8000471 387.438400
   5264   5263   5265     1   107.5800459 329.699200
   5265   5263   5275     1   109.8000471 387.438400
   5266   5272   5273     1   109.5600471 388.275200
   5266   5272   5274     1   109.5600471 388.275200
   5267   5266   5272     1   109.8000471 387.438400
   5267   5266   5268     1   107.5800459 329.699200
   5268   5266   5272     1   109.8000471 387.438400
   5270   5269   5278     1   109.7800468 425.094400
   5270   5269   5271     1   108.4600466 328.025600
   5271   5269   5278     1   109.7800468 425.094400
   5273   5272   9884     1   109.7800468 425.094400
   5273   5272   5274     1   108.4600466 328.025600
   5274   5272   9884     1   109.7800468 425.094400
   5276   5275   9907     1   109.7800468 425.094400
   5276   5275   5277     1   108.4600466 328.025600
   5277   5275   9907     1   109.7800468 425.094400
   5280   5281   5282     1   108.0100461 406.684800
   5280   5281   5283     1   108.0100461 406.684800
   5280   5284   5285     1   108.0100461 406.684800
   5280   5284   5286     1   108.0100461 406.684800
   5280   5287   5288     1   108.0100461 406.684800
   5280   5287   5289     1   108.0100461 406.684800
   5281   5280   5309     1   110.1100470 384.091200
   5281   5293   5294     1   109.8000471 387.438400
   5281   5293   5295     1   109.8000471 387.438400
   5282   5281   5293     1   110.5600475 386.601600
   5282   5281   5283     1   109.7500473 328.025600
   5283   5281   5293     1   110.5600475 386.601600
   5284   5280   5309     1   110.1100470 384.091200
   5284   5296   5297     1   109.8000471 387.438400
   5284   5296   5298     1   109.8000471 387.438400
   5285   5284   5296     1   110.5600475 386.601600
   5285   5284   5286     1   109.7500473 328.025600
   5286   5284   5296     1   110.5600475 386.601600
   5287   5280   5309     1   110.1100470 384.091200
   5287   5290   5291     1   109.8000471 387.438400
   5287   5290   5292     1   109.8000471 387.438400
   5288   5287   5290     1   110.5600475 386.601600
   5288   5287   5289     1   109.7500473 328.025600
   5289   5287   5290     1   110.5600475 386.601600
   5290   5299   5300     1   109.5600471 388.275200
   5290   5299   5301     1   109.5600471 388.275200
   5291   5290   5299     1   109.8000471 387.438400
   5291   5290   5292     1   107.5800459 329.699200
   5292   5290   5299     1   109.8000471 387.438400
   5293   5305   5306     1   109.5600471 388.275200
   5293   5305   5307     1   109.5600471 388.275200
   5294   5293   5305     1   109.8000471 387.438400
   5294   5293   5295     1   107.5800459 329.699200
   5295   5293   5305     1   109.8000471 387.438400
   5296   5302   5303     1   109.5600471 388.275200
   5296   5302   5304     1   109.5600471 388.275200
   5297   5296   5302     1   109.8000471 387.438400
   5297   5296   5298     1   107.5800459 329.699200
   5298   5296   5302     1   109.8000471 387.438400
   5300   5299   5308     1   109.7800468 425.094400
   5300   5299   5301     1   108.4600466 328.025600
   5301   5299   5308     1   109.7800468 425.094400
   5303   5302   9930     1   109.7800468 425.094400
   5303   5302   5304     1   108.4600466 328.025600
   5304   5302   9930     1   109.7800468 425.094400
   5306   5305   9953     1   109.7800468 425.094400
   5306   5305   5307     1   108.4600466 328.025600
   5307   5305   9953     1   109.7800468 425.094400
   5310   5311   5312     1   108.0100461 406.684800
   5310   5311   5313     1   108.0100461 406.684800
   5310   5314   5315     1   108.0100461 406.684800
   5310   5314   5316     1   108.0100461 406.684800
   5310   5317   5318     1   108.0100461 406.684800
   5310   5317   5319     1   108.0100461 406.684800
   5311   5310   5339     1   110.1100470 384.091200
   5311   5323   5324     1   109.8000471 387.438400
   5311   5323   5325     1   109.8000471 387.438400
   5312   5311   5323     1   110.5600475 386.601600
   5312   5311   5313     1   109.7500473 328.025600
   5313   5311   5323     1   110.5600475 386.601600
   5314   5310   5339     1   110.1100470 384.091200
   5314   5326   5327     1   109.8000471 387.438400
   5314   5326   5328     1   109.8000471 387.438400
   5315   5314   5326     1   110.5600475 386.601600
   5315   5314   5316     1   109.7500473 328.025600
   5316   5314   5326     1   110.5600475 386.601600
   5317   5310   5339     1   110.1100470 384.091200
   5317   5320   5321     1   109.8000471 387.438400
   5317   5320   5322     1   109.8000471 387.438400
   5318   5317   5320     1   110.5600475 386.601600
   5318   5317   5319     1   109.7500473 328.025600
   5319   5317   5320     1   110.5600475 386.601600
   5320   5329   5330     1   109.5600471 388.275200
   5320   5329   5331     1   109.5600471 388.275200
   5321   5320   5329     1   109.8000471 387.438400
   5321   5320   5322     1   107.5800459 329.699200
   5322   5320   5329     1   109.8000471 387.438400
   5323   5335   5336     1   109.5600471 388.275200
   5323   5335   5337     1   109.5600471 388.275200
   5324   5323   5335     1   109.8000471 387.438400
   5324   5323   5325     1   107.5800459 329.699200
   5325   5323   5335     1   109.8000471 387.438400
   5326   5332   5333     1   109.5600471 388.275200
   5326   5332   5334     1   109.5600471 388.275200
   5327   5326   5332     1   109.8000471 387.438400
   5327   5326   5328     1   107.5800459 329.699200
   5328   5326   5332     1   109.8000471 387.438400
   5330   5329   5338     1   109.7800468 425.094400
   5330   5329   5331     1   108.4600466 328.025600
   5331   5329   5338     1   109.7800468 425.094400
   5333   5332   9976     1   109.7800468 425.094400
   5333   5332   5334     1   108.4600466 328.025600
   5334   5332   9976     1   109.7800468 425.094400
   5336   5335   9999     1   109.7800468 425.094400
   5336   5335   5337     1   108.4600466 328.025600
   5337   5335   9999     1   109.7800468 425.094400
   5340   5341   5342     1   108.0100461 406.684800
   5340   5341   5343     1   108.0100461 406.684800
   5340   5344   5345     1   108.0100461 406.684800
   5340   5344   5346     1   108.0100461 406.684800
   5340   5347   5348     1   108.0100461 406.684800
   5340   5347   5349     1   108.0100461 406.684800
   5341   5340   5369     1   110.1100470 384.091200
   5341   5353   5354     1   109.8000471 387.438400
   5341   5353   5355     1   109.8000471 387.438400
   5342   5341   5353     1   110.5600475 386.601600
   5342   5341   5343     1   109.7500473 328.025600
   5343   5341   5353     1   110.5600475 386.601600
   5344   5340   5369     1   110.1100470 384.091200
   5344   5356   5357     1   109.8000471 387.438400
   5344   5356   5358     1   109.8000471 387.438400
   5345   5344   5356     1   110.5600475 386.601600
   5345   5344   5346     1   109.7500473 328.025600
   5346   5344   5356     1   110.5600475 386.601600
   5347   5340   5369     1   110.1100470 384.091200
   5347   5350   5351     1   109.8000471 387.438400
   5347   5350   5352     1   109.8000471 387.438400
   5348   5347   5350     1   110.5600475 386.601600
   5348   5347   5349     1   109.7500473 328.025600
   5349   5347   5350     1   110.5600475 386.601600
   5350   5359   5360     1   109.5600471 388.275200
   5350   5359   5361     1   109.5600471 388.275200
   5351   5350   5359     1   109.8000471 387.438400
   5351   5350   5352     1   107.5800459 329.699200
   5352   5350   5359     1   109.8000471 387.438400
   5353   5365   5366     1   109.5600471 388.275200
   5353   5365   5367     1   109.5600471 388.275200
   5354   5353   5365     1   109.8000471 387.438400
   5354   5353   5355     1   107.5800459 329.699200
   5355   5353   5365     1   109.8000471 387.438400
   5356   5362   5363     1   109.5600471 388.275200
   5356   5362   5364     1   109.5600471 388.275200
   5357   5356   5362     1   109.8000471 387.438400
   5357   5356   5358     1   107.5800459 329.699200
   5358   5356   5362     1   109.8000471 387.438400
   5360   5359   5368     1   109.7800468 425.094400
   5360   5359   5361     1   108.4600466 328.025600
   5361   5359   5368     1   109.7800468 425.094400
   5363   5362  10022     1   109.7800468 425.094400
   5363   5362   5364     1   108.4600466 328.025600
   5364   5362  10022     1   109.7800468 425.094400
   5366   5365  10045     1   109.7800468 425.094400
   5366   5365   5367     1   108.4600466 328.025600
   5367   5365  10045     1   109.7800468 425.094400
   5370   5371   5372     1   108.0100461 406.684800
   5370   5371   5373     1   108.0100461 406.684800
   5370   5374   5375     1   108.0100461 406.684800
   5370   5374   5376     1   108.0100461 406.684800
   5370   5377   5378     1   108.0100461 406.684800
   5370   5377   5379     1   108.0100461 406.684800
   5371   5370   5399     1   110.1100470 384.091200
   5371   5383   5384     1   109.8000471 387.438400
   5371   5383   5385     1   109.8000471 387.438400
   5372   5371   5383     1   110.5600475 386.601600
   5372   5371   5373     1   109.7500473 328.025600
   5373   5371   5383     1   110.5600475 386.601600
   5374   5370   5399     1   110.1100470 384.091200
   5374   5386   5387     1   109.8000471 387.438400
   5374   5386   5388     1   109.8000471 387.438400
   5375   5374   5386     1   110.5600475 386.601600
   5375   5374   5376     1   109.7500473 328.025600
   5376   5374   5386     1   110.5600475 386.601600
   5377   5370   5399     1   110.1100470 384.091200
   5377   5380   5381     1   109.8000471 387.438400
   5377   5380   5382     1   109.8000471 387.438400
   5378   5377   5380     1   110.5600475 386.601600
   5378   5377   5379     1   109.7500473 328.025600
   5379   5377   5380     1   110.5600475 386.601600
   5380   5389   5390     1   109.5600471 388.275200
   5380   5389   5391     1   109.5600471 388.275200
   5381   5380   5389     1   109.8000471 387.438400
   5381   5380   5382     1   107.5800459 329.699200
   5382   5380   5389     1   109.8000471 387.438400
   5383   5395   5396     1   109.5600471 388.275200
   5383   5395   5397     1   109.5600471 388.275200
   5384   5383   5395     1   109.8000471 387.438400
   5384   5383   5385     1   107.5800459 329.699200
   5385   5383   5395     1   109.8000471 387.438400
   5386   5392   5393     1   109.5600471 388.275200
   5386   5392   5394     1   109.5600471 388.275200
   5387   5386   5392     1   109.8000471 387.438400
   5387   5386   5388     1   107.5800459 329.699200
   5388   5386   5392     1   109.8000471 387.438400
   5390   5389   5398     1   109.7800468 425.094400
   5390   5389   5391     1   108.4600466 328.025600
   5391   5389   5398     1   109.7800468 425.094400
   5393   5392  10068     1   109.7800468 425.094400
   5393   5392   5394     1   108.4600466 328.025600
   5394   5392  10068     1   109.7800468 425.094400
   5396   5395  10091     1   109.7800468 425.094400
   5396   5395   5397     1   108.4600466 328.025600
   5397   5395  10091     1   109.7800468 425.094400
   5400   5401   5402     1   108.0100461 406.684800
   5400   5401   5403     1   108.0100461 406.684800
   5400   5404   5405     1   108.0100461 406.684800
   5400   5404   5406     1   108.0100461 406.684800
   5400   5407   5408     1   108.0100461 406.684800
   5400   5407   5409     1   108.0100461 406.684800
   5401   5400   5429     1   110.1100470 384.091200
   5401   5413   5414     1   109.8000471 387.438400
   5401   5413   5415     1   109.8000471 387.438400
   5402   5401   5413     1   110.5600475 386.601600
   5402   5401   5403     1   109.7500473 328.025600
   5403   5401   5413     1   110.5600475 386.601600
   5404   5400   5429     1   110.1100470 384.091200
   5404   5416   5417     1   109.8000471 387.438400
   5404   5416   5418     1   109.8000471 387.438400
   5405   5404   5416     1   110.5600475 386.601600
   5405   5404   5406     1   109.7500473 328.025600
   5406   5404   5416     1   110.5600475 386.601600
   5407   5400   5429     1   110.1100470 384.091200
   5407   5410   5411     1   109.8000471 387.438400
   5407   5410   5412     1   109.8000471 387.438400
   5408   5407   5410     1   110.5600475 386.601600
   5408   5407   5409     1   109.7500473 328.025600
   5409   5407   5410     1   110.5600475 386.601600
   5410   5419   5420     1   109.5600471 388.275200
   5410   5419   5421     1   109.5600471 388.275200
   5411   5410   5419     1   109.8000471 387.438400
   5411   5410   5412     1   107.5800459 329.699200
   5412   5410   5419     1   109.8000471 387.438400
   5413   5425   5426     1   109.5600471 388.275200
   5413   5425   5427     1   109.5600471 388.275200
   5414   5413   5425     1   109.8000471 387.438400
   5414   5413   5415     1   107.5800459 329.699200
   5415   5413   5425     1   109.8000471 387.438400
   5416   5422   5423     1   109.5600471 388.275200
   5416   5422   5424     1   109.5600471 388.275200
   5417   5416   5422     1   109.8000471 387.438400
   5417   5416   5418     1   107.5800459 329.699200
   5418   5416   5422     1   109.8000471 387.438400
   5420   5419   5428     1   109.7800468 425.094400
   5420   5419   5421     1   108.4600466 328.025600
   5421   5419   5428     1   109.7800468 425.094400
   5423   5422  10114     1   109.7800468 425.094400
   5423   5422   5424     1   108.4600466 328.025600
   5424   5422  10114     1   109.7800468 425.094400
   5426   5425  10137     1   109.7800468 425.094400
   5426   5425   5427     1   108.4600466 328.025600
   5427   5425  10137     1   109.7800468 425.094400
   5430   5431   5432     1   108.0100461 406.684800
   5430   5431   5433     1   108.0100461 406.684800
   5430   5434   5435     1   108.0100461 406.684800
   5430   5434   5436     1   108.0100461 406.684800
   5430   5437   5438     1   108.0100461 406.684800
   5430   5437   5439     1   108.0100461 406.684800
   5431   5430   5459     1   110.1100470 384.091200
   5431   5443   5444     1   109.8000471 387.438400
   5431   5443   5445     1   109.8000471 387.438400
   5432   5431   5443     1   110.5600475 386.601600
   5432   5431   5433     1   109.7500473 328.025600
   5433   5431   5443     1   110.5600475 386.601600
   5434   5430   5459     1   110.1100470 384.091200
   5434   5446   5447     1   109.8000471 387.438400
   5434   5446   5448     1   109.8000471 387.438400
   5435   5434   5446     1   110.5600475 386.601600
   5435   5434   5436     1   109.7500473 328.025600
   5436   5434   5446     1   110.5600475 386.601600
   5437   5430   5459     1   110.1100470 384.091200
   5437   5440   5441     1   109.8000471 387.438400
   5437   5440   5442     1   109.8000471 387.438400
   5438   5437   5440     1   110.5600475 386.601600
   5438   5437   5439     1   109.7500473 328.025600
   5439   5437   5440     1   110.5600475 386.601600
   5440   5449   5450     1   109.5600471 388.275200
   5440   5449   5451     1   109.5600471 388.275200
   5441   5440   5449     1   109.8000471 387.438400
   5441   5440   5442     1   107.5800459 329.699200
   5442   5440   5449     1   109.8000471 387.438400
   5443   5455   5456     1   109.5600471 388.275200
   5443   5455   5457     1   109.5600471 388.275200
   5444   5443   5455     1   109.8000471 387.438400
   5444   5443   5445     1   107.5800459 329.699200
   5445   5443   5455     1   109.8000471 387.438400
   5446   5452   5453     1   109.5600471 388.275200
   5446   5452   5454     1   109.5600471 388.275200
   5447   5446   5452     1   109.8000471 387.438400
   5447   5446   5448     1   107.5800459 329.699200
   5448   5446   5452     1   109.8000471 387.438400
   5450   5449   5458     1   109.7800468 425.094400
   5450   5449   5451     1   108.4600466 328.025600
   5451   5449   5458     1   109.7800468 425.094400
   5453   5452  10160     1   109.7800468 425.094400
   5453   5452   5454     1   108.4600466 328.025600
   5454   5452  10160     1   109.7800468 425.094400
   5456   5455  10183     1   109.7800468 425.094400
   5456   5455   5457     1   108.4600466 328.025600
   5457   5455  10183     1   109.7800468 425.094400
   5460   5461   5462     1   108.0100461 406.684800
   5460   5461   5463     1   108.0100461 406.684800
   5460   5464   5465     1   108.0100461 406.684800
   5460   5464   5466     1   108.0100461 406.684800
   5460   5467   5468     1   108.0100461 406.684800
   5460   5467   5469     1   108.0100461 406.684800
   5461   5460   5489     1   110.1100470 384.091200
   5461   5473   5474     1   109.8000471 387.438400
   5461   5473   5475     1   109.8000471 387.438400
   5462   5461   5473     1   110.5600475 386.601600
   5462   5461   5463     1   109.7500473 328.025600
   5463   5461   5473     1   110.5600475 386.601600
   5464   5460   5489     1   110.1100470 384.091200
   5464   5476   5477     1   109.8000471 387.438400
   5464   5476   5478     1   109.8000471 387.438400
   5465   5464   5476     1   110.5600475 386.601600
   5465   5464   5466     1   109.7500473 328.025600
   5466   5464   5476     1   110.5600475 386.601600
   5467   5460   5489     1   110.1100470 384.091200
   5467   5470   5471     1   109.8000471 387.438400
   5467   5470   5472     1   109.8000471 387.438400
   5468   5467   5470     1   110.5600475 386.601600
   5468   5467   5469     1   109.7500473 328.025600
   5469   5467   5470     1   110.5600475 386.601600
   5470   5479   5480     1   109.5600471 388.275200
   5470   5479   5481     1   109.5600471 388.275200
   5471   5470   5479     1   109.8000471 387.438400
   5471   5470   5472     1   107.5800459 329.699200
   5472   5470   5479     1   109.8000471 387.438400
   5473   5485   5486     1   109.5600471 388.275200
   5473   5485   5487     1   109.5600471 388.275200
   5474   5473   5485     1   109.8000471 387.438400
   5474   5473   5475     1   107.5800459 329.699200
   5475   5473   5485     1   109.8000471 387.438400
   5476   5482   5483     1   109.5600471 388.275200
   5476   5482   5484     1   109.5600471 388.275200
   5477   5476   5482     1   109.8000471 387.438400
   5477   5476   5478     1   107.5800459 329.699200
   5478   5476   5482     1   109.8000471 387.438400
   5480   5479   5488     1   109.7800468 425.094400
   5480   5479   5481     1   108.4600466 328.025600
   5481   5479   5488     1   109.7800468 425.094400
   5483   5482  10206     1   109.7800468 425.094400
   5483   5482   5484     1   108.4600466 328.025600
   5484   5482  10206     1   109.7800468 425.094400
   5486   5485  10229     1   109.7800468 425.094400
   5486   5485   5487     1   108.4600466 328.025600
   5487   5485  10229     1   109.7800468 425.094400
   5490   5491   5492     1   108.0100461 406.684800
   5490   5491   5493     1   108.0100461 406.684800
   5490   5494   5495     1   108.0100461 406.684800
   5490   5494   5496     1   108.0100461 406.684800
   5490   5497   5498     1   108.0100461 406.684800
   5490   5497   5499     1   108.0100461 406.684800
   5491   5490   5519     1   110.1100470 384.091200
   5491   5503   5504     1   109.8000471 387.438400
   5491   5503   5505     1   109.8000471 387.438400
   5492   5491   5503     1   110.5600475 386.601600
   5492   5491   5493     1   109.7500473 328.025600
   5493   5491   5503     1   110.5600475 386.601600
   5494   5490   5519     1   110.1100470 384.091200
   5494   5506   5507     1   109.8000471 387.438400
   5494   5506   5508     1   109.8000471 387.438400
   5495   5494   5506     1   110.5600475 386.601600
   5495   5494   5496     1   109.7500473 328.025600
   5496   5494   5506     1   110.5600475 386.601600
   5497   5490   5519     1   110.1100470 384.091200
   5497   5500   5501     1   109.8000471 387.438400
   5497   5500   5502     1   109.8000471 387.438400
   5498   5497   5500     1   110.5600475 386.601600
   5498   5497   5499     1   109.7500473 328.025600
   5499   5497   5500     1   110.5600475 386.601600
   5500   5509   5510     1   109.5600471 388.275200
   5500   5509   5511     1   109.5600471 388.275200
   5501   5500   5509     1   109.8000471 387.438400
   5501   5500   5502     1   107.5800459 329.699200
   5502   5500   5509     1   109.8000471 387.438400
   5503   5515   5516     1   109.5600471 388.275200
   5503   5515   5517     1   109.5600471 388.275200
   5504   5503   5515     1   109.8000471 387.438400
   5504   5503   5505     1   107.5800459 329.699200
   5505   5503   5515     1   109.8000471 387.438400
   5506   5512   5513     1   109.5600471 388.275200
   5506   5512   5514     1   109.5600471 388.275200
   5507   5506   5512     1   109.8000471 387.438400
   5507   5506   5508     1   107.5800459 329.699200
   5508   5506   5512     1   109.8000471 387.438400
   5510   5509   5518     1   109.7800468 425.094400
   5510   5509   5511     1   108.4600466 328.025600
   5511   5509   5518     1   109.7800468 425.094400
   5513   5512  10252     1   109.7800468 425.094400
   5513   5512   5514     1   108.4600466 328.025600
   5514   5512  10252     1   109.7800468 425.094400
   5516   5515  10275     1   109.7800468 425.094400
   5516   5515   5517     1   108.4600466 328.025600
   5517   5515  10275     1   109.7800468 425.094400
   5520   5521   5522     1   108.0100461 406.684800
   5520   5521   5523     1   108.0100461 406.684800
   5520   5524   5525     1   108.0100461 406.684800
   5520   5524   5526     1   108.0100461 406.684800
   5520   5527   5528     1   108.0100461 406.684800
   5520   5527   5529     1   108.0100461 406.684800
   5521   5520   5549     1   110.1100470 384.091200
   5521   5533   5534     1   109.8000471 387.438400
   5521   5533   5535     1   109.8000471 387.438400
   5522   5521   5533     1   110.5600475 386.601600
   5522   5521   5523     1   109.7500473 328.025600
   5523   5521   5533     1   110.5600475 386.601600
   5524   5520   5549     1   110.1100470 384.091200
   5524   5536   5537     1   109.8000471 387.438400
   5524   5536   5538     1   109.8000471 387.438400
   5525   5524   5536     1   110.5600475 386.601600
   5525   5524   5526     1   109.7500473 328.025600
   5526   5524   5536     1   110.5600475 386.601600
   5527   5520   5549     1   110.1100470 384.091200
   5527   5530   5531     1   109.8000471 387.438400
   5527   5530   5532     1   109.8000471 387.438400
   5528   5527   5530     1   110.5600475 386.601600
   5528   5527   5529     1   109.7500473 328.025600
   5529   5527   5530     1   110.5600475 386.601600
   5530   5539   5540     1   109.5600471 388.275200
   5530   5539   5541     1   109.5600471 388.275200
   5531   5530   5539     1   109.8000471 387.438400
   5531   5530   5532     1   107.5800459 329.699200
   5532   5530   5539     1   109.8000471 387.438400
   5533   5545   5546     1   109.5600471 388.275200
   5533   5545   5547     1   109.5600471 388.275200
   5534   5533   5545     1   109.8000471 387.438400
   5534   5533   5535     1   107.5800459 329.699200
   5535   5533   5545     1   109.8000471 387.438400
   5536   5542   5543     1   109.5600471 388.275200
   5536   5542   5544     1   109.5600471 388.275200
   5537   5536   5542     1   109.8000471 387.438400
   5537   5536   5538     1   107.5800459 329.699200
   5538   5536   5542     1   109.8000471 387.438400
   5540   5539   5548     1   109.7800468 425.094400
   5540   5539   5541     1   108.4600466 328.025600
   5541   5539   5548     1   109.7800468 425.094400
   5543   5542  10298     1   109.7800468 425.094400
   5543   5542   5544     1   108.4600466 328.025600
   5544   5542  10298     1   109.7800468 425.094400
   5546   5545  10321     1   109.7800468 425.094400
   5546   5545   5547     1   108.4600466 328.025600
   5547   5545  10321     1   109.7800468 425.094400
   5550   5551   5552     1   108.0100461 406.684800
   5550   5551   5553     1   108.0100461 406.684800
   5550   5554   5555     1   108.0100461 406.684800
   5550   5554   5556     1   108.0100461 406.684800
   5550   5557   5558     1   108.0100461 406.684800
   5550   5557   5559     1   108.0100461 406.684800
   5551   5550   5579     1   110.1100470 384.091200
   5551   5563   5564     1   109.8000471 387.438400
   5551   5563   5565     1   109.8000471 387.438400
   5552   5551   5563     1   110.5600475 386.601600
   5552   5551   5553     1   109.7500473 328.025600
   5553   5551   5563     1   110.5600475 386.601600
   5554   5550   5579     1   110.1100470 384.091200
   5554   5566   5567     1   109.8000471 387.438400
   5554   5566   5568     1   109.8000471 387.438400
   5555   5554   5566     1   110.5600475 386.601600
   5555   5554   5556     1   109.7500473 328.025600
   5556   5554   5566     1   110.5600475 386.601600
   5557   5550   5579     1   110.1100470 384.091200
   5557   5560   5561     1   109.8000471 387.438400
   5557   5560   5562     1   109.8000471 387.438400
   5558   5557   5560     1   110.5600475 386.601600
   5558   5557   5559     1   109.7500473 328.025600
   5559   5557   5560     1   110.5600475 386.601600
   5560   5569   5570     1   109.5600471 388.275200
   5560   5569   5571     1   109.5600471 388.275200
   5561   5560   5569     1   109.8000471 387.438400
   5561   5560   5562     1   107.5800459 329.699200
   5562   5560   5569     1   109.8000471 387.438400
   5563   5575   5576     1   109.5600471 388.275200
   5563   5575   5577     1   109.5600471 388.275200
   5564   5563   5575     1   109.8000471 387.438400
   5564   5563   5565     1   107.5800459 329.699200
   5565   5563   5575     1   109.8000471 387.438400
   5566   5572   5573     1   109.5600471 388.275200
   5566   5572   5574     1   109.5600471 388.275200
   5567   5566   5572     1   109.8000471 387.438400
   5567   5566   5568     1   107.5800459 329.699200
   5568   5566   5572     1   109.8000471 387.438400
   5570   5569   5578     1   109.7800468 425.094400
   5570   5569   5571     1   108.4600466 328.025600
   5571   5569   5578     1   109.7800468 425.094400
   5573   5572  10344     1   109.7800468 425.094400
   5573   5572   5574     1   108.4600466 328.025600
   5574   5572  10344     1   109.7800468 425.094400
   5576   5575  10367     1   109.7800468 425.094400
   5576   5575   5577     1   108.4600466 328.025600
   5577   5575  10367     1   109.7800468 425.094400
   5580   5581   5582     1   108.0100461 406.684800
   5580   5581   5583     1   108.0100461 406.684800
   5580   5584   5585     1   108.0100461 406.684800
   5580   5584   5586     1   108.0100461 406.684800
   5580   5587   5588     1   108.0100461 406.684800
   5580   5587   5589     1   108.0100461 406.684800
   5581   5580   5609     1   110.1100470 384.091200
   5581   5593   5594     1   109.8000471 387.438400
   5581   5593   5595     1   109.8000471 387.438400
   5582   5581   5593     1   110.5600475 386.601600
   5582   5581   5583     1   109.7500473 328.025600
   5583   5581   5593     1   110.5600475 386.601600
   5584   5580   5609     1   110.1100470 384.091200
   5584   5596   5597     1   109.8000471 387.438400
   5584   5596   5598     1   109.8000471 387.438400
   5585   5584   5596     1   110.5600475 386.601600
   5585   5584   5586     1   109.7500473 328.025600
   5586   5584   5596     1   110.5600475 386.601600
   5587   5580   5609     1   110.1100470 384.091200
   5587   5590   5591     1   109.8000471 387.438400
   5587   5590   5592     1   109.8000471 387.438400
   5588   5587   5590     1   110.5600475 386.601600
   5588   5587   5589     1   109.7500473 328.025600
   5589   5587   5590     1   110.5600475 386.601600
   5590   5599   5600     1   109.5600471 388.275200
   5590   5599   5601     1   109.5600471 388.275200
   5591   5590   5599     1   109.8000471 387.438400
   5591   5590   5592     1   107.5800459 329.699200
   5592   5590   5599     1   109.8000471 387.438400
   5593   5605   5606     1   109.5600471 388.275200
   5593   5605   5607     1   109.5600471 388.275200
   5594   5593   5605     1   109.8000471 387.438400
   5594   5593   5595     1   107.5800459 329.699200
   5595   5593   5605     1   109.8000471 387.438400
   5596   5602   5603     1   109.5600471 388.275200
   5596   5602   5604     1   109.5600471 388.275200
   5597   5596   5602     1   109.8000471 387.438400
   5597   5596   5598     1   107.5800459 329.699200
   5598   5596   5602     1   109.8000471 387.438400
   5600   5599   5608     1   109.7800468 425.094400
   5600   5599   5601     1   108.4600466 328.025600
   5601   5599   5608     1   109.7800468 425.094400
   5603   5602  10390     1   109.7800468 425.094400
   5603   5602   5604     1   108.4600466 328.025600
   5604   5602  10390     1   109.7800468 425.094400
   5606   5605  10413     1   109.7800468 425.094400
   5606   5605   5607     1   108.4600466 328.025600
   5607   5605  10413     1   109.7800468 425.094400
   5610   5611   5612     1   108.0100461 406.684800
   5610   5611   5613     1   108.0100461 406.684800
   5610   5614   5615     1   108.0100461 406.684800
   5610   5614   5616     1   108.0100461 406.684800
   5610   5617   5618     1   108.0100461 406.684800
   5610   5617   5619     1   108.0100461 406.684800
   5611   5610   5639     1   110.1100470 384.091200
   5611   5623   5624     1   109.8000471 387.438400
   5611   5623   5625     1   109.8000471 387.438400
   5612   5611   5623     1   110.5600475 386.601600
   5612   5611   5613     1   109.7500473 328.025600
   5613   5611   5623     1   110.5600475 386.601600
   5614   5610   5639     1   110.1100470 384.091200
   5614   5626   5627     1   109.8000471 387.438400
   5614   5626   5628     1   109.8000471 387.438400
   5615   5614   5626     1   110.5600475 386.601600
   5615   5614   5616     1   109.7500473 328.025600
   5616   5614   5626     1   110.5600475 386.601600
   5617   5610   5639     1   110.1100470 384.091200
   5617   5620   5621     1   109.8000471 387.438400
   5617   5620   5622     1   109.8000471 387.438400
   5618   5617   5620     1   110.5600475 386.601600
   5618   5617   5619     1   109.7500473 328.025600
   5619   5617   5620     1   110.5600475 386.601600
   5620   5629   5630     1   109.5600471 388.275200
   5620   5629   5631     1   109.5600471 388.275200
   5621   5620   5629     1   109.8000471 387.438400
   5621   5620   5622     1   107.5800459 329.699200
   5622   5620   5629     1   109.8000471 387.438400
   5623   5635   5636     1   109.5600471 388.275200
   5623   5635   5637     1   109.5600471 388.275200
   5624   5623   5635     1   109.8000471 387.438400
   5624   5623   5625     1   107.5800459 329.699200
   5625   5623   5635     1   109.8000471 387.438400
   5626   5632   5633     1   109.5600471 388.275200
   5626   5632   5634     1   109.5600471 388.275200
   5627   5626   5632     1   109.8000471 387.438400
   5627   5626   5628     1   107.5800459 329.699200
   5628   5626   5632     1   109.8000471 387.438400
   5630   5629   5638     1   109.7800468 425.094400
   5630   5629   5631     1   108.4600466 328.025600
   5631   5629   5638     1   109.7800468 425.094400
   5633   5632  10436     1   109.7800468 425.094400
   5633   5632   5634     1   108.4600466 328.025600
   5634   5632  10436     1   109.7800468 425.094400
   5636   5635  10459     1   109.7800468 425.094400
   5636   5635   5637     1   108.4600466 328.025600
   5637   5635  10459     1   109.7800468 425.094400
   5640   5641   5642     1   108.0100461 406.684800
   5640   5641   5643     1   108.0100461 406.684800
   5640   5644   5645     1   108.0100461 406.684800
   5640   5644   5646     1   108.0100461 406.684800
   5640   5647   5648     1   108.0100461 406.684800
   5640   5647   5649     1   108.0100461 406.684800
   5641   5640   5669     1   110.1100470 384.091200
   5641   5653   5654     1   109.8000471 387.438400
   5641   5653   5655     1   109.8000471 387.438400
   5642   5641   5653     1   110.5600475 386.601600
   5642   5641   5643     1   109.7500473 328.025600
   5643   5641   5653     1   110.5600475 386.601600
   5644   5640   5669     1   110.1100470 384.091200
   5644   5656   5657     1   109.8000471 387.438400
   5644   5656   5658     1   109.8000471 387.438400
   5645   5644   5656     1   110.5600475 386.601600
   5645   5644   5646     1   109.7500473 328.025600
   5646   5644   5656     1   110.5600475 386.601600
   5647   5640   5669     1   110.1100470 384.091200
   5647   5650   5651     1   109.8000471 387.438400
   5647   5650   5652     1   109.8000471 387.438400
   5648   5647   5650     1   110.5600475 386.601600
   5648   5647   5649     1   109.7500473 328.025600
   5649   5647   5650     1   110.5600475 386.601600
   5650   5659   5660     1   109.5600471 388.275200
   5650   5659   5661     1   109.5600471 388.275200
   5651   5650   5659     1   109.8000471 387.438400
   5651   5650   5652     1   107.5800459 329.699200
   5652   5650   5659     1   109.8000471 387.438400
   5653   5665   5666     1   109.5600471 388.275200
   5653   5665   5667     1   109.5600471 388.275200
   5654   5653   5665     1   109.8000471 387.438400
   5654   5653   5655     1   107.5800459 329.699200
   5655   5653   5665     1   109.8000471 387.438400
   5656   5662   5663     1   109.5600471 388.275200
   5656   5662   5664     1   109.5600471 388.275200
   5657   5656   5662     1   109.8000471 387.438400
   5657   5656   5658     1   107.5800459 329.699200
   5658   5656   5662     1   109.8000471 387.438400
   5660   5659   5668     1   109.7800468 425.094400
   5660   5659   5661     1   108.4600466 328.025600
   5661   5659   5668     1   109.7800468 425.094400
   5663   5662  10482     1   109.7800468 425.094400
   5663   5662   5664     1   108.4600466 328.025600
   5664   5662  10482     1   109.7800468 425.094400
   5666   5665  10505     1   109.7800468 425.094400
   5666   5665   5667     1   108.4600466 328.025600
   5667   5665  10505     1   109.7800468 425.094400
   5670   5671   5672     1   108.0100461 406.684800
   5670   5671   5673     1   108.0100461 406.684800
   5670   5674   5675     1   108.0100461 406.684800
   5670   5674   5676     1   108.0100461 406.684800
   5670   5677   5678     1   108.0100461 406.684800
   5670   5677   5679     1   108.0100461 406.684800
   5671   5670   5699     1   110.1100470 384.091200
   5671   5683   5684     1   109.8000471 387.438400
   5671   5683   5685     1   109.8000471 387.438400
   5672   5671   5683     1   110.5600475 386.601600
   5672   5671   5673     1   109.7500473 328.025600
   5673   5671   5683     1   110.5600475 386.601600
   5674   5670   5699     1   110.1100470 384.091200
   5674   5686   5687     1   109.8000471 387.438400
   5674   5686   5688     1   109.8000471 387.438400
   5675   5674   5686     1   110.5600475 386.601600
   5675   5674   5676     1   109.7500473 328.025600
   5676   5674   5686     1   110.5600475 386.601600
   5677   5670   5699     1   110.1100470 384.091200
   5677   5680   5681     1   109.8000471 387.438400
   5677   5680   5682     1   109.8000471 387.438400
   5678   5677   5680     1   110.5600475 386.601600
   5678   5677   5679     1   109.7500473 328.025600
   5679   5677   5680     1   110.5600475 386.601600
   5680   5689   5690     1   109.5600471 388.275200
   5680   5689   5691     1   109.5600471 388.275200
   5681   5680   5689     1   109.8000471 387.438400
   5681   5680   5682     1   107.5800459 329.699200
   5682   5680   5689     1   109.8000471 387.438400
   5683   5695   5696     1   109.5600471 388.275200
   5683   5695   5697     1   109.5600471 388.275200
   5684   5683   5695     1   109.8000471 387.438400
   5684   5683   5685     1   107.5800459 329.699200
   5685   5683   5695     1   109.8000471 387.438400
   5686   5692   5693     1   109.5600471 388.275200
   5686   5692   5694     1   109.5600471 388.275200
   5687   5686   5692     1   109.8000471 387.438400
   5687   5686   5688     1   107.5800459 329.699200
   5688   5686   5692     1   109.8000471 387.438400
   5690   5689   5698     1   109.7800468 425.094400
   5690   5689   5691     1   108.4600466 328.025600
   5691   5689   5698     1   109.7800468 425.094400
   5693   5692  10528     1   109.7800468 425.094400
   5693   5692   5694     1   108.4600466 328.025600
   5694   5692  10528     1   109.7800468 425.094400
   5696   5695  10551     1   109.7800468 425.094400
   5696   5695   5697     1   108.4600466 328.025600
   5697   5695  10551     1   109.7800468 425.094400
   5700   5701   5702     1   108.0100461 406.684800
   5700   5701   5703     1   108.0100461 406.684800
   5700   5704   5705     1   108.0100461 406.684800
   5700   5704   5706     1   108.0100461 406.684800
   5700   5707   5708     1   108.0100461 406.684800
   5700   5707   5709     1   108.0100461 406.684800
   5701   5700   5729     1   110.1100470 384.091200
   5701   5713   5714     1   109.8000471 387.438400
   5701   5713   5715     1   109.8000471 387.438400
   5702   5701   5713     1   110.5600475 386.601600
   5702   5701   5703     1   109.7500473 328.025600
   5703   5701   5713     1   110.5600475 386.601600
   5704   5700   5729     1   110.1100470 384.091200
   5704   5716   5717     1   109.8000471 387.438400
   5704   5716   5718     1   109.8000471 387.438400
   5705   5704   5716     1   110.5600475 386.601600
   5705   5704   5706     1   109.7500473 328.025600
   5706   5704   5716     1   110.5600475 386.601600
   5707   5700   5729     1   110.1100470 384.091200
   5707   5710   5711     1   109.8000471 387.438400
   5707   5710   5712     1   109.8000471 387.438400
   5708   5707   5710     1   110.5600475 386.601600
   5708   5707   5709     1   109.7500473 328.025600
   5709   5707   5710     1   110.5600475 386.601600
   5710   5719   5720     1   109.5600471 388.275200
   5710   5719   5721     1   109.5600471 388.275200
   5711   5710   5719     1   109.8000471 387.438400
   5711   5710   5712     1   107.5800459 329.699200
   5712   5710   5719     1   109.8000471 387.438400
   5713   5725   5726     1   109.5600471 388.275200
   5713   5725   5727     1   109.5600471 388.275200
   5714   5713   5725     1   109.8000471 387.438400
   5714   5713   5715     1   107.5800459 329.699200
   5715   5713   5725     1   109.8000471 387.438400
   5716   5722   5723     1   109.5600471 388.275200
   5716   5722   5724     1   109.5600471 388.275200
   5717   5716   5722     1   109.8000471 387.438400
   5717   5716   5718     1   107.5800459 329.699200
   5718   5716   5722     1   109.8000471 387.438400
   5720   5719   5728     1   109.7800468 425.094400
   5720   5719   5721     1   108.4600466 328.025600
   5721   5719   5728     1   109.7800468 425.094400
   5723   5722  10574     1   109.7800468 425.094400
   5723   5722   5724     1   108.4600466 328.025600
   5724   5722  10574     1   109.7800468 425.094400
   5726   5725  10597     1   109.7800468 425.094400
   5726   5725   5727     1   108.4600466 328.025600
   5727   5725  10597     1   109.7800468 425.094400
   5730   5731   5732     1   108.0100461 406.684800
   5730   5731   5733     1   108.0100461 406.684800
   5730   5734   5735     1   108.0100461 406.684800
   5730   5734   5736     1   108.0100461 406.684800
   5730   5737   5738     1   108.0100461 406.684800
   5730   5737   5739     1   108.0100461 406.684800
   5731   5730   5759     1   110.1100470 384.091200
   5731   5743   5744     1   109.8000471 387.438400
   5731   5743   5745     1   109.8000471 387.438400
   5732   5731   5743     1   110.5600475 386.601600
   5732   5731   5733     1   109.7500473 328.025600
   5733   5731   5743     1   110.5600475 386.601600
   5734   5730   5759     1   110.1100470 384.091200
   5734   5746   5747     1   109.8000471 387.438400
   5734   5746   5748     1   109.8000471 387.438400
   5735   5734   5746     1   110.5600475 386.601600
   5735   5734   5736     1   109.7500473 328.025600
   5736   5734   5746     1   110.5600475 386.601600
   5737   5730   5759     1   110.1100470 384.091200
   5737   5740   5741     1   109.8000471 387.438400
   5737   5740   5742     1   109.8000471 387.438400
   5738   5737   5740     1   110.5600475 386.601600
   5738   5737   5739     1   109.7500473 328.025600
   5739   5737   5740     1   110.5600475 386.601600
   5740   5749   5750     1   109.5600471 388.275200
   5740   5749   5751     1   109.5600471 388.275200
   5741   5740   5749     1   109.8000471 387.438400
   5741   5740   5742     1   107.5800459 329.699200
   5742   5740   5749     1   109.8000471 387.438400
   5743   5755   5756     1   109.5600471 388.275200
   5743   5755   5757     1   109.5600471 388.275200
   5744   5743   5755     1   109.8000471 387.438400
   5744   5743   5745     1   107.5800459 329.699200
   5745   5743   5755     1   109.8000471 387.438400
   5746   5752   5753     1   109.5600471 388.275200
   5746   5752   5754     1   109.5600471 388.275200
   5747   5746   5752     1   109.8000471 387.438400
   5747   5746   5748     1   107.5800459 329.699200
   5748   5746   5752     1   109.8000471 387.438400
   5750   5749   5758     1   109.7800468 425.094400
   5750   5749   5751     1   108.4600466 328.025600
   5751   5749   5758     1   109.7800468 425.094400
   5753   5752  10620     1   109.7800468 425.094400
   5753   5752   5754     1   108.4600466 328.025600
   5754   5752  10620     1   109.7800468 425.094400
   5756   5755  10643     1   109.7800468 425.094400
   5756   5755   5757     1   108.4600466 328.025600
   5757   5755  10643     1   109.7800468 425.094400
   5760   5761   5762     1   108.0100461 406.684800
   5760   5761   5763     1   108.0100461 406.684800
   5760   5764   5765     1   108.0100461 406.684800
   5760   5764   5766     1   108.0100461 406.684800
   5760   5767   5768     1   108.0100461 406.684800
   5760   5767   5769     1   108.0100461 406.684800
   5761   5760   5789     1   110.1100470 384.091200
   5761   5773   5774     1   109.8000471 387.438400
   5761   5773   5775     1   109.8000471 387.438400
   5762   5761   5773     1   110.5600475 386.601600
   5762   5761   5763     1   109.7500473 328.025600
   5763   5761   5773     1   110.5600475 386.601600
   5764   5760   5789     1   110.1100470 384.091200
   5764   5776   5777     1   109.8000471 387.438400
   5764   5776   5778     1   109.8000471 387.438400
   5765   5764   5776     1   110.5600475 386.601600
   5765   5764   5766     1   109.7500473 328.025600
   5766   5764   5776     1   110.5600475 386.601600
   5767   5760   5789     1   110.1100470 384.091200
   5767   5770   5771     1   109.8000471 387.438400
   5767   5770   5772     1   109.8000471 387.438400
   5768   5767   5770     1   110.5600475 386.601600
   5768   5767   5769     1   109.7500473 328.025600
   5769   5767   5770     1   110.5600475 386.601600
   5770   5779   5780     1   109.5600471 388.275200
   5770   5779   5781     1   109.5600471 388.275200
   5771   5770   5779     1   109.8000471 387.438400
   5771   5770   5772     1   107.5800459 329.699200
   5772   5770   5779     1   109.8000471 387.438400
   5773   5785   5786     1   109.5600471 388.275200
   5773   5785   5787     1   109.5600471 388.275200
   5774   5773   5785     1   109.8000471 387.438400
   5774   5773   5775     1   107.5800459 329.699200
   5775   5773   5785     1   109.8000471 387.438400
   5776   5782   5783     1   109.5600471 388.275200
   5776   5782   5784     1   109.5600471 388.275200
   5777   5776   5782     1   109.8000471 387.438400
   5777   5776   5778     1   107.5800459 329.699200
   5778   5776   5782     1   109.8000471 387.438400
   5780   5779   5788     1   109.7800468 425.094400
   5780   5779   5781     1   108.4600466 328.025600
   5781   5779   5788     1   109.7800468 425.094400
   5783   5782  10666     1   109.7800468 425.094400
   5783   5782   5784     1   108.4600466 328.025600
   5784   5782  10666     1   109.7800468 425.094400
   5786   5785  10689     1   109.7800468 425.094400
   5786   5785   5787     1   108.4600466 328.025600
   5787   5785  10689     1   109.7800468 425.094400
   5790   5791   5792     1   108.0100461 406.684800
   5790   5791   5793     1   108.0100461 406.684800
   5790   5794   5795     1   108.0100461 406.684800
   5790   5794   5796     1   108.0100461 406.684800
   5790   5797   5798     1   108.0100461 406.684800
   5790   5797   5799     1   108.0100461 406.684800
   5791   5790   5819     1   110.1100470 384.091200
   5791   5803   5804     1   109.8000471 387.438400
   5791   5803   5805     1   109.8000471 387.438400
   5792   5791   5803     1   110.5600475 386.601600
   5792   5791   5793     1   109.7500473 328.025600
   5793   5791   5803     1   110.5600475 386.601600
   5794   5790   5819     1   110.1100470 384.091200
   5794   5806   5807     1   109.8000471 387.438400
   5794   5806   5808     1   109.8000471 387.438400
   5795   5794   5806     1   110.5600475 386.601600
   5795   5794   5796     1   109.7500473 328.025600
   5796   5794   5806     1   110.5600475 386.601600
   5797   5790   5819     1   110.1100470 384.091200
   5797   5800   5801     1   109.8000471 387.438400
   5797   5800   5802     1   109.8000471 387.438400
   5798   5797   5800     1   110.5600475 386.601600
   5798   5797   5799     1   109.7500473 328.025600
   5799   5797   5800     1   110.5600475 386.601600
   5800   5809   5810     1   109.5600471 388.275200
   5800   5809   5811     1   109.5600471 388.275200
   5801   5800   5809     1   109.8000471 387.438400
   5801   5800   5802     1   107.5800459 329.699200
   5802   5800   5809     1   109.8000471 387.438400
   5803   5815   5816     1   109.5600471 388.275200
   5803   5815   5817     1   109.5600471 388.275200
   5804   5803   5815     1   109.8000471 387.438400
   5804   5803   5805     1   107.5800459 329.699200
   5805   5803   5815     1   109.8000471 387.438400
   5806   5812   5813     1   109.5600471 388.275200
   5806   5812   5814     1   109.5600471 388.275200
   5807   5806   5812     1   109.8000471 387.438400
   5807   5806   5808     1   107.5800459 329.699200
   5808   5806   5812     1   109.8000471 387.438400
   5810   5809   5818     1   109.7800468 425.094400
   5810   5809   5811     1   108.4600466 328.025600
   5811   5809   5818     1   109.7800468 425.094400
   5813   5812  10712     1   109.7800468 425.094400
   5813   5812   5814     1   108.4600466 328.025600
   5814   5812  10712     1   109.7800468 425.094400
   5816   5815  10735     1   109.7800468 425.094400
   5816   5815   5817     1   108.4600466 328.025600
   5817   5815  10735     1   109.7800468 425.094400
   5820   5821   5822     1   108.0100461 406.684800
   5820   5821   5823     1   108.0100461 406.684800
   5820   5824   5825     1   108.0100461 406.684800
   5820   5824   5826     1   108.0100461 406.684800
   5820   5827   5828     1   108.0100461 406.684800
   5820   5827   5829     1   108.0100461 406.684800
   5821   5820   5849     1   110.1100470 384.091200
   5821   5833   5834     1   109.8000471 387.438400
   5821   5833   5835     1   109.8000471 387.438400
   5822   5821   5833     1   110.5600475 386.601600
   5822   5821   5823     1   109.7500473 328.025600
   5823   5821   5833     1   110.5600475 386.601600
   5824   5820   5849     1   110.1100470 384.091200
   5824   5836   5837     1   109.8000471 387.438400
   5824   5836   5838     1   109.8000471 387.438400
   5825   5824   5836     1   110.5600475 386.601600
   5825   5824   5826     1   109.7500473 328.025600
   5826   5824   5836     1   110.5600475 386.601600
   5827   5820   5849     1   110.1100470 384.091200
   5827   5830   5831     1   109.8000471 387.438400
   5827   5830   5832     1   109.8000471 387.438400
   5828   5827   5830     1   110.5600475 386.601600
   5828   5827   5829     1   109.7500473 328.025600
   5829   5827   5830     1   110.5600475 386.601600
   5830   5839   5840     1   109.5600471 388.275200
   5830   5839   5841     1   109.5600471 388.275200
   5831   5830   5839     1   109.8000471 387.438400
   5831   5830   5832     1   107.5800459 329.699200
   5832   5830   5839     1   109.8000471 387.438400
   5833   5845   5846     1   109.5600471 388.275200
   5833   5845   5847     1   109.5600471 388.275200
   5834   5833   5845     1   109.8000471 387.438400
   5834   5833   5835     1   107.5800459 329.699200
   5835   5833   5845     1   109.8000471 387.438400
   5836   5842   5843     1   109.5600471 388.275200
   5836   5842   5844     1   109.5600471 388.275200
   5837   5836   5842     1   109.8000471 387.438400
   5837   5836   5838     1   107.5800459 329.699200
   5838   5836   5842     1   109.8000471 387.438400
   5840   5839   5848     1   109.7800468 425.094400
   5840   5839   5841     1   108.4600466 328.025600
   5841   5839   5848     1   109.7800468 425.094400
   5843   5842  10758     1   109.7800468 425.094400
   5843   5842   5844     1   108.4600466 328.025600
   5844   5842  10758     1   109.7800468 425.094400
   5846   5845  10781     1   109.7800468 425.094400
   5846   5845   5847     1   108.4600466 328.025600
   5847   5845  10781     1   109.7800468 425.094400
   5850   5851   5852     1   108.0100461 406.684800
   5850   5851   5853     1   108.0100461 406.684800
   5850   5854   5855     1   108.0100461 406.684800
   5850   5854   5856     1   108.0100461 406.684800
   5850   5857   5858     1   108.0100461 406.684800
   5850   5857   5859     1   108.0100461 406.684800
   5851   5850   5879     1   110.1100470 384.091200
   5851   5863   5864     1   109.8000471 387.438400
   5851   5863   5865     1   109.8000471 387.438400
   5852   5851   5863     1   110.5600475 386.601600
   5852   5851   5853     1   109.7500473 328.025600
   5853   5851   5863     1   110.5600475 386.601600
   5854   5850   5879     1   110.1100470 384.091200
   5854   5866   5867     1   109.8000471 387.438400
   5854   5866   5868     1   109.8000471 387.438400
   5855   5854   5866     1   110.5600475 386.601600
   5855   5854   5856     1   109.7500473 328.025600
   5856   5854   5866     1   110.5600475 386.601600
   5857   5850   5879     1   110.1100470 384.091200
   5857   5860   5861     1   109.8000471 387.438400
   5857   5860   5862     1   109.8000471 387.438400
   5858   5857   5860     1   110.5600475 386.601600
   5858   5857   5859     1   109.7500473 328.025600
   5859   5857   5860     1   110.5600475 386.601600
   5860   5869   5870     1   109.5600471 388.275200
   5860   5869   5871     1   109.5600471 388.275200
   5861   5860   5869     1   109.8000471 387.438400
   5861   5860   5862     1   107.5800459 329.699200
   5862   5860   5869     1   109.8000471 387.438400
   5863   5875   5876     1   109.5600471 388.275200
   5863   5875   5877     1   109.5600471 388.275200
   5864   5863   5875     1   109.8000471 387.438400
   5864   5863   5865     1   107.5800459 329.699200
   5865   5863   5875     1   109.8000471 387.438400
   5866   5872   5873     1   109.5600471 388.275200
   5866   5872   5874     1   109.5600471 388.275200
   5867   5866   5872     1   109.8000471 387.438400
   5867   5866   5868     1   107.5800459 329.699200
   5868   5866   5872     1   109.8000471 387.438400
   5870   5869   5878     1   109.7800468 425.094400
   5870   5869   5871     1   108.4600466 328.025600
   5871   5869   5878     1   109.7800468 425.094400
   5873   5872  10804     1   109.7800468 425.094400
   5873   5872   5874     1   108.4600466 328.025600
   5874   5872  10804     1   109.7800468 425.094400
   5876   5875  10827     1   109.7800468 425.094400
   5876   5875   5877     1   108.4600466 328.025600
   5877   5875  10827     1   109.7800468 425.094400
   5880   5881   5882     1   108.0100461 406.684800
   5880   5881   5883     1   108.0100461 406.684800
   5880   5884   5885     1   108.0100461 406.684800
   5880   5884   5886     1   108.0100461 406.684800
   5880   5887   5888     1   108.0100461 406.684800
   5880   5887   5889     1   108.0100461 406.684800
   5881   5880   5909     1   110.1100470 384.091200
   5881   5893   5894     1   109.8000471 387.438400
   5881   5893   5895     1   109.8000471 387.438400
   5882   5881   5893     1   110.5600475 386.601600
   5882   5881   5883     1   109.7500473 328.025600
   5883   5881   5893     1   110.5600475 386.601600
   5884   5880   5909     1   110.1100470 384.091200
   5884   5896   5897     1   109.8000471 387.438400
   5884   5896   5898     1   109.8000471 387.438400
   5885   5884   5896     1   110.5600475 386.601600
   5885   5884   5886     1   109.7500473 328.025600
   5886   5884   5896     1   110.5600475 386.601600
   5887   5880   5909     1   110.1100470 384.091200
   5887   5890   5891     1   109.8000471 387.438400
   5887   5890   5892     1   109.8000471 387.438400
   5888   5887   5890     1   110.5600475 386.601600
   5888   5887   5889     1   109.7500473 328.025600
   5889   5887   5890     1   110.5600475 386.601600
   5890   5899   5900     1   109.5600471 388.275200
   5890   5899   5901     1   109.5600471 388.275200
   5891   5890   5899     1   109.8000471 387.438400
   5891   5890   5892     1   107.5800459 329.699200
   5892   5890   5899     1   109.8000471 387.438400
   5893   5905   5906     1   109.5600471 388.275200
   5893   5905   5907     1   109.5600471 388.275200
   5894   5893   5905     1   109.8000471 387.438400
   5894   5893   5895     1   107.5800459 329.699200
   5895   5893   5905     1   109.8000471 387.438400
   5896   5902   5903     1   109.5600471 388.275200
   5896   5902   5904     1   109.5600471 388.275200
   5897   5896   5902     1   109.8000471 387.438400
   5897   5896   5898     1   107.5800459 329.699200
   5898   5896   5902     1   109.8000471 387.438400
   5900   5899   5908     1   109.7800468 425.094400
   5900   5899   5901     1   108.4600466 328.025600
   5901   5899   5908     1   109.7800468 425.094400
   5903   5902  10850     1   109.7800468 425.094400
   5903   5902   5904     1   108.4600466 328.025600
   5904   5902  10850     1   109.7800468 425.094400
   5906   5905  10873     1   109.7800468 425.094400
   5906   5905   5907     1   108.4600466 328.025600
   5907   5905  10873     1   109.7800468 425.094400
   5910   5911   5912     1   108.0100461 406.684800
   5910   5911   5913     1   108.0100461 406.684800
   5910   5914   5915     1   108.0100461 406.684800
   5910   5914   5916     1   108.0100461 406.684800
   5910   5917   5918     1   108.0100461 406.684800
   5910   5917   5919     1   108.0100461 406.684800
   5911   5910   5939     1   110.1100470 384.091200
   5911   5923   5924     1   109.8000471 387.438400
   5911   5923   5925     1   109.8000471 387.438400
   5912   5911   5923     1   110.5600475 386.601600
   5912   5911   5913     1   109.7500473 328.025600
   5913   5911   5923     1   110.5600475 386.601600
   5914   5910   5939     1   110.1100470 384.091200
   5914   5926   5927     1   109.8000471 387.438400
   5914   5926   5928     1   109.8000471 387.438400
   5915   5914   5926     1   110.5600475 386.601600
   5915   5914   5916     1   109.7500473 328.025600
   5916   5914   5926     1   110.5600475 386.601600
   5917   5910   5939     1   110.1100470 384.091200
   5917   5920   5921     1   109.8000471 387.438400
   5917   5920   5922     1   109.8000471 387.438400
   5918   5917   5920     1   110.5600475 386.601600
   5918   5917   5919     1   109.7500473 328.025600
   5919   5917   5920     1   110.5600475 386.601600
   5920   5929   5930     1   109.5600471 388.275200
   5920   5929   5931     1   109.5600471 388.275200
   5921   5920   5929     1   109.8000471 387.438400
   5921   5920   5922     1   107.5800459 329.699200
   5922   5920   5929     1   109.8000471 387.438400
   5923   5935   5936     1   109.5600471 388.275200
   5923   5935   5937     1   109.5600471 388.275200
   5924   5923   5935     1   109.8000471 387.438400
   5924   5923   5925     1   107.5800459 329.699200
   5925   5923   5935     1   109.8000471 387.438400
   5926   5932   5933     1   109.5600471 388.275200
   5926   5932   5934     1   109.5600471 388.275200
   5927   5926   5932     1   109.8000471 387.438400
   5927   5926   5928     1   107.5800459 329.699200
   5928   5926   5932     1   109.8000471 387.438400
   5930   5929   5938     1   109.7800468 425.094400
   5930   5929   5931     1   108.4600466 328.025600
   5931   5929   5938     1   109.7800468 425.094400
   5933   5932  10896     1   109.7800468 425.094400
   5933   5932   5934     1   108.4600466 328.025600
   5934   5932  10896     1   109.7800468 425.094400
   5936   5935  10919     1   109.7800468 425.094400
   5936   5935   5937     1   108.4600466 328.025600
   5937   5935  10919     1   109.7800468 425.094400
   5940   5941   5942     1   108.0100461 406.684800
   5940   5941   5943     1   108.0100461 406.684800
   5940   5944   5945     1   108.0100461 406.684800
   5940   5944   5946     1   108.0100461 406.684800
   5940   5947   5948     1   108.0100461 406.684800
   5940   5947   5949     1   108.0100461 406.684800
   5941   5940   5969     1   110.1100470 384.091200
   5941   5953   5954     1   109.8000471 387.438400
   5941   5953   5955     1   109.8000471 387.438400
   5942   5941   5953     1   110.5600475 386.601600
   5942   5941   5943     1   109.7500473 328.025600
   5943   5941   5953     1   110.5600475 386.601600
   5944   5940   5969     1   110.1100470 384.091200
   5944   5956   5957     1   109.8000471 387.438400
   5944   5956   5958     1   109.8000471 387.438400
   5945   5944   5956     1   110.5600475 386.601600
   5945   5944   5946     1   109.7500473 328.025600
   5946   5944   5956     1   110.5600475 386.601600
   5947   5940   5969     1   110.1100470 384.091200
   5947   5950   5951     1   109.8000471 387.438400
   5947   5950   5952     1   109.8000471 387.438400
   5948   5947   5950     1   110.5600475 386.601600
   5948   5947   5949     1   109.7500473 328.025600
   5949   5947   5950     1   110.5600475 386.601600
   5950   5959   5960     1   109.5600471 388.275200
   5950   5959   5961     1   109.5600471 388.275200
   5951   5950   5959     1   109.8000471 387.438400
   5951   5950   5952     1   107.5800459 329.699200
   5952   5950   5959     1   109.8000471 387.438400
   5953   5965   5966     1   109.5600471 388.275200
   5953   5965   5967     1   109.5600471 388.275200
   5954   5953   5965     1   109.8000471 387.438400
   5954   5953   5955     1   107.5800459 329.699200
   5955   5953   5965     1   109.8000471 387.438400
   5956   5962   5963     1   109.5600471 388.275200
   5956   5962   5964     1   109.5600471 388.275200
   5957   5956   5962     1   109.8000471 387.438400
   5957   5956   5958     1   107.5800459 329.699200
   5958   5956   5962     1   109.8000471 387.438400
   5960   5959   5968     1   109.7800468 425.094400
   5960   5959   5961     1   108.4600466 328.025600
   5961   5959   5968     1   109.7800468 425.094400
   5963   5962  10942     1   109.7800468 425.094400
   5963   5962   5964     1   108.4600466 328.025600
   5964   5962  10942     1   109.7800468 425.094400
   5966   5965  10965     1   109.7800468 425.094400
   5966   5965   5967     1   108.4600466 328.025600
   5967   5965  10965     1   109.7800468 425.094400
   5970   5971   5972     1   108.0100461 406.684800
   5970   5971   5973     1   108.0100461 406.684800
   5970   5974   5975     1   108.0100461 406.684800
   5970   5974   5976     1   108.0100461 406.684800
   5970   5977   5978     1   108.0100461 406.684800
   5970   5977   5979     1   108.0100461 406.684800
   5971   5970   5999     1   110.1100470 384.091200
   5971   5983   5984     1   109.8000471 387.438400
   5971   5983   5985     1   109.8000471 387.438400
   5972   5971   5983     1   110.5600475 386.601600
   5972   5971   5973     1   109.7500473 328.025600
   5973   5971   5983     1   110.5600475 386.601600
   5974   5970   5999     1   110.1100470 384.091200
   5974   5986   5987     1   109.8000471 387.438400
   5974   5986   5988     1   109.8000471 387.438400
   5975   5974   5986     1   110.5600475 386.601600
   5975   5974   5976     1   109.7500473 328.025600
   5976   5974   5986     1   110.5600475 386.601600
   5977   5970   5999     1   110.1100470 384.091200
   5977   5980   5981     1   109.8000471 387.438400
   5977   5980   5982     1   109.8000471 387.438400
   5978   5977   5980     1   110.5600475 386.601600
   5978   5977   5979     1   109.7500473 328.025600
   5979   5977   5980     1   110.5600475 386.601600
   5980   5989   5990     1   109.5600471 388.275200
   5980   5989   5991     1   109.5600471 388.275200
   5981   5980   5989     1   109.8000471 387.438400
   5981   5980   5982     1   107.5800459 329.699200
   5982   5980   5989     1   109.8000471 387.438400
   5983   5995   5996     1   109.5600471 388.275200
   5983   5995   5997     1   109.5600471 388.275200
   5984   5983   5995     1   109.8000471 387.438400
   5984   5983   5985     1   107.5800459 329.699200
   5985   5983   5995     1   109.8000471 387.438400
   5986   5992   5993     1   109.5600471 388.275200
   5986   5992   5994     1   109.5600471 388.275200
   5987   5986   5992     1   109.8000471 387.438400
   5987   5986   5988     1   107.5800459 329.699200
   5988   5986   5992     1   109.8000471 387.438400
   5990   5989   5998     1   109.7800468 425.094400
   5990   5989   5991     1   108.4600466 328.025600
   5991   5989   5998     1   109.7800468 425.094400
   5993   5992  10988     1   109.7800468 425.094400
   5993   5992   5994     1   108.4600466 328.025600
   5994   5992  10988     1   109.7800468 425.094400
   5996   5995  11011     1   109.7800468 425.094400
   5996   5995   5997     1   108.4600466 328.025600
   5997   5995  11011     1   109.7800468 425.094400
   6000   6001   6002     1   108.0100461 406.684800
   6000   6001   6003     1   108.0100461 406.684800
   6000   6004   6005     1   108.0100461 406.684800
   6000   6004   6006     1   108.0100461 406.684800
   6000   6007   6008     1   108.0100461 406.684800
   6000   6007   6009     1   108.0100461 406.684800
   6001   6000   6029     1   110.1100470 384.091200
   6001   6013   6014     1   109.8000471 387.438400
   6001   6013   6015     1   109.8000471 387.438400
   6002   6001   6013     1   110.5600475 386.601600
   6002   6001   6003     1   109.7500473 328.025600
   6003   6001   6013     1   110.5600475 386.601600
   6004   6000   6029     1   110.1100470 384.091200
   6004   6016   6017     1   109.8000471 387.438400
   6004   6016   6018     1   109.8000471 387.438400
   6005   6004   6016     1   110.5600475 386.601600
   6005   6004   6006     1   109.7500473 328.025600
   6006   6004   6016     1   110.5600475 386.601600
   6007   6000   6029     1   110.1100470 384.091200
   6007   6010   6011     1   109.8000471 387.438400
   6007   6010   6012     1   109.8000471 387.438400
   6008   6007   6010     1   110.5600475 386.601600
   6008   6007   6009     1   109.7500473 328.025600
   6009   6007   6010     1   110.5600475 386.601600
   6010   6019   6020     1   109.5600471 388.275200
   6010   6019   6021     1   109.5600471 388.275200
   6011   6010   6019     1   109.8000471 387.438400
   6011   6010   6012     1   107.5800459 329.699200
   6012   6010   6019     1   109.8000471 387.438400
   6013   6025   6026     1   109.5600471 388.275200
   6013   6025   6027     1   109.5600471 388.275200
   6014   6013   6025     1   109.8000471 387.438400
   6014   6013   6015     1   107.5800459 329.699200
   6015   6013   6025     1   109.8000471 387.438400
   6016   6022   6023     1   109.5600471 388.275200
   6016   6022   6024     1   109.5600471 388.275200
   6017   6016   6022     1   109.8000471 387.438400
   6017   6016   6018     1   107.5800459 329.699200
   6018   6016   6022     1   109.8000471 387.438400
   6020   6019   6028     1   109.7800468 425.094400
   6020   6019   6021     1   108.4600466 328.025600
   6021   6019   6028     1   109.7800468 425.094400
   6023   6022  11034     1   109.7800468 425.094400
   6023   6022   6024     1   108.4600466 328.025600
   6024   6022  11034     1   109.7800468 425.094400
   6026   6025  11057     1   109.7800468 425.094400
   6026   6025   6027     1   108.4600466 328.025600
   6027   6025  11057     1   109.7800468 425.094400
   6030   6031   6032     1   108.0100461 406.684800
   6030   6031   6033     1   108.0100461 406.684800
   6030   6034   6035     1   108.0100461 406.684800
   6030   6034   6036     1   108.0100461 406.684800
   6030   6037   6038     1   108.0100461 406.684800
   6030   6037   6039     1   108.0100461 406.684800
   6031   6030   6059     1   110.1100470 384.091200
   6031   6043   6044     1   109.8000471 387.438400
   6031   6043   6045     1   109.8000471 387.438400
   6032   6031   6043     1   110.5600475 386.601600
   6032   6031   6033     1   109.7500473 328.025600
   6033   6031   6043     1   110.5600475 386.601600
   6034   6030   6059     1   110.1100470 384.091200
   6034   6046   6047     1   109.8000471 387.438400
   6034   6046   6048     1   109.8000471 387.438400
   6035   6034   6046     1   110.5600475 386.601600
   6035   6034   6036     1   109.7500473 328.025600
   6036   6034   6046     1   110.5600475 386.601600
   6037   6030   6059     1   110.1100470 384.091200
   6037   6040   6041     1   109.8000471 387.438400
   6037   6040   6042     1   109.8000471 387.438400
   6038   6037   6040     1   110.5600475 386.601600
   6038   6037   6039     1   109.7500473 328.025600
   6039   6037   6040     1   110.5600475 386.601600
   6040   6049   6050     1   109.5600471 388.275200
   6040   6049   6051     1   109.5600471 388.275200
   6041   6040   6049     1   109.8000471 387.438400
   6041   6040   6042     1   107.5800459 329.699200
   6042   6040   6049     1   109.8000471 387.438400
   6043   6055   6056     1   109.5600471 388.275200
   6043   6055   6057     1   109.5600471 388.275200
   6044   6043   6055     1   109.8000471 387.438400
   6044   6043   6045     1   107.5800459 329.699200
   6045   6043   6055     1   109.8000471 387.438400
   6046   6052   6053     1   109.5600471 388.275200
   6046   6052   6054     1   109.5600471 388.275200
   6047   6046   6052     1   109.8000471 387.438400
   6047   6046   6048     1   107.5800459 329.699200
   6048   6046   6052     1   109.8000471 387.438400
   6050   6049   6058     1   109.7800468 425.094400
   6050   6049   6051     1   108.4600466 328.025600
   6051   6049   6058     1   109.7800468 425.094400
   6053   6052  11080     1   109.7800468 425.094400
   6053   6052   6054     1   108.4600466 328.025600
   6054   6052  11080     1   109.7800468 425.094400
   6056   6055  11103     1   109.7800468 425.094400
   6056   6055   6057     1   108.4600466 328.025600
   6057   6055  11103     1   109.7800468 425.094400
   6060   6061   6062     1   108.0100461 406.684800
   6060   6061   6063     1   108.0100461 406.684800
   6060   6064   6065     1   108.0100461 406.684800
   6060   6064   6066     1   108.0100461 406.684800
   6060   6067   6068     1   108.0100461 406.684800
   6060   6067   6069     1   108.0100461 406.684800
   6061   6060   6089     1   110.1100470 384.091200
   6061   6073   6074     1   109.8000471 387.438400
   6061   6073   6075     1   109.8000471 387.438400
   6062   6061   6073     1   110.5600475 386.601600
   6062   6061   6063     1   109.7500473 328.025600
   6063   6061   6073     1   110.5600475 386.601600
   6064   6060   6089     1   110.1100470 384.091200
   6064   6076   6077     1   109.8000471 387.438400
   6064   6076   6078     1   109.8000471 387.438400
   6065   6064   6076     1   110.5600475 386.601600
   6065   6064   6066     1   109.7500473 328.025600
   6066   6064   6076     1   110.5600475 386.601600
   6067   6060   6089     1   110.1100470 384.091200
   6067   6070   6071     1   109.8000471 387.438400
   6067   6070   6072     1   109.8000471 387.438400
   6068   6067   6070     1   110.5600475 386.601600
   6068   6067   6069     1   109.7500473 328.025600
   6069   6067   6070     1   110.5600475 386.601600
   6070   6079   6080     1   109.5600471 388.275200
   6070   6079   6081     1   109.5600471 388.275200
   6071   6070   6079     1   109.8000471 387.438400
   6071   6070   6072     1   107.5800459 329.699200
   6072   6070   6079     1   109.8000471 387.438400
   6073   6085   6086     1   109.5600471 388.275200
   6073   6085   6087     1   109.5600471 388.275200
   6074   6073   6085     1   109.8000471 387.438400
   6074   6073   6075     1   107.5800459 329.699200
   6075   6073   6085     1   109.8000471 387.438400
   6076   6082   6083     1   109.5600471 388.275200
   6076   6082   6084     1   109.5600471 388.275200
   6077   6076   6082     1   109.8000471 387.438400
   6077   6076   6078     1   107.5800459 329.699200
   6078   6076   6082     1   109.8000471 387.438400
   6080   6079   6088     1   109.7800468 425.094400
   6080   6079   6081     1   108.4600466 328.025600
   6081   6079   6088     1   109.7800468 425.094400
   6083   6082  11126     1   109.7800468 425.094400
   6083   6082   6084     1   108.4600466 328.025600
   6084   6082  11126     1   109.7800468 425.094400
   6086   6085  11149     1   109.7800468 425.094400
   6086   6085   6087     1   108.4600466 328.025600
   6087   6085  11149     1   109.7800468 425.094400
   6090   6091   6092     1   108.0100461 406.684800
   6090   6091   6093     1   108.0100461 406.684800
   6090   6094   6095     1   108.0100461 406.684800
   6090   6094   6096     1   108.0100461 406.684800
   6090   6097   6098     1   108.0100461 406.684800
   6090   6097   6099     1   108.0100461 406.684800
   6091   6090   6119     1   110.1100470 384.091200
   6091   6103   6104     1   109.8000471 387.438400
   6091   6103   6105     1   109.8000471 387.438400
   6092   6091   6103     1   110.5600475 386.601600
   6092   6091   6093     1   109.7500473 328.025600
   6093   6091   6103     1   110.5600475 386.601600
   6094   6090   6119     1   110.1100470 384.091200
   6094   6106   6107     1   109.8000471 387.438400
   6094   6106   6108     1   109.8000471 387.438400
   6095   6094   6106     1   110.5600475 386.601600
   6095   6094   6096     1   109.7500473 328.025600
   6096   6094   6106     1   110.5600475 386.601600
   6097   6090   6119     1   110.1100470 384.091200
   6097   6100   6101     1   109.8000471 387.438400
   6097   6100   6102     1   109.8000471 387.438400
   6098   6097   6100     1   110.5600475 386.601600
   6098   6097   6099     1   109.7500473 328.025600
   6099   6097   6100     1   110.5600475 386.601600
   6100   6109   6110     1   109.5600471 388.275200
   6100   6109   6111     1   109.5600471 388.275200
   6101   6100   6109     1   109.8000471 387.438400
   6101   6100   6102     1   107.5800459 329.699200
   6102   6100   6109     1   109.8000471 387.438400
   6103   6115   6116     1   109.5600471 388.275200
   6103   6115   6117     1   109.5600471 388.275200
   6104   6103   6115     1   109.8000471 387.438400
   6104   6103   6105     1   107.5800459 329.699200
   6105   6103   6115     1   109.8000471 387.438400
   6106   6112   6113     1   109.5600471 388.275200
   6106   6112   6114     1   109.5600471 388.275200
   6107   6106   6112     1   109.8000471 387.438400
   6107   6106   6108     1   107.5800459 329.699200
   6108   6106   6112     1   109.8000471 387.438400
   6110   6109   6118     1   109.7800468 425.094400
   6110   6109   6111     1   108.4600466 328.025600
   6111   6109   6118     1   109.7800468 425.094400
   6113   6112  11172     1   109.7800468 425.094400
   6113   6112   6114     1   108.4600466 328.025600
   6114   6112  11172     1   109.7800468 425.094400
   6116   6115  11195     1   109.7800468 425.094400
   6116   6115   6117     1   108.4600466 328.025600
   6117   6115  11195     1   109.7800468 425.094400
   6120   6121   6122     1   108.0100461 406.684800
   6120   6121   6123     1   108.0100461 406.684800
   6120   6124   6125     1   108.0100461 406.684800
   6120   6124   6126     1   108.0100461 406.684800
   6120   6127   6128     1   108.0100461 406.684800
   6120   6127   6129     1   108.0100461 406.684800
   6121   6120   6149     1   110.1100470 384.091200
   6121   6133   6134     1   109.8000471 387.438400
   6121   6133   6135     1   109.8000471 387.438400
   6122   6121   6133     1   110.5600475 386.601600
   6122   6121   6123     1   109.7500473 328.025600
   6123   6121   6133     1   110.5600475 386.601600
   6124   6120   6149     1   110.1100470 384.091200
   6124   6136   6137     1   109.8000471 387.438400
   6124   6136   6138     1   109.8000471 387.438400
   6125   6124   6136     1   110.5600475 386.601600
   6125   6124   6126     1   109.7500473 328.025600
   6126   6124   6136     1   110.5600475 386.601600
   6127   6120   6149     1   110.1100470 384.091200
   6127   6130   6131     1   109.8000471 387.438400
   6127   6130   6132     1   109.8000471 387.438400
   6128   6127   6130     1   110.5600475 386.601600
   6128   6127   6129     1   109.7500473 328.025600
   6129   6127   6130     1   110.5600475 386.601600
   6130   6139   6140     1   109.5600471 388.275200
   6130   6139   6141     1   109.5600471 388.275200
   6131   6130   6139     1   109.8000471 387.438400
   6131   6130   6132     1   107.5800459 329.699200
   6132   6130   6139     1   109.8000471 387.438400
   6133   6145   6146     1   109.5600471 388.275200
   6133   6145   6147     1   109.5600471 388.275200
   6134   6133   6145     1   109.8000471 387.438400
   6134   6133   6135     1   107.5800459 329.699200
   6135   6133   6145     1   109.8000471 387.438400
   6136   6142   6143     1   109.5600471 388.275200
   6136   6142   6144     1   109.5600471 388.275200
   6137   6136   6142     1   109.8000471 387.438400
   6137   6136   6138     1   107.5800459 329.699200
   6138   6136   6142     1   109.8000471 387.438400
   6140   6139   6148     1   109.7800468 425.094400
   6140   6139   6141     1   108.4600466 328.025600
   6141   6139   6148     1   109.7800468 425.094400
   6143   6142  11218     1   109.7800468 425.094400
   6143   6142   6144     1   108.4600466 328.025600
   6144   6142  11218     1   109.7800468 425.094400
   6146   6145  11241     1   109.7800468 425.094400
   6146   6145   6147     1   108.4600466 328.025600
   6147   6145  11241     1   109.7800468 425.094400
   6150   6151   6152     1   108.0100461 406.684800
   6150   6151   6153     1   108.0100461 406.684800
   6150   6154   6155     1   108.0100461 406.684800
   6150   6154   6156     1   108.0100461 406.684800
   6150   6157   6158     1   108.0100461 406.684800
   6150   6157   6159     1   108.0100461 406.684800
   6151   6150   6179     1   110.1100470 384.091200
   6151   6163   6164     1   109.8000471 387.438400
   6151   6163   6165     1   109.8000471 387.438400
   6152   6151   6163     1   110.5600475 386.601600
   6152   6151   6153     1   109.7500473 328.025600
   6153   6151   6163     1   110.5600475 386.601600
   6154   6150   6179     1   110.1100470 384.091200
   6154   6166   6167     1   109.8000471 387.438400
   6154   6166   6168     1   109.8000471 387.438400
   6155   6154   6166     1   110.5600475 386.601600
   6155   6154   6156     1   109.7500473 328.025600
   6156   6154   6166     1   110.5600475 386.601600
   6157   6150   6179     1   110.1100470 384.091200
   6157   6160   6161     1   109.8000471 387.438400
   6157   6160   6162     1   109.8000471 387.438400
   6158   6157   6160     1   110.5600475 386.601600
   6158   6157   6159     1   109.7500473 328.025600
   6159   6157   6160     1   110.5600475 386.601600
   6160   6169   6170     1   109.5600471 388.275200
   6160   6169   6171     1   109.5600471 388.275200
   6161   6160   6169     1   109.8000471 387.438400
   6161   6160   6162     1   107.5800459 329.699200
   6162   6160   6169     1   109.8000471 387.438400
   6163   6175   6176     1   109.5600471 388.275200
   6163   6175   6177     1   109.5600471 388.275200
   6164   6163   6175     1   109.8000471 387.438400
   6164   6163   6165     1   107.5800459 329.699200
   6165   6163   6175     1   109.8000471 387.438400
   6166   6172   6173     1   109.5600471 388.275200
   6166   6172   6174     1   109.5600471 388.275200
   6167   6166   6172     1   109.8000471 387.438400
   6167   6166   6168     1   107.5800459 329.699200
   6168   6166   6172     1   109.8000471 387.438400
   6170   6169   6178     1   109.7800468 425.094400
   6170   6169   6171     1   108.4600466 328.025600
   6171   6169   6178     1   109.7800468 425.094400
   6173   6172  11264     1   109.7800468 425.094400
   6173   6172   6174     1   108.4600466 328.025600
   6174   6172  11264     1   109.7800468 425.094400
   6176   6175  11287     1   109.7800468 425.094400
   6176   6175   6177     1   108.4600466 328.025600
   6177   6175  11287     1   109.7800468 425.094400
   6180   6181   6182     1   108.0100461 406.684800
   6180   6181   6183     1   108.0100461 406.684800
   6180   6184   6185     1   108.0100461 406.684800
   6180   6184   6186     1   108.0100461 406.684800
   6180   6187   6188     1   108.0100461 406.684800
   6180   6187   6189     1   108.0100461 406.684800
   6181   6180   6209     1   110.1100470 384.091200
   6181   6193   6194     1   109.8000471 387.438400
   6181   6193   6195     1   109.8000471 387.438400
   6182   6181   6193     1   110.5600475 386.601600
   6182   6181   6183     1   109.7500473 328.025600
   6183   6181   6193     1   110.5600475 386.601600
   6184   6180   6209     1   110.1100470 384.091200
   6184   6196   6197     1   109.8000471 387.438400
   6184   6196   6198     1   109.8000471 387.438400
   6185   6184   6196     1   110.5600475 386.601600
   6185   6184   6186     1   109.7500473 328.025600
   6186   6184   6196     1   110.5600475 386.601600
   6187   6180   6209     1   110.1100470 384.091200
   6187   6190   6191     1   109.8000471 387.438400
   6187   6190   6192     1   109.8000471 387.438400
   6188   6187   6190     1   110.5600475 386.601600
   6188   6187   6189     1   109.7500473 328.025600
   6189   6187   6190     1   110.5600475 386.601600
   6190   6199   6200     1   109.5600471 388.275200
   6190   6199   6201     1   109.5600471 388.275200
   6191   6190   6199     1   109.8000471 387.438400
   6191   6190   6192     1   107.5800459 329.699200
   6192   6190   6199     1   109.8000471 387.438400
   6193   6205   6206     1   109.5600471 388.275200
   6193   6205   6207     1   109.5600471 388.275200
   6194   6193   6205     1   109.8000471 387.438400
   6194   6193   6195     1   107.5800459 329.699200
   6195   6193   6205     1   109.8000471 387.438400
   6196   6202   6203     1   109.5600471 388.275200
   6196   6202   6204     1   109.5600471 388.275200
   6197   6196   6202     1   109.8000471 387.438400
   6197   6196   6198     1   107.5800459 329.699200
   6198   6196   6202     1   109.8000471 387.438400
   6200   6199   6208     1   109.7800468 425.094400
   6200   6199   6201     1   108.4600466 328.025600
   6201   6199   6208     1   109.7800468 425.094400
   6203   6202  11310     1   109.7800468 425.094400
   6203   6202   6204     1   108.4600466 328.025600
   6204   6202  11310     1   109.7800468 425.094400
   6206   6205  11333     1   109.7800468 425.094400
   6206   6205   6207     1   108.4600466 328.025600
   6207   6205  11333     1   109.7800468 425.094400
   6210   6211   6212     1   108.0100461 406.684800
   6210   6211   6213     1   108.0100461 406.684800
   6210   6214   6215     1   108.0100461 406.684800
   6210   6214   6216     1   108.0100461 406.684800
   6210   6217   6218     1   108.0100461 406.684800
   6210   6217   6219     1   108.0100461 406.684800
   6211   6210   6239     1   110.1100470 384.091200
   6211   6223   6224     1   109.8000471 387.438400
   6211   6223   6225     1   109.8000471 387.438400
   6212   6211   6223     1   110.5600475 386.601600
   6212   6211   6213     1   109.7500473 328.025600
   6213   6211   6223     1   110.5600475 386.601600
   6214   6210   6239     1   110.1100470 384.091200
   6214   6226   6227     1   109.8000471 387.438400
   6214   6226   6228     1   109.8000471 387.438400
   6215   6214   6226     1   110.5600475 386.601600
   6215   6214   6216     1   109.7500473 328.025600
   6216   6214   6226     1   110.5600475 386.601600
   6217   6210   6239     1   110.1100470 384.091200
   6217   6220   6221     1   109.8000471 387.438400
   6217   6220   6222     1   109.8000471 387.438400
   6218   6217   6220     1   110.5600475 386.601600
   6218   6217   6219     1   109.7500473 328.025600
   6219   6217   6220     1   110.5600475 386.601600
   6220   6229   6230     1   109.5600471 388.275200
   6220   6229   6231     1   109.5600471 388.275200
   6221   6220   6229     1   109.8000471 387.438400
   6221   6220   6222     1   107.5800459 329.699200
   6222   6220   6229     1   109.8000471 387.438400
   6223   6235   6236     1   109.5600471 388.275200
   6223   6235   6237     1   109.5600471 388.275200
   6224   6223   6235     1   109.8000471 387.438400
   6224   6223   6225     1   107.5800459 329.699200
   6225   6223   6235     1   109.8000471 387.438400
   6226   6232   6233     1   109.5600471 388.275200
   6226   6232   6234     1   109.5600471 388.275200
   6227   6226   6232     1   109.8000471 387.438400
   6227   6226   6228     1   107.5800459 329.699200
   6228   6226   6232     1   109.8000471 387.438400
   6230   6229   6238     1   109.7800468 425.094400
   6230   6229   6231     1   108.4600466 328.025600
   6231   6229   6238     1   109.7800468 425.094400
   6233   6232  11356     1   109.7800468 425.094400
   6233   6232   6234     1   108.4600466 328.025600
   6234   6232  11356     1   109.7800468 425.094400
   6236   6235  11379     1   109.7800468 425.094400
   6236   6235   6237     1   108.4600466 328.025600
   6237   6235  11379     1   109.7800468 425.094400
   6240   6241   6242     1   108.0100461 406.684800
   6240   6241   6243     1   108.0100461 406.684800
   6240   6244   6245     1   108.0100461 406.684800
   6240   6244   6246     1   108.0100461 406.684800
   6240   6247   6248     1   108.0100461 406.684800
   6240   6247   6249     1   108.0100461 406.684800
   6241   6240   6269     1   110.1100470 384.091200
   6241   6253   6254     1   109.8000471 387.438400
   6241   6253   6255     1   109.8000471 387.438400
   6242   6241   6253     1   110.5600475 386.601600
   6242   6241   6243     1   109.7500473 328.025600
   6243   6241   6253     1   110.5600475 386.601600
   6244   6240   6269     1   110.1100470 384.091200
   6244   6256   6257     1   109.8000471 387.438400
   6244   6256   6258     1   109.8000471 387.438400
   6245   6244   6256     1   110.5600475 386.601600
   6245   6244   6246     1   109.7500473 328.025600
   6246   6244   6256     1   110.5600475 386.601600
   6247   6240   6269     1   110.1100470 384.091200
   6247   6250   6251     1   109.8000471 387.438400
   6247   6250   6252     1   109.8000471 387.438400
   6248   6247   6250     1   110.5600475 386.601600
   6248   6247   6249     1   109.7500473 328.025600
   6249   6247   6250     1   110.5600475 386.601600
   6250   6259   6260     1   109.5600471 388.275200
   6250   6259   6261     1   109.5600471 388.275200
   6251   6250   6259     1   109.8000471 387.438400
   6251   6250   6252     1   107.5800459 329.699200
   6252   6250   6259     1   109.8000471 387.438400
   6253   6265   6266     1   109.5600471 388.275200
   6253   6265   6267     1   109.5600471 388.275200
   6254   6253   6265     1   109.8000471 387.438400
   6254   6253   6255     1   107.5800459 329.699200
   6255   6253   6265     1   109.8000471 387.438400
   6256   6262   6263     1   109.5600471 388.275200
   6256   6262   6264     1   109.5600471 388.275200
   6257   6256   6262     1   109.8000471 387.438400
   6257   6256   6258     1   107.5800459 329.699200
   6258   6256   6262     1   109.8000471 387.438400
   6260   6259   6268     1   109.7800468 425.094400
   6260   6259   6261     1   108.4600466 328.025600
   6261   6259   6268     1   109.7800468 425.094400
   6263   6262  11402     1   109.7800468 425.094400
   6263   6262   6264     1   108.4600466 328.025600
   6264   6262  11402     1   109.7800468 425.094400
   6266   6265  11425     1   109.7800468 425.094400
   6266   6265   6267     1   108.4600466 328.025600
   6267   6265  11425     1   109.7800468 425.094400
   6270   6271   6272     1   108.0100461 406.684800
   6270   6271   6273     1   108.0100461 406.684800
   6270   6274   6275     1   108.0100461 406.684800
   6270   6274   6276     1   108.0100461 406.684800
   6270   6277   6278     1   108.0100461 406.684800
   6270   6277   6279     1   108.0100461 406.684800
   6271   6270   6299     1   110.1100470 384.091200
   6271   6283   6284     1   109.8000471 387.438400
   6271   6283   6285     1   109.8000471 387.438400
   6272   6271   6283     1   110.5600475 386.601600
   6272   6271   6273     1   109.7500473 328.025600
   6273   6271   6283     1   110.5600475 386.601600
   6274   6270   6299     1   110.1100470 384.091200
   6274   6286   6287     1   109.8000471 387.438400
   6274   6286   6288     1   109.8000471 387.438400
   6275   6274   6286     1   110.5600475 386.601600
   6275   6274   6276     1   109.7500473 328.025600
   6276   6274   6286     1   110.5600475 386.601600
   6277   6270   6299     1   110.1100470 384.091200
   6277   6280   6281     1   109.8000471 387.438400
   6277   6280   6282     1   109.8000471 387.438400
   6278   6277   6280     1   110.5600475 386.601600
   6278   6277   6279     1   109.7500473 328.025600
   6279   6277   6280     1   110.5600475 386.601600
   6280   6289   6290     1   109.5600471 388.275200
   6280   6289   6291     1   109.5600471 388.275200
   6281   6280   6289     1   109.8000471 387.438400
   6281   6280   6282     1   107.5800459 329.699200
   6282   6280   6289     1   109.8000471 387.438400
   6283   6295   6296     1   109.5600471 388.275200
   6283   6295   6297     1   109.5600471 388.275200
   6284   6283   6295     1   109.8000471 387.438400
   6284   6283   6285     1   107.5800459 329.699200
   6285   6283   6295     1   109.8000471 387.438400
   6286   6292   6293     1   109.5600471 388.275200
   6286   6292   6294     1   109.5600471 388.275200
   6287   6286   6292     1   109.8000471 387.438400
   6287   6286   6288     1   107.5800459 329.699200
   6288   6286   6292     1   109.8000471 387.438400
   6290   6289   6298     1   109.7800468 425.094400
   6290   6289   6291     1   108.4600466 328.025600
   6291   6289   6298     1   109.7800468 425.094400
   6293   6292  11448     1   109.7800468 425.094400
   6293   6292   6294     1   108.4600466 328.025600
   6294   6292  11448     1   109.7800468 425.094400
   6296   6295  11471     1   109.7800468 425.094400
   6296   6295   6297     1   108.4600466 328.025600
   6297   6295  11471     1   109.7800468 425.094400
   6300   6301   6302     1   108.0100461 406.684800
   6300   6301   6303     1   108.0100461 406.684800
   6300   6304   6305     1   108.0100461 406.684800
   6300   6304   6306     1   108.0100461 406.684800
   6300   6307   6308     1   108.0100461 406.684800
   6300   6307   6309     1   108.0100461 406.684800
   6301   6300   6329     1   110.1100470 384.091200
   6301   6313   6314     1   109.8000471 387.438400
   6301   6313   6315     1   109.8000471 387.438400
   6302   6301   6313     1   110.5600475 386.601600
   6302   6301   6303     1   109.7500473 328.025600
   6303   6301   6313     1   110.5600475 386.601600
   6304   6300   6329     1   110.1100470 384.091200
   6304   6316   6317     1   109.8000471 387.438400
   6304   6316   6318     1   109.8000471 387.438400
   6305   6304   6316     1   110.5600475 386.601600
   6305   6304   6306     1   109.7500473 328.025600
   6306   6304   6316     1   110.5600475 386.601600
   6307   6300   6329     1   110.1100470 384.091200
   6307   6310   6311     1   109.8000471 387.438400
   6307   6310   6312     1   109.8000471 387.438400
   6308   6307   6310     1   110.5600475 386.601600
   6308   6307   6309     1   109.7500473 328.025600
   6309   6307   6310     1   110.5600475 386.601600
   6310   6319   6320     1   109.5600471 388.275200
   6310   6319   6321     1   109.5600471 388.275200
   6311   6310   6319     1   109.8000471 387.438400
   6311   6310   6312     1   107.5800459 329.699200
   6312   6310   6319     1   109.8000471 387.438400
   6313   6325   6326     1   109.5600471 388.275200
   6313   6325   6327     1   109.5600471 388.275200
   6314   6313   6325     1   109.8000471 387.438400
   6314   6313   6315     1   107.5800459 329.699200
   6315   6313   6325     1   109.8000471 387.438400
   6316   6322   6323     1   109.5600471 388.275200
   6316   6322   6324     1   109.5600471 388.275200
   6317   6316   6322     1   109.8000471 387.438400
   6317   6316   6318     1   107.5800459 329.699200
   6318   6316   6322     1   109.8000471 387.438400
   6320   6319   6328     1   109.7800468 425.094400
   6320   6319   6321     1   108.4600466 328.025600
   6321   6319   6328     1   109.7800468 425.094400
   6323   6322  11494     1   109.7800468 425.094400
   6323   6322   6324     1   108.4600466 328.025600
   6324   6322  11494     1   109.7800468 425.094400
   6326   6325  11517     1   109.7800468 425.094400
   6326   6325   6327     1   108.4600466 328.025600
   6327   6325  11517     1   109.7800468 425.094400
   6330   6331   6332     1   108.0100461 406.684800
   6330   6331   6333     1   108.0100461 406.684800
   6330   6334   6335     1   108.0100461 406.684800
   6330   6334   6336     1   108.0100461 406.684800
   6330   6337   6338     1   108.0100461 406.684800
   6330   6337   6339     1   108.0100461 406.684800
   6331   6330   6359     1   110.1100470 384.091200
   6331   6343   6344     1   109.8000471 387.438400
   6331   6343   6345     1   109.8000471 387.438400
   6332   6331   6343     1   110.5600475 386.601600
   6332   6331   6333     1   109.7500473 328.025600
   6333   6331   6343     1   110.5600475 386.601600
   6334   6330   6359     1   110.1100470 384.091200
   6334   6346   6347     1   109.8000471 387.438400
   6334   6346   6348     1   109.8000471 387.438400
   6335   6334   6346     1   110.5600475 386.601600
   6335   6334   6336     1   109.7500473 328.025600
   6336   6334   6346     1   110.5600475 386.601600
   6337   6330   6359     1   110.1100470 384.091200
   6337   6340   6341     1   109.8000471 387.438400
   6337   6340   6342     1   109.8000471 387.438400
   6338   6337   6340     1   110.5600475 386.601600
   6338   6337   6339     1   109.7500473 328.025600
   6339   6337   6340     1   110.5600475 386.601600
   6340   6349   6350     1   109.5600471 388.275200
   6340   6349   6351     1   109.5600471 388.275200
   6341   6340   6349     1   109.8000471 387.438400
   6341   6340   6342     1   107.5800459 329.699200
   6342   6340   6349     1   109.8000471 387.438400
   6343   6355   6356     1   109.5600471 388.275200
   6343   6355   6357     1   109.5600471 388.275200
   6344   6343   6355     1   109.8000471 387.438400
   6344   6343   6345     1   107.5800459 329.699200
   6345   6343   6355     1   109.8000471 387.438400
   6346   6352   6353     1   109.5600471 388.275200
   6346   6352   6354     1   109.5600471 388.275200
   6347   6346   6352     1   109.8000471 387.438400
   6347   6346   6348     1   107.5800459 329.699200
   6348   6346   6352     1   109.8000471 387.438400
   6350   6349   6358     1   109.7800468 425.094400
   6350   6349   6351     1   108.4600466 328.025600
   6351   6349   6358     1   109.7800468 425.094400
   6353   6352  11540     1   109.7800468 425.094400
   6353   6352   6354     1   108.4600466 328.025600
   6354   6352  11540     1   109.7800468 425.094400
   6356   6355  11563     1   109.7800468 425.094400
   6356   6355   6357     1   108.4600466 328.025600
   6357   6355  11563     1   109.7800468 425.094400
   6360   6361   6362     1   108.0100461 406.684800
   6360   6361   6363     1   108.0100461 406.684800
   6360   6364   6365     1   108.0100461 406.684800
   6360   6364   6366     1   108.0100461 406.684800
   6360   6367   6368     1   108.0100461 406.684800
   6360   6367   6369     1   108.0100461 406.684800
   6361   6360   6389     1   110.1100470 384.091200
   6361   6373   6374     1   109.8000471 387.438400
   6361   6373   6375     1   109.8000471 387.438400
   6362   6361   6373     1   110.5600475 386.601600
   6362   6361   6363     1   109.7500473 328.025600
   6363   6361   6373     1   110.5600475 386.601600
   6364   6360   6389     1   110.1100470 384.091200
   6364   6376   6377     1   109.8000471 387.438400
   6364   6376   6378     1   109.8000471 387.438400
   6365   6364   6376     1   110.5600475 386.601600
   6365   6364   6366     1   109.7500473 328.025600
   6366   6364   6376     1   110.5600475 386.601600
   6367   6360   6389     1   110.1100470 384.091200
   6367   6370   6371     1   109.8000471 387.438400
   6367   6370   6372     1   109.8000471 387.438400
   6368   6367   6370     1   110.5600475 386.601600
   6368   6367   6369     1   109.7500473 328.025600
   6369   6367   6370     1   110.5600475 386.601600
   6370   6379   6380     1   109.5600471 388.275200
   6370   6379   6381     1   109.5600471 388.275200
   6371   6370   6379     1   109.8000471 387.438400
   6371   6370   6372     1   107.5800459 329.699200
   6372   6370   6379     1   109.8000471 387.438400
   6373   6385   6386     1   109.5600471 388.275200
   6373   6385   6387     1   109.5600471 388.275200
   6374   6373   6385     1   109.8000471 387.438400
   6374   6373   6375     1   107.5800459 329.699200
   6375   6373   6385     1   109.8000471 387.438400
   6376   6382   6383     1   109.5600471 388.275200
   6376   6382   6384     1   109.5600471 388.275200
   6377   6376   6382     1   109.8000471 387.438400
   6377   6376   6378     1   107.5800459 329.699200
   6378   6376   6382     1   109.8000471 387.438400
   6380   6379   6388     1   109.7800468 425.094400
   6380   6379   6381     1   108.4600466 328.025600
   6381   6379   6388     1   109.7800468 425.094400
   6383   6382  11586     1   109.7800468 425.094400
   6383   6382   6384     1   108.4600466 328.025600
   6384   6382  11586     1   109.7800468 425.094400
   6386   6385  11609     1   109.7800468 425.094400
   6386   6385   6387     1   108.4600466 328.025600
   6387   6385  11609     1   109.7800468 425.094400
   6390   6391   6392     1   108.0100461 406.684800
   6390   6391   6393     1   108.0100461 406.684800
   6390   6394   6395     1   108.0100461 406.684800
   6390   6394   6396     1   108.0100461 406.684800
   6390   6397   6398     1   108.0100461 406.684800
   6390   6397   6399     1   108.0100461 406.684800
   6391   6390   6419     1   110.1100470 384.091200
   6391   6403   6404     1   109.8000471 387.438400
   6391   6403   6405     1   109.8000471 387.438400
   6392   6391   6403     1   110.5600475 386.601600
   6392   6391   6393     1   109.7500473 328.025600
   6393   6391   6403     1   110.5600475 386.601600
   6394   6390   6419     1   110.1100470 384.091200
   6394   6406   6407     1   109.8000471 387.438400
   6394   6406   6408     1   109.8000471 387.438400
   6395   6394   6406     1   110.5600475 386.601600
   6395   6394   6396     1   109.7500473 328.025600
   6396   6394   6406     1   110.5600475 386.601600
   6397   6390   6419     1   110.1100470 384.091200
   6397   6400   6401     1   109.8000471 387.438400
   6397   6400   6402     1   109.8000471 387.438400
   6398   6397   6400     1   110.5600475 386.601600
   6398   6397   6399     1   109.7500473 328.025600
   6399   6397   6400     1   110.5600475 386.601600
   6400   6409   6410     1   109.5600471 388.275200
   6400   6409   6411     1   109.5600471 388.275200
   6401   6400   6409     1   109.8000471 387.438400
   6401   6400   6402     1   107.5800459 329.699200
   6402   6400   6409     1   109.8000471 387.438400
   6403   6415   6416     1   109.5600471 388.275200
   6403   6415   6417     1   109.5600471 388.275200
   6404   6403   6415     1   109.8000471 387.438400
   6404   6403   6405     1   107.5800459 329.699200
   6405   6403   6415     1   109.8000471 387.438400
   6406   6412   6413     1   109.5600471 388.275200
   6406   6412   6414     1   109.5600471 388.275200
   6407   6406   6412     1   109.8000471 387.438400
   6407   6406   6408     1   107.5800459 329.699200
   6408   6406   6412     1   109.8000471 387.438400
   6410   6409   6418     1   109.7800468 425.094400
   6410   6409   6411     1   108.4600466 328.025600
   6411   6409   6418     1   109.7800468 425.094400
   6413   6412  11632     1   109.7800468 425.094400
   6413   6412   6414     1   108.4600466 328.025600
   6414   6412  11632     1   109.7800468 425.094400
   6416   6415  11655     1   109.7800468 425.094400
   6416   6415   6417     1   108.4600466 328.025600
   6417   6415  11655     1   109.7800468 425.094400
   6420   6421   6422     1   108.0100461 406.684800
   6420   6421   6423     1   108.0100461 406.684800
   6420   6424   6425     1   108.0100461 406.684800
   6420   6424   6426     1   108.0100461 406.684800
   6420   6427   6428     1   108.0100461 406.684800
   6420   6427   6429     1   108.0100461 406.684800
   6421   6420   6449     1   110.1100470 384.091200
   6421   6433   6434     1   109.8000471 387.438400
   6421   6433   6435     1   109.8000471 387.438400
   6422   6421   6433     1   110.5600475 386.601600
   6422   6421   6423     1   109.7500473 328.025600
   6423   6421   6433     1   110.5600475 386.601600
   6424   6420   6449     1   110.1100470 384.091200
   6424   6436   6437     1   109.8000471 387.438400
   6424   6436   6438     1   109.8000471 387.438400
   6425   6424   6436     1   110.5600475 386.601600
   6425   6424   6426     1   109.7500473 328.025600
   6426   6424   6436     1   110.5600475 386.601600
   6427   6420   6449     1   110.1100470 384.091200
   6427   6430   6431     1   109.8000471 387.438400
   6427   6430   6432     1   109.8000471 387.438400
   6428   6427   6430     1   110.5600475 386.601600
   6428   6427   6429     1   109.7500473 328.025600
   6429   6427   6430     1   110.5600475 386.601600
   6430   6439   6440     1   109.5600471 388.275200
   6430   6439   6441     1   109.5600471 388.275200
   6431   6430   6439     1   109.8000471 387.438400
   6431   6430   6432     1   107.5800459 329.699200
   6432   6430   6439     1   109.8000471 387.438400
   6433   6445   6446     1   109.5600471 388.275200
   6433   6445   6447     1   109.5600471 388.275200
   6434   6433   6445     1   109.8000471 387.438400
   6434   6433   6435     1   107.5800459 329.699200
   6435   6433   6445     1   109.8000471 387.438400
   6436   6442   6443     1   109.5600471 388.275200
   6436   6442   6444     1   109.5600471 388.275200
   6437   6436   6442     1   109.8000471 387.438400
   6437   6436   6438     1   107.5800459 329.699200
   6438   6436   6442     1   109.8000471 387.438400
   6440   6439   6448     1   109.7800468 425.094400
   6440   6439   6441     1   108.4600466 328.025600
   6441   6439   6448     1   109.7800468 425.094400
   6443   6442  11678     1   109.7800468 425.094400
   6443   6442   6444     1   108.4600466 328.025600
   6444   6442  11678     1   109.7800468 425.094400
   6446   6445  11701     1   109.7800468 425.094400
   6446   6445   6447     1   108.4600466 328.025600
   6447   6445  11701     1   109.7800468 425.094400
   6450   6451   6452     1   108.0100461 406.684800
   6450   6451   6453     1   108.0100461 406.684800
   6450   6454   6455     1   108.0100461 406.684800
   6450   6454   6456     1   108.0100461 406.684800
   6450   6457   6458     1   108.0100461 406.684800
   6450   6457   6459     1   108.0100461 406.684800
   6451   6450   6479     1   110.1100470 384.091200
   6451   6463   6464     1   109.8000471 387.438400
   6451   6463   6465     1   109.8000471 387.438400
   6452   6451   6463     1   110.5600475 386.601600
   6452   6451   6453     1   109.7500473 328.025600
   6453   6451   6463     1   110.5600475 386.601600
   6454   6450   6479     1   110.1100470 384.091200
   6454   6466   6467     1   109.8000471 387.438400
   6454   6466   6468     1   109.8000471 387.438400
   6455   6454   6466     1   110.5600475 386.601600
   6455   6454   6456     1   109.7500473 328.025600
   6456   6454   6466     1   110.5600475 386.601600
   6457   6450   6479     1   110.1100470 384.091200
   6457   6460   6461     1   109.8000471 387.438400
   6457   6460   6462     1   109.8000471 387.438400
   6458   6457   6460     1   110.5600475 386.601600
   6458   6457   6459     1   109.7500473 328.025600
   6459   6457   6460     1   110.5600475 386.601600
   6460   6469   6470     1   109.5600471 388.275200
   6460   6469   6471     1   109.5600471 388.275200
   6461   6460   6469     1   109.8000471 387.438400
   6461   6460   6462     1   107.5800459 329.699200
   6462   6460   6469     1   109.8000471 387.438400
   6463   6475   6476     1   109.5600471 388.275200
   6463   6475   6477     1   109.5600471 388.275200
   6464   6463   6475     1   109.8000471 387.438400
   6464   6463   6465     1   107.5800459 329.699200
   6465   6463   6475     1   109.8000471 387.438400
   6466   6472   6473     1   109.5600471 388.275200
   6466   6472   6474     1   109.5600471 388.275200
   6467   6466   6472     1   109.8000471 387.438400
   6467   6466   6468     1   107.5800459 329.699200
   6468   6466   6472     1   109.8000471 387.438400
   6470   6469   6478     1   109.7800468 425.094400
   6470   6469   6471     1   108.4600466 328.025600
   6471   6469   6478     1   109.7800468 425.094400
   6473   6472  11724     1   109.7800468 425.094400
   6473   6472   6474     1   108.4600466 328.025600
   6474   6472  11724     1   109.7800468 425.094400
   6476   6475  11747     1   109.7800468 425.094400
   6476   6475   6477     1   108.4600466 328.025600
   6477   6475  11747     1   109.7800468 425.094400
   6480   6481   6482     1   108.0100461 406.684800
   6480   6481   6483     1   108.0100461 406.684800
   6480   6484   6485     1   108.0100461 406.684800
   6480   6484   6486     1   108.0100461 406.684800
   6480   6487   6488     1   108.0100461 406.684800
   6480   6487   6489     1   108.0100461 406.684800
   6481   6480   6509     1   110.1100470 384.091200
   6481   6493   6494     1   109.8000471 387.438400
   6481   6493   6495     1   109.8000471 387.438400
   6482   6481   6493     1   110.5600475 386.601600
   6482   6481   6483     1   109.7500473 328.025600
   6483   6481   6493     1   110.5600475 386.601600
   6484   6480   6509     1   110.1100470 384.091200
   6484   6496   6497     1   109.8000471 387.438400
   6484   6496   6498     1   109.8000471 387.438400
   6485   6484   6496     1   110.5600475 386.601600
   6485   6484   6486     1   109.7500473 328.025600
   6486   6484   6496     1   110.5600475 386.601600
   6487   6480   6509     1   110.1100470 384.091200
   6487   6490   6491     1   109.8000471 387.438400
   6487   6490   6492     1   109.8000471 387.438400
   6488   6487   6490     1   110.5600475 386.601600
   6488   6487   6489     1   109.7500473 328.025600
   6489   6487   6490     1   110.5600475 386.601600
   6490   6499   6500     1   109.5600471 388.275200
   6490   6499   6501     1   109.5600471 388.275200
   6491   6490   6499     1   109.8000471 387.438400
   6491   6490   6492     1   107.5800459 329.699200
   6492   6490   6499     1   109.8000471 387.438400
   6493   6505   6506     1   109.5600471 388.275200
   6493   6505   6507     1   109.5600471 388.275200
   6494   6493   6505     1   109.8000471 387.438400
   6494   6493   6495     1   107.5800459 329.699200
   6495   6493   6505     1   109.8000471 387.438400
   6496   6502   6503     1   109.5600471 388.275200
   6496   6502   6504     1   109.5600471 388.275200
   6497   6496   6502     1   109.8000471 387.438400
   6497   6496   6498     1   107.5800459 329.699200
   6498   6496   6502     1   109.8000471 387.438400
   6500   6499   6508     1   109.7800468 425.094400
   6500   6499   6501     1   108.4600466 328.025600
   6501   6499   6508     1   109.7800468 425.094400
   6503   6502  11770     1   109.7800468 425.094400
   6503   6502   6504     1   108.4600466 328.025600
   6504   6502  11770     1   109.7800468 425.094400
   6506   6505  11793     1   109.7800468 425.094400
   6506   6505   6507     1   108.4600466 328.025600
   6507   6505  11793     1   109.7800468 425.094400
   6510   6511   6512     1   108.0100461 406.684800
   6510   6511   6513     1   108.0100461 406.684800
   6510   6514   6515     1   108.0100461 406.684800
   6510   6514   6516     1   108.0100461 406.684800
   6510   6517   6518     1   108.0100461 406.684800
   6510   6517   6519     1   108.0100461 406.684800
   6511   6510   6539     1   110.1100470 384.091200
   6511   6523   6524     1   109.8000471 387.438400
   6511   6523   6525     1   109.8000471 387.438400
   6512   6511   6523     1   110.5600475 386.601600
   6512   6511   6513     1   109.7500473 328.025600
   6513   6511   6523     1   110.5600475 386.601600
   6514   6510   6539     1   110.1100470 384.091200
   6514   6526   6527     1   109.8000471 387.438400
   6514   6526   6528     1   109.8000471 387.438400
   6515   6514   6526     1   110.5600475 386.601600
   6515   6514   6516     1   109.7500473 328.025600
   6516   6514   6526     1   110.5600475 386.601600
   6517   6510   6539     1   110.1100470 384.091200
   6517   6520   6521     1   109.8000471 387.438400
   6517   6520   6522     1   109.8000471 387.438400
   6518   6517   6520     1   110.5600475 386.601600
   6518   6517   6519     1   109.7500473 328.025600
   6519   6517   6520     1   110.5600475 386.601600
   6520   6529   6530     1   109.5600471 388.275200
   6520   6529   6531     1   109.5600471 388.275200
   6521   6520   6529     1   109.8000471 387.438400
   6521   6520   6522     1   107.5800459 329.699200
   6522   6520   6529     1   109.8000471 387.438400
   6523   6535   6536     1   109.5600471 388.275200
   6523   6535   6537     1   109.5600471 388.275200
   6524   6523   6535     1   109.8000471 387.438400
   6524   6523   6525     1   107.5800459 329.699200
   6525   6523   6535     1   109.8000471 387.438400
   6526   6532   6533     1   109.5600471 388.275200
   6526   6532   6534     1   109.5600471 388.275200
   6527   6526   6532     1   109.8000471 387.438400
   6527   6526   6528     1   107.5800459 329.699200
   6528   6526   6532     1   109.8000471 387.438400
   6530   6529   6538     1   109.7800468 425.094400
   6530   6529   6531     1   108.4600466 328.025600
   6531   6529   6538     1   109.7800468 425.094400
   6533   6532  11816     1   109.7800468 425.094400
   6533   6532   6534     1   108.4600466 328.025600
   6534   6532  11816     1   109.7800468 425.094400
   6536   6535  11839     1   109.7800468 425.094400
   6536   6535   6537     1   108.4600466 328.025600
   6537   6535  11839     1   109.7800468 425.094400
   6540   6541   6542     1   108.0100461 406.684800
   6540   6541   6543     1   108.0100461 406.684800
   6540   6544   6545     1   108.0100461 406.684800
   6540   6544   6546     1   108.0100461 406.684800
   6540   6547   6548     1   108.0100461 406.684800
   6540   6547   6549     1   108.0100461 406.684800
   6541   6540   6569     1   110.1100470 384.091200
   6541   6553   6554     1   109.8000471 387.438400
   6541   6553   6555     1   109.8000471 387.438400
   6542   6541   6553     1   110.5600475 386.601600
   6542   6541   6543     1   109.7500473 328.025600
   6543   6541   6553     1   110.5600475 386.601600
   6544   6540   6569     1   110.1100470 384.091200
   6544   6556   6557     1   109.8000471 387.438400
   6544   6556   6558     1   109.8000471 387.438400
   6545   6544   6556     1   110.5600475 386.601600
   6545   6544   6546     1   109.7500473 328.025600
   6546   6544   6556     1   110.5600475 386.601600
   6547   6540   6569     1   110.1100470 384.091200
   6547   6550   6551     1   109.8000471 387.438400
   6547   6550   6552     1   109.8000471 387.438400
   6548   6547   6550     1   110.5600475 386.601600
   6548   6547   6549     1   109.7500473 328.025600
   6549   6547   6550     1   110.5600475 386.601600
   6550   6559   6560     1   109.5600471 388.275200
   6550   6559   6561     1   109.5600471 388.275200
   6551   6550   6559     1   109.8000471 387.438400
   6551   6550   6552     1   107.5800459 329.699200
   6552   6550   6559     1   109.8000471 387.438400
   6553   6565   6566     1   109.5600471 388.275200
   6553   6565   6567     1   109.5600471 388.275200
   6554   6553   6565     1   109.8000471 387.438400
   6554   6553   6555     1   107.5800459 329.699200
   6555   6553   6565     1   109.8000471 387.438400
   6556   6562   6563     1   109.5600471 388.275200
   6556   6562   6564     1   109.5600471 388.275200
   6557   6556   6562     1   109.8000471 387.438400
   6557   6556   6558     1   107.5800459 329.699200
   6558   6556   6562     1   109.8000471 387.438400
   6560   6559   6568     1   109.7800468 425.094400
   6560   6559   6561     1   108.4600466 328.025600
   6561   6559   6568     1   109.7800468 425.094400
   6563   6562  11862     1   109.7800468 425.094400
   6563   6562   6564     1   108.4600466 328.025600
   6564   6562  11862     1   109.7800468 425.094400
   6566   6565  11885     1   109.7800468 425.094400
   6566   6565   6567     1   108.4600466 328.025600
   6567   6565  11885     1   109.7800468 425.094400
   6570   6571   6572     1   108.0100461 406.684800
   6570   6571   6573     1   108.0100461 406.684800
   6570   6574   6575     1   108.0100461 406.684800
   6570   6574   6576     1   108.0100461 406.684800
   6570   6577   6578     1   108.0100461 406.684800
   6570   6577   6579     1   108.0100461 406.684800
   6571   6570   6599     1   110.1100470 384.091200
   6571   6583   6584     1   109.8000471 387.438400
   6571   6583   6585     1   109.8000471 387.438400
   6572   6571   6583     1   110.5600475 386.601600
   6572   6571   6573     1   109.7500473 328.025600
   6573   6571   6583     1   110.5600475 386.601600
   6574   6570   6599     1   110.1100470 384.091200
   6574   6586   6587     1   109.8000471 387.438400
   6574   6586   6588     1   109.8000471 387.438400
   6575   6574   6586     1   110.5600475 386.601600
   6575   6574   6576     1   109.7500473 328.025600
   6576   6574   6586     1   110.5600475 386.601600
   6577   6570   6599     1   110.1100470 384.091200
   6577   6580   6581     1   109.8000471 387.438400
   6577   6580   6582     1   109.8000471 387.438400
   6578   6577   6580     1   110.5600475 386.601600
   6578   6577   6579     1   109.7500473 328.025600
   6579   6577   6580     1   110.5600475 386.601600
   6580   6589   6590     1   109.5600471 388.275200
   6580   6589   6591     1   109.5600471 388.275200
   6581   6580   6589     1   109.8000471 387.438400
   6581   6580   6582     1   107.5800459 329.699200
   6582   6580   6589     1   109.8000471 387.438400
   6583   6595   6596     1   109.5600471 388.275200
   6583   6595   6597     1   109.5600471 388.275200
   6584   6583   6595     1   109.8000471 387.438400
   6584   6583   6585     1   107.5800459 329.699200
   6585   6583   6595     1   109.8000471 387.438400
   6586   6592   6593     1   109.5600471 388.275200
   6586   6592   6594     1   109.5600471 388.275200
   6587   6586   6592     1   109.8000471 387.438400
   6587   6586   6588     1   107.5800459 329.699200
   6588   6586   6592     1   109.8000471 387.438400
   6590   6589   6598     1   109.7800468 425.094400
   6590   6589   6591     1   108.4600466 328.025600
   6591   6589   6598     1   109.7800468 425.094400
   6593   6592  11908     1   109.7800468 425.094400
   6593   6592   6594     1   108.4600466 328.025600
   6594   6592  11908     1   109.7800468 425.094400
   6596   6595  11931     1   109.7800468 425.094400
   6596   6595   6597     1   108.4600466 328.025600
   6597   6595  11931     1   109.7800468 425.094400
   6600   6601   6602     1   108.0100461 406.684800
   6600   6601   6603     1   108.0100461 406.684800
   6600   6604   6605     1   108.0100461 406.684800
   6600   6604   6606     1   108.0100461 406.684800
   6600   6607   6608     1   108.0100461 406.684800
   6600   6607   6609     1   108.0100461 406.684800
   6601   6600   6629     1   110.1100470 384.091200
   6601   6613   6614     1   109.8000471 387.438400
   6601   6613   6615     1   109.8000471 387.438400
   6602   6601   6613     1   110.5600475 386.601600
   6602   6601   6603     1   109.7500473 328.025600
   6603   6601   6613     1   110.5600475 386.601600
   6604   6600   6629     1   110.1100470 384.091200
   6604   6616   6617     1   109.8000471 387.438400
   6604   6616   6618     1   109.8000471 387.438400
   6605   6604   6616     1   110.5600475 386.601600
   6605   6604   6606     1   109.7500473 328.025600
   6606   6604   6616     1   110.5600475 386.601600
   6607   6600   6629     1   110.1100470 384.091200
   6607   6610   6611     1   109.8000471 387.438400
   6607   6610   6612     1   109.8000471 387.438400
   6608   6607   6610     1   110.5600475 386.601600
   6608   6607   6609     1   109.7500473 328.025600
   6609   6607   6610     1   110.5600475 386.601600
   6610   6619   6620     1   109.5600471 388.275200
   6610   6619   6621     1   109.5600471 388.275200
   6611   6610   6619     1   109.8000471 387.438400
   6611   6610   6612     1   107.5800459 329.699200
   6612   6610   6619     1   109.8000471 387.438400
   6613   6625   6626     1   109.5600471 388.275200
   6613   6625   6627     1   109.5600471 388.275200
   6614   6613   6625     1   109.8000471 387.438400
   6614   6613   6615     1   107.5800459 329.699200
   6615   6613   6625     1   109.8000471 387.438400
   6616   6622   6623     1   109.5600471 388.275200
   6616   6622   6624     1   109.5600471 388.275200
   6617   6616   6622     1   109.8000471 387.438400
   6617   6616   6618     1   107.5800459 329.699200
   6618   6616   6622     1   109.8000471 387.438400
   6620   6619   6628     1   109.7800468 425.094400
   6620   6619   6621     1   108.4600466 328.025600
   6621   6619   6628     1   109.7800468 425.094400
   6623   6622  11954     1   109.7800468 425.094400
   6623   6622   6624     1   108.4600466 328.025600
   6624   6622  11954     1   109.7800468 425.094400
   6626   6625  11977     1   109.7800468 425.094400
   6626   6625   6627     1   108.4600466 328.025600
   6627   6625  11977     1   109.7800468 425.094400
   6630   6631   6632     1   108.0100461 406.684800
   6630   6631   6633     1   108.0100461 406.684800
   6630   6634   6635     1   108.0100461 406.684800
   6630   6634   6636     1   108.0100461 406.684800
   6630   6637   6638     1   108.0100461 406.684800
   6630   6637   6639     1   108.0100461 406.684800
   6631   6630   6659     1   110.1100470 384.091200
   6631   6643   6644     1   109.8000471 387.438400
   6631   6643   6645     1   109.8000471 387.438400
   6632   6631   6643     1   110.5600475 386.601600
   6632   6631   6633     1   109.7500473 328.025600
   6633   6631   6643     1   110.5600475 386.601600
   6634   6630   6659     1   110.1100470 384.091200
   6634   6646   6647     1   109.8000471 387.438400
   6634   6646   6648     1   109.8000471 387.438400
   6635   6634   6646     1   110.5600475 386.601600
   6635   6634   6636     1   109.7500473 328.025600
   6636   6634   6646     1   110.5600475 386.601600
   6637   6630   6659     1   110.1100470 384.091200
   6637   6640   6641     1   109.8000471 387.438400
   6637   6640   6642     1   109.8000471 387.438400
   6638   6637   6640     1   110.5600475 386.601600
   6638   6637   6639     1   109.7500473 328.025600
   6639   6637   6640     1   110.5600475 386.601600
   6640   6649   6650     1   109.5600471 388.275200
   6640   6649   6651     1   109.5600471 388.275200
   6641   6640   6649     1   109.8000471 387.438400
   6641   6640   6642     1   107.5800459 329.699200
   6642   6640   6649     1   109.8000471 387.438400
   6643   6655   6656     1   109.5600471 388.275200
   6643   6655   6657     1   109.5600471 388.275200
   6644   6643   6655     1   109.8000471 387.438400
   6644   6643   6645     1   107.5800459 329.699200
   6645   6643   6655     1   109.8000471 387.438400
   6646   6652   6653     1   109.5600471 388.275200
   6646   6652   6654     1   109.5600471 388.275200
   6647   6646   6652     1   109.8000471 387.438400
   6647   6646   6648     1   107.5800459 329.699200
   6648   6646   6652     1   109.8000471 387.438400
   6650   6649   6658     1   109.7800468 425.094400
   6650   6649   6651     1   108.4600466 328.025600
   6651   6649   6658     1   109.7800468 425.094400
   6653   6652  12000     1   109.7800468 425.094400
   6653   6652   6654     1   108.4600466 328.025600
   6654   6652  12000     1   109.7800468 425.094400
   6656   6655  12023     1   109.7800468 425.094400
   6656   6655   6657     1   108.4600466 328.025600
   6657   6655  12023     1   109.7800468 425.094400
   6660   6661   6662     1   108.0100461 406.684800
   6660   6661   6663     1   108.0100461 406.684800
   6660   6664   6665     1   108.0100461 406.684800
   6660   6664   6666     1   108.0100461 406.684800
   6660   6667   6668     1   108.0100461 406.684800
   6660   6667   6669     1   108.0100461 406.684800
   6661   6660   6689     1   110.1100470 384.091200
   6661   6673   6674     1   109.8000471 387.438400
   6661   6673   6675     1   109.8000471 387.438400
   6662   6661   6673     1   110.5600475 386.601600
   6662   6661   6663     1   109.7500473 328.025600
   6663   6661   6673     1   110.5600475 386.601600
   6664   6660   6689     1   110.1100470 384.091200
   6664   6676   6677     1   109.8000471 387.438400
   6664   6676   6678     1   109.8000471 387.438400
   6665   6664   6676     1   110.5600475 386.601600
   6665   6664   6666     1   109.7500473 328.025600
   6666   6664   6676     1   110.5600475 386.601600
   6667   6660   6689     1   110.1100470 384.091200
   6667   6670   6671     1   109.8000471 387.438400
   6667   6670   6672     1   109.8000471 387.438400
   6668   6667   6670     1   110.5600475 386.601600
   6668   6667   6669     1   109.7500473 328.025600
   6669   6667   6670     1   110.5600475 386.601600
   6670   6679   6680     1   109.5600471 388.275200
   6670   6679   6681     1   109.5600471 388.275200
   6671   6670   6679     1   109.8000471 387.438400
   6671   6670   6672     1   107.5800459 329.699200
   6672   6670   6679     1   109.8000471 387.438400
   6673   6685   6686     1   109.5600471 388.275200
   6673   6685   6687     1   109.5600471 388.275200
   6674   6673   6685     1   109.8000471 387.438400
   6674   6673   6675     1   107.5800459 329.699200
   6675   6673   6685     1   109.8000471 387.438400
   6676   6682   6683     1   109.5600471 388.275200
   6676   6682   6684     1   109.5600471 388.275200
   6677   6676   6682     1   109.8000471 387.438400
   6677   6676   6678     1   107.5800459 329.699200
   6678   6676   6682     1   109.8000471 387.438400
   6680   6679   6688     1   109.7800468 425.094400
   6680   6679   6681     1   108.4600466 328.025600
   6681   6679   6688     1   109.7800468 425.094400
   6683   6682  12046     1   109.7800468 425.094400
   6683   6682   6684     1   108.4600466 328.025600
   6684   6682  12046     1   109.7800468 425.094400
   6686   6685  12069     1   109.7800468 425.094400
   6686   6685   6687     1   108.4600466 328.025600
   6687   6685  12069     1   109.7800468 425.094400
   6690   6691   6692     1   108.0100461 406.684800
   6690   6691   6693     1   108.0100461 406.684800
   6690   6694   6695     1   108.0100461 406.684800
   6690   6694   6696     1   108.0100461 406.684800
   6690   6697   6698     1   108.0100461 406.684800
   6690   6697   6699     1   108.0100461 406.684800
   6691   6690   6719     1   110.1100470 384.091200
   6691   6703   6704     1   109.8000471 387.438400
   6691   6703   6705     1   109.8000471 387.438400
   6692   6691   6703     1   110.5600475 386.601600
   6692   6691   6693     1   109.7500473 328.025600
   6693   6691   6703     1   110.5600475 386.601600
   6694   6690   6719     1   110.1100470 384.091200
   6694   6706   6707     1   109.8000471 387.438400
   6694   6706   6708     1   109.8000471 387.438400
   6695   6694   6706     1   110.5600475 386.601600
   6695   6694   6696     1   109.7500473 328.025600
   6696   6694   6706     1   110.5600475 386.601600
   6697   6690   6719     1   110.1100470 384.091200
   6697   6700   6701     1   109.8000471 387.438400
   6697   6700   6702     1   109.8000471 387.438400
   6698   6697   6700     1   110.5600475 386.601600
   6698   6697   6699     1   109.7500473 328.025600
   6699   6697   6700     1   110.5600475 386.601600
   6700   6709   6710     1   109.5600471 388.275200
   6700   6709   6711     1   109.5600471 388.275200
   6701   6700   6709     1   109.8000471 387.438400
   6701   6700   6702     1   107.5800459 329.699200
   6702   6700   6709     1   109.8000471 387.438400
   6703   6715   6716     1   109.5600471 388.275200
   6703   6715   6717     1   109.5600471 388.275200
   6704   6703   6715     1   109.8000471 387.438400
   6704   6703   6705     1   107.5800459 329.699200
   6705   6703   6715     1   109.8000471 387.438400
   6706   6712   6713     1   109.5600471 388.275200
   6706   6712   6714     1   109.5600471 388.275200
   6707   6706   6712     1   109.8000471 387.438400
   6707   6706   6708     1   107.5800459 329.699200
   6708   6706   6712     1   109.8000471 387.438400
   6710   6709   6718     1   109.7800468 425.094400
   6710   6709   6711     1   108.4600466 328.025600
   6711   6709   6718     1   109.7800468 425.094400
   6713   6712  12092     1   109.7800468 425.094400
   6713   6712   6714     1   108.4600466 328.025600
   6714   6712  12092     1   109.7800468 425.094400
   6716   6715  12115     1   109.7800468 425.094400
   6716   6715   6717     1   108.4600466 328.025600
   6717   6715  12115     1   109.7800468 425.094400
   6720   6721   6722     1   108.0100461 406.684800
   6720   6721   6723     1   108.0100461 406.684800
   6720   6724   6725     1   108.0100461 406.684800
   6720   6724   6726     1   108.0100461 406.684800
   6720   6727   6728     1   108.0100461 406.684800
   6720   6727   6729     1   108.0100461 406.684800
   6721   6720   6749     1   110.1100470 384.091200
   6721   6733   6734     1   109.8000471 387.438400
   6721   6733   6735     1   109.8000471 387.438400
   6722   6721   6733     1   110.5600475 386.601600
   6722   6721   6723     1   109.7500473 328.025600
   6723   6721   6733     1   110.5600475 386.601600
   6724   6720   6749     1   110.1100470 384.091200
   6724   6736   6737     1   109.8000471 387.438400
   6724   6736   6738     1   109.8000471 387.438400
   6725   6724   6736     1   110.5600475 386.601600
   6725   6724   6726     1   109.7500473 328.025600
   6726   6724   6736     1   110.5600475 386.601600
   6727   6720   6749     1   110.1100470 384.091200
   6727   6730   6731     1   109.8000471 387.438400
   6727   6730   6732     1   109.8000471 387.438400
   6728   6727   6730     1   110.5600475 386.601600
   6728   6727   6729     1   109.7500473 328.025600
   6729   6727   6730     1   110.5600475 386.601600
   6730   6739   6740     1   109.5600471 388.275200
   6730   6739   6741     1   109.5600471 388.275200
   6731   6730   6739     1   109.8000471 387.438400
   6731   6730   6732     1   107.5800459 329.699200
   6732   6730   6739     1   109.8000471 387.438400
   6733   6745   6746     1   109.5600471 388.275200
   6733   6745   6747     1   109.5600471 388.275200
   6734   6733   6745     1   109.8000471 387.438400
   6734   6733   6735     1   107.5800459 329.699200
   6735   6733   6745     1   109.8000471 387.438400
   6736   6742   6743     1   109.5600471 388.275200
   6736   6742   6744     1   109.5600471 388.275200
   6737   6736   6742     1   109.8000471 387.438400
   6737   6736   6738     1   107.5800459 329.699200
   6738   6736   6742     1   109.8000471 387.438400
   6740   6739   6748     1   109.7800468 425.094400
   6740   6739   6741     1   108.4600466 328.025600
   6741   6739   6748     1   109.7800468 425.094400
   6743   6742  12138     1   109.7800468 425.094400
   6743   6742   6744     1   108.4600466 328.025600
   6744   6742  12138     1   109.7800468 425.094400
   6746   6745  12161     1   109.7800468 425.094400
   6746   6745   6747     1   108.4600466 328.025600
   6747   6745  12161     1   109.7800468 425.094400
   6750   6751   6752     1   108.0100461 406.684800
   6750   6751   6753     1   108.0100461 406.684800
   6750   6754   6755     1   108.0100461 406.684800
   6750   6754   6756     1   108.0100461 406.684800
   6750   6757   6758     1   108.0100461 406.684800
   6750   6757   6759     1   108.0100461 406.684800
   6751   6750   6779     1   110.1100470 384.091200
   6751   6763   6764     1   109.8000471 387.438400
   6751   6763   6765     1   109.8000471 387.438400
   6752   6751   6763     1   110.5600475 386.601600
   6752   6751   6753     1   109.7500473 328.025600
   6753   6751   6763     1   110.5600475 386.601600
   6754   6750   6779     1   110.1100470 384.091200
   6754   6766   6767     1   109.8000471 387.438400
   6754   6766   6768     1   109.8000471 387.438400
   6755   6754   6766     1   110.5600475 386.601600
   6755   6754   6756     1   109.7500473 328.025600
   6756   6754   6766     1   110.5600475 386.601600
   6757   6750   6779     1   110.1100470 384.091200
   6757   6760   6761     1   109.8000471 387.438400
   6757   6760   6762     1   109.8000471 387.438400
   6758   6757   6760     1   110.5600475 386.601600
   6758   6757   6759     1   109.7500473 328.025600
   6759   6757   6760     1   110.5600475 386.601600
   6760   6769   6770     1   109.5600471 388.275200
   6760   6769   6771     1   109.5600471 388.275200
   6761   6760   6769     1   109.8000471 387.438400
   6761   6760   6762     1   107.5800459 329.699200
   6762   6760   6769     1   109.8000471 387.438400
   6763   6775   6776     1   109.5600471 388.275200
   6763   6775   6777     1   109.5600471 388.275200
   6764   6763   6775     1   109.8000471 387.438400
   6764   6763   6765     1   107.5800459 329.699200
   6765   6763   6775     1   109.8000471 387.438400
   6766   6772   6773     1   109.5600471 388.275200
   6766   6772   6774     1   109.5600471 388.275200
   6767   6766   6772     1   109.8000471 387.438400
   6767   6766   6768     1   107.5800459 329.699200
   6768   6766   6772     1   109.8000471 387.438400
   6770   6769   6778     1   109.7800468 425.094400
   6770   6769   6771     1   108.4600466 328.025600
   6771   6769   6778     1   109.7800468 425.094400
   6773   6772  12184     1   109.7800468 425.094400
   6773   6772   6774     1   108.4600466 328.025600
   6774   6772  12184     1   109.7800468 425.094400
   6776   6775  12207     1   109.7800468 425.094400
   6776   6775   6777     1   108.4600466 328.025600
   6777   6775  12207     1   109.7800468 425.094400
   6780   6781   6782     1   108.0100461 406.684800
   6780   6781   6783     1   108.0100461 406.684800
   6780   6784   6785     1   108.0100461 406.684800
   6780   6784   6786     1   108.0100461 406.684800
   6780   6787   6788     1   108.0100461 406.684800
   6780   6787   6789     1   108.0100461 406.684800
   6781   6780   6809     1   110.1100470 384.091200
   6781   6793   6794     1   109.8000471 387.438400
   6781   6793   6795     1   109.8000471 387.438400
   6782   6781   6793     1   110.5600475 386.601600
   6782   6781   6783     1   109.7500473 328.025600
   6783   6781   6793     1   110.5600475 386.601600
   6784   6780   6809     1   110.1100470 384.091200
   6784   6796   6797     1   109.8000471 387.438400
   6784   6796   6798     1   109.8000471 387.438400
   6785   6784   6796     1   110.5600475 386.601600
   6785   6784   6786     1   109.7500473 328.025600
   6786   6784   6796     1   110.5600475 386.601600
   6787   6780   6809     1   110.1100470 384.091200
   6787   6790   6791     1   109.8000471 387.438400
   6787   6790   6792     1   109.8000471 387.438400
   6788   6787   6790     1   110.5600475 386.601600
   6788   6787   6789     1   109.7500473 328.025600
   6789   6787   6790     1   110.5600475 386.601600
   6790   6799   6800     1   109.5600471 388.275200
   6790   6799   6801     1   109.5600471 388.275200
   6791   6790   6799     1   109.8000471 387.438400
   6791   6790   6792     1   107.5800459 329.699200
   6792   6790   6799     1   109.8000471 387.438400
   6793   6805   6806     1   109.5600471 388.275200
   6793   6805   6807     1   109.5600471 388.275200
   6794   6793   6805     1   109.8000471 387.438400
   6794   6793   6795     1   107.5800459 329.699200
   6795   6793   6805     1   109.8000471 387.438400
   6796   6802   6803     1   109.5600471 388.275200
   6796   6802   6804     1   109.5600471 388.275200
   6797   6796   6802     1   109.8000471 387.438400
   6797   6796   6798     1   107.5800459 329.699200
   6798   6796   6802     1   109.8000471 387.438400
   6800   6799   6808     1   109.7800468 425.094400
   6800   6799   6801     1   108.4600466 328.025600
   6801   6799   6808     1   109.7800468 425.094400
   6803   6802  12230     1   109.7800468 425.094400
   6803   6802   6804     1   108.4600466 328.025600
   6804   6802  12230     1   109.7800468 425.094400
   6806   6805  12253     1   109.7800468 425.094400
   6806   6805   6807     1   108.4600466 328.025600
   6807   6805  12253     1   109.7800468 425.094400
   6810   6811   6812     1   108.0100461 406.684800
   6810   6811   6813     1   108.0100461 406.684800
   6810   6814   6815     1   108.0100461 406.684800
   6810   6814   6816     1   108.0100461 406.684800
   6810   6817   6818     1   108.0100461 406.684800
   6810   6817   6819     1   108.0100461 406.684800
   6811   6810   6839     1   110.1100470 384.091200
   6811   6823   6824     1   109.8000471 387.438400
   6811   6823   6825     1   109.8000471 387.438400
   6812   6811   6823     1   110.5600475 386.601600
   6812   6811   6813     1   109.7500473 328.025600
   6813   6811   6823     1   110.5600475 386.601600
   6814   6810   6839     1   110.1100470 384.091200
   6814   6826   6827     1   109.8000471 387.438400
   6814   6826   6828     1   109.8000471 387.438400
   6815   6814   6826     1   110.5600475 386.601600
   6815   6814   6816     1   109.7500473 328.025600
   6816   6814   6826     1   110.5600475 386.601600
   6817   6810   6839     1   110.1100470 384.091200
   6817   6820   6821     1   109.8000471 387.438400
   6817   6820   6822     1   109.8000471 387.438400
   6818   6817   6820     1   110.5600475 386.601600
   6818   6817   6819     1   109.7500473 328.025600
   6819   6817   6820     1   110.5600475 386.601600
   6820   6829   6830     1   109.5600471 388.275200
   6820   6829   6831     1   109.5600471 388.275200
   6821   6820   6829     1   109.8000471 387.438400
   6821   6820   6822     1   107.5800459 329.699200
   6822   6820   6829     1   109.8000471 387.438400
   6823   6835   6836     1   109.5600471 388.275200
   6823   6835   6837     1   109.5600471 388.275200
   6824   6823   6835     1   109.8000471 387.438400
   6824   6823   6825     1   107.5800459 329.699200
   6825   6823   6835     1   109.8000471 387.438400
   6826   6832   6833     1   109.5600471 388.275200
   6826   6832   6834     1   109.5600471 388.275200
   6827   6826   6832     1   109.8000471 387.438400
   6827   6826   6828     1   107.5800459 329.699200
   6828   6826   6832     1   109.8000471 387.438400
   6830   6829   6838     1   109.7800468 425.094400
   6830   6829   6831     1   108.4600466 328.025600
   6831   6829   6838     1   109.7800468 425.094400
   6833   6832  12276     1   109.7800468 425.094400
   6833   6832   6834     1   108.4600466 328.025600
   6834   6832  12276     1   109.7800468 425.094400
   6836   6835  12299     1   109.7800468 425.094400
   6836   6835   6837     1   108.4600466 328.025600
   6837   6835  12299     1   109.7800468 425.094400
   6840   6841   6842     1   108.0100461 406.684800
   6840   6841   6843     1   108.0100461 406.684800
   6840   6844   6845     1   108.0100461 406.684800
   6840   6844   6846     1   108.0100461 406.684800
   6840   6847   6848     1   108.0100461 406.684800
   6840   6847   6849     1   108.0100461 406.684800
   6841   6840   6869     1   110.1100470 384.091200
   6841   6853   6854     1   109.8000471 387.438400
   6841   6853   6855     1   109.8000471 387.438400
   6842   6841   6853     1   110.5600475 386.601600
   6842   6841   6843     1   109.7500473 328.025600
   6843   6841   6853     1   110.5600475 386.601600
   6844   6840   6869     1   110.1100470 384.091200
   6844   6856   6857     1   109.8000471 387.438400
   6844   6856   6858     1   109.8000471 387.438400
   6845   6844   6856     1   110.5600475 386.601600
   6845   6844   6846     1   109.7500473 328.025600
   6846   6844   6856     1   110.5600475 386.601600
   6847   6840   6869     1   110.1100470 384.091200
   6847   6850   6851     1   109.8000471 387.438400
   6847   6850   6852     1   109.8000471 387.438400
   6848   6847   6850     1   110.5600475 386.601600
   6848   6847   6849     1   109.7500473 328.025600
   6849   6847   6850     1   110.5600475 386.601600
   6850   6859   6860     1   109.5600471 388.275200
   6850   6859   6861     1   109.5600471 388.275200
   6851   6850   6859     1   109.8000471 387.438400
   6851   6850   6852     1   107.5800459 329.699200
   6852   6850   6859     1   109.8000471 387.438400
   6853   6865   6866     1   109.5600471 388.275200
   6853   6865   6867     1   109.5600471 388.275200
   6854   6853   6865     1   109.8000471 387.438400
   6854   6853   6855     1   107.5800459 329.699200
   6855   6853   6865     1   109.8000471 387.438400
   6856   6862   6863     1   109.5600471 388.275200
   6856   6862   6864     1   109.5600471 388.275200
   6857   6856   6862     1   109.8000471 387.438400
   6857   6856   6858     1   107.5800459 329.699200
   6858   6856   6862     1   109.8000471 387.438400
   6860   6859   6868     1   109.7800468 425.094400
   6860   6859   6861     1   108.4600466 328.025600
   6861   6859   6868     1   109.7800468 425.094400
   6863   6862  12322     1   109.7800468 425.094400
   6863   6862   6864     1   108.4600466 328.025600
   6864   6862  12322     1   109.7800468 425.094400
   6866   6865  12345     1   109.7800468 425.094400
   6866   6865   6867     1   108.4600466 328.025600
   6867   6865  12345     1   109.7800468 425.094400
   6870   6871   6872     1   108.0100461 406.684800
   6870   6871   6873     1   108.0100461 406.684800
   6870   6874   6875     1   108.0100461 406.684800
   6870   6874   6876     1   108.0100461 406.684800
   6870   6877   6878     1   108.0100461 406.684800
   6870   6877   6879     1   108.0100461 406.684800
   6871   6870   6899     1   110.1100470 384.091200
   6871   6883   6884     1   109.8000471 387.438400
   6871   6883   6885     1   109.8000471 387.438400
   6872   6871   6883     1   110.5600475 386.601600
   6872   6871   6873     1   109.7500473 328.025600
   6873   6871   6883     1   110.5600475 386.601600
   6874   6870   6899     1   110.1100470 384.091200
   6874   6886   6887     1   109.8000471 387.438400
   6874   6886   6888     1   109.8000471 387.438400
   6875   6874   6886     1   110.5600475 386.601600
   6875   6874   6876     1   109.7500473 328.025600
   6876   6874   6886     1   110.5600475 386.601600
   6877   6870   6899     1   110.1100470 384.091200
   6877   6880   6881     1   109.8000471 387.438400
   6877   6880   6882     1   109.8000471 387.438400
   6878   6877   6880     1   110.5600475 386.601600
   6878   6877   6879     1   109.7500473 328.025600
   6879   6877   6880     1   110.5600475 386.601600
   6880   6889   6890     1   109.5600471 388.275200
   6880   6889   6891     1   109.5600471 388.275200
   6881   6880   6889     1   109.8000471 387.438400
   6881   6880   6882     1   107.5800459 329.699200
   6882   6880   6889     1   109.8000471 387.438400
   6883   6895   6896     1   109.5600471 388.275200
   6883   6895   6897     1   109.5600471 388.275200
   6884   6883   6895     1   109.8000471 387.438400
   6884   6883   6885     1   107.5800459 329.699200
   6885   6883   6895     1   109.8000471 387.438400
   6886   6892   6893     1   109.5600471 388.275200
   6886   6892   6894     1   109.5600471 388.275200
   6887   6886   6892     1   109.8000471 387.438400
   6887   6886   6888     1   107.5800459 329.699200
   6888   6886   6892     1   109.8000471 387.438400
   6890   6889   6898     1   109.7800468 425.094400
   6890   6889   6891     1   108.4600466 328.025600
   6891   6889   6898     1   109.7800468 425.094400
   6893   6892  12368     1   109.7800468 425.094400
   6893   6892   6894     1   108.4600466 328.025600
   6894   6892  12368     1   109.7800468 425.094400
   6896   6895  12391     1   109.7800468 425.094400
   6896   6895   6897     1   108.4600466 328.025600
   6897   6895  12391     1   109.7800468 425.094400
   6900   6901   6902     1   108.0100461 406.684800
   6900   6901   6903     1   108.0100461 406.684800
   6900   6904   6905     1   108.0100461 406.684800
   6900   6904   6906     1   108.0100461 406.684800
   6900   6907   6908     1   108.0100461 406.684800
   6900   6907   6909     1   108.0100461 406.684800
   6901   6900   6929     1   110.1100470 384.091200
   6901   6913   6914     1   109.8000471 387.438400
   6901   6913   6915     1   109.8000471 387.438400
   6902   6901   6913     1   110.5600475 386.601600
   6902   6901   6903     1   109.7500473 328.025600
   6903   6901   6913     1   110.5600475 386.601600
   6904   6900   6929     1   110.1100470 384.091200
   6904   6916   6917     1   109.8000471 387.438400
   6904   6916   6918     1   109.8000471 387.438400
   6905   6904   6916     1   110.5600475 386.601600
   6905   6904   6906     1   109.7500473 328.025600
   6906   6904   6916     1   110.5600475 386.601600
   6907   6900   6929     1   110.1100470 384.091200
   6907   6910   6911     1   109.8000471 387.438400
   6907   6910   6912     1   109.8000471 387.438400
   6908   6907   6910     1   110.5600475 386.601600
   6908   6907   6909     1   109.7500473 328.025600
   6909   6907   6910     1   110.5600475 386.601600
   6910   6919   6920     1   109.5600471 388.275200
   6910   6919   6921     1   109.5600471 388.275200
   6911   6910   6919     1   109.8000471 387.438400
   6911   6910   6912     1   107.5800459 329.699200
   6912   6910   6919     1   109.8000471 387.438400
   6913   6925   6926     1   109.5600471 388.275200
   6913   6925   6927     1   109.5600471 388.275200
   6914   6913   6925     1   109.8000471 387.438400
   6914   6913   6915     1   107.5800459 329.699200
   6915   6913   6925     1   109.8000471 387.438400
   6916   6922   6923     1   109.5600471 388.275200
   6916   6922   6924     1   109.5600471 388.275200
   6917   6916   6922     1   109.8000471 387.438400
   6917   6916   6918     1   107.5800459 329.699200
   6918   6916   6922     1   109.8000471 387.438400
   6920   6919   6928     1   109.7800468 425.094400
   6920   6919   6921     1   108.4600466 328.025600
   6921   6919   6928     1   109.7800468 425.094400
   6923   6922  12414     1   109.7800468 425.094400
   6923   6922   6924     1   108.4600466 328.025600
   6924   6922  12414     1   109.7800468 425.094400
   6926   6925  12437     1   109.7800468 425.094400
   6926   6925   6927     1   108.4600466 328.025600
   6927   6925  12437     1   109.7800468 425.094400
   6930   6931   6932     1   108.0100461 406.684800
   6930   6931   6933     1   108.0100461 406.684800
   6930   6934   6935     1   108.0100461 406.684800
   6930   6934   6936     1   108.0100461 406.684800
   6930   6937   6938     1   108.0100461 406.684800
   6930   6937   6939     1   108.0100461 406.684800
   6931   6930   6959     1   110.1100470 384.091200
   6931   6943   6944     1   109.8000471 387.438400
   6931   6943   6945     1   109.8000471 387.438400
   6932   6931   6943     1   110.5600475 386.601600
   6932   6931   6933     1   109.7500473 328.025600
   6933   6931   6943     1   110.5600475 386.601600
   6934   6930   6959     1   110.1100470 384.091200
   6934   6946   6947     1   109.8000471 387.438400
   6934   6946   6948     1   109.8000471 387.438400
   6935   6934   6946     1   110.5600475 386.601600
   6935   6934   6936     1   109.7500473 328.025600
   6936   6934   6946     1   110.5600475 386.601600
   6937   6930   6959     1   110.1100470 384.091200
   6937   6940   6941     1   109.8000471 387.438400
   6937   6940   6942     1   109.8000471 387.438400
   6938   6937   6940     1   110.5600475 386.601600
   6938   6937   6939     1   109.7500473 328.025600
   6939   6937   6940     1   110.5600475 386.601600
   6940   6949   6950     1   109.5600471 388.275200
   6940   6949   6951     1   109.5600471 388.275200
   6941   6940   6949     1   109.8000471 387.438400
   6941   6940   6942     1   107.5800459 329.699200
   6942   6940   6949     1   109.8000471 387.438400
   6943   6955   6956     1   109.5600471 388.275200
   6943   6955   6957     1   109.5600471 388.275200
   6944   6943   6955     1   109.8000471 387.438400
   6944   6943   6945     1   107.5800459 329.699200
   6945   6943   6955     1   109.8000471 387.438400
   6946   6952   6953     1   109.5600471 388.275200
   6946   6952   6954     1   109.5600471 388.275200
   6947   6946   6952     1   109.8000471 387.438400
   6947   6946   6948     1   107.5800459 329.699200
   6948   6946   6952     1   109.8000471 387.438400
   6950   6949   6958     1   109.7800468 425.094400
   6950   6949   6951     1   108.4600466 328.025600
   6951   6949   6958     1   109.7800468 425.094400
   6953   6952  12460     1   109.7800468 425.094400
   6953   6952   6954     1   108.4600466 328.025600
   6954   6952  12460     1   109.7800468 425.094400
   6956   6955  12483     1   109.7800468 425.094400
   6956   6955   6957     1   108.4600466 328.025600
   6957   6955  12483     1   109.7800468 425.094400
   6960   6961   6962     1   108.0100461 406.684800
   6960   6961   6963     1   108.0100461 406.684800
   6960   6964   6965     1   108.0100461 406.684800
   6960   6964   6966     1   108.0100461 406.684800
   6960   6967   6968     1   108.0100461 406.684800
   6960   6967   6969     1   108.0100461 406.684800
   6961   6960   6989     1   110.1100470 384.091200
   6961   6973   6974     1   109.8000471 387.438400
   6961   6973   6975     1   109.8000471 387.438400
   6962   6961   6973     1   110.5600475 386.601600
   6962   6961   6963     1   109.7500473 328.025600
   6963   6961   6973     1   110.5600475 386.601600
   6964   6960   6989     1   110.1100470 384.091200
   6964   6976   6977     1   109.8000471 387.438400
   6964   6976   6978     1   109.8000471 387.438400
   6965   6964   6976     1   110.5600475 386.601600
   6965   6964   6966     1   109.7500473 328.025600
   6966   6964   6976     1   110.5600475 386.601600
   6967   6960   6989     1   110.1100470 384.091200
   6967   6970   6971     1   109.8000471 387.438400
   6967   6970   6972     1   109.8000471 387.438400
   6968   6967   6970     1   110.5600475 386.601600
   6968   6967   6969     1   109.7500473 328.025600
   6969   6967   6970     1   110.5600475 386.601600
   6970   6979   6980     1   109.5600471 388.275200
   6970   6979   6981     1   109.5600471 388.275200
   6971   6970   6979     1   109.8000471 387.438400
   6971   6970   6972     1   107.5800459 329.699200
   6972   6970   6979     1   109.8000471 387.438400
   6973   6985   6986     1   109.5600471 388.275200
   6973   6985   6987     1   109.5600471 388.275200
   6974   6973   6985     1   109.8000471 387.438400
   6974   6973   6975     1   107.5800459 329.699200
   6975   6973   6985     1   109.8000471 387.438400
   6976   6982   6983     1   109.5600471 388.275200
   6976   6982   6984     1   109.5600471 388.275200
   6977   6976   6982     1   109.8000471 387.438400
   6977   6976   6978     1   107.5800459 329.699200
   6978   6976   6982     1   109.8000471 387.438400
   6980   6979   6988     1   109.7800468 425.094400
   6980   6979   6981     1   108.4600466 328.025600
   6981   6979   6988     1   109.7800468 425.094400
   6983   6982  12506     1   109.7800468 425.094400
   6983   6982   6984     1   108.4600466 328.025600
   6984   6982  12506     1   109.7800468 425.094400
   6986   6985  12529     1   109.7800468 425.094400
   6986   6985   6987     1   108.4600466 328.025600
   6987   6985  12529     1   109.7800468 425.094400
   6990   6991   6992     1   108.0100461 406.684800
   6990   6991   6993     1   108.0100461 406.684800
   6990   6994   6995     1   108.0100461 406.684800
   6990   6994   6996     1   108.0100461 406.684800
   6990   6997   6998     1   108.0100461 406.684800
   6990   6997   6999     1   108.0100461 406.684800
   6991   6990   7019     1   110.1100470 384.091200
   6991   7003   7004     1   109.8000471 387.438400
   6991   7003   7005     1   109.8000471 387.438400
   6992   6991   7003     1   110.5600475 386.601600
   6992   6991   6993     1   109.7500473 328.025600
   6993   6991   7003     1   110.5600475 386.601600
   6994   6990   7019     1   110.1100470 384.091200
   6994   7006   7007     1   109.8000471 387.438400
   6994   7006   7008     1   109.8000471 387.438400
   6995   6994   7006     1   110.5600475 386.601600
   6995   6994   6996     1   109.7500473 328.025600
   6996   6994   7006     1   110.5600475 386.601600
   6997   6990   7019     1   110.1100470 384.091200
   6997   7000   7001     1   109.8000471 387.438400
   6997   7000   7002     1   109.8000471 387.438400
   6998   6997   7000     1   110.5600475 386.601600
   6998   6997   6999     1   109.7500473 328.025600
   6999   6997   7000     1   110.5600475 386.601600
   7000   7009   7010     1   109.5600471 388.275200
   7000   7009   7011     1   109.5600471 388.275200
   7001   7000   7009     1   109.8000471 387.438400
   7001   7000   7002     1   107.5800459 329.699200
   7002   7000   7009     1   109.8000471 387.438400
   7003   7015   7016     1   109.5600471 388.275200
   7003   7015   7017     1   109.5600471 388.275200
   7004   7003   7015     1   109.8000471 387.438400
   7004   7003   7005     1   107.5800459 329.699200
   7005   7003   7015     1   109.8000471 387.438400
   7006   7012   7013     1   109.5600471 388.275200
   7006   7012   7014     1   109.5600471 388.275200
   7007   7006   7012     1   109.8000471 387.438400
   7007   7006   7008     1   107.5800459 329.699200
   7008   7006   7012     1   109.8000471 387.438400
   7010   7009   7018     1   109.7800468 425.094400
   7010   7009   7011     1   108.4600466 328.025600
   7011   7009   7018     1   109.7800468 425.094400
   7013   7012  12552     1   109.7800468 425.094400
   7013   7012   7014     1   108.4600466 328.025600
   7014   7012  12552     1   109.7800468 425.094400
   7016   7015  12575     1   109.7800468 425.094400
   7016   7015   7017     1   108.4600466 328.025600
   7017   7015  12575     1   109.7800468 425.094400
   7020   7021   7022     1   108.0100461 406.684800
   7020   7021   7023     1   108.0100461 406.684800
   7020   7024   7025     1   108.0100461 406.684800
   7020   7024   7026     1   108.0100461 406.684800
   7020   7027   7028     1   108.0100461 406.684800
   7020   7027   7029     1   108.0100461 406.684800
   7021   7020   7049     1   110.1100470 384.091200
   7021   7033   7034     1   109.8000471 387.438400
   7021   7033   7035     1   109.8000471 387.438400
   7022   7021   7033     1   110.5600475 386.601600
   7022   7021   7023     1   109.7500473 328.025600
   7023   7021   7033     1   110.5600475 386.601600
   7024   7020   7049     1   110.1100470 384.091200
   7024   7036   7037     1   109.8000471 387.438400
   7024   7036   7038     1   109.8000471 387.438400
   7025   7024   7036     1   110.5600475 386.601600
   7025   7024   7026     1   109.7500473 328.025600
   7026   7024   7036     1   110.5600475 386.601600
   7027   7020   7049     1   110.1100470 384.091200
   7027   7030   7031     1   109.8000471 387.438400
   7027   7030   7032     1   109.8000471 387.438400
   7028   7027   7030     1   110.5600475 386.601600
   7028   7027   7029     1   109.7500473 328.025600
   7029   7027   7030     1   110.5600475 386.601600
   7030   7039   7040     1   109.5600471 388.275200
   7030   7039   7041     1   109.5600471 388.275200
   7031   7030   7039     1   109.8000471 387.438400
   7031   7030   7032     1   107.5800459 329.699200
   7032   7030   7039     1   109.8000471 387.438400
   7033   7045   7046     1   109.5600471 388.275200
   7033   7045   7047     1   109.5600471 388.275200
   7034   7033   7045     1   109.8000471 387.438400
   7034   7033   7035     1   107.5800459 329.699200
   7035   7033   7045     1   109.8000471 387.438400
   7036   7042   7043     1   109.5600471 388.275200
   7036   7042   7044     1   109.5600471 388.275200
   7037   7036   7042     1   109.8000471 387.438400
   7037   7036   7038     1   107.5800459 329.699200
   7038   7036   7042     1   109.8000471 387.438400
   7040   7039   7048     1   109.7800468 425.094400
   7040   7039   7041     1   108.4600466 328.025600
   7041   7039   7048     1   109.7800468 425.094400
   7043   7042  12598     1   109.7800468 425.094400
   7043   7042   7044     1   108.4600466 328.025600
   7044   7042  12598     1   109.7800468 425.094400
   7046   7045  12621     1   109.7800468 425.094400
   7046   7045   7047     1   108.4600466 328.025600
   7047   7045  12621     1   109.7800468 425.094400
   7050   7051   7052     1   108.0100461 406.684800
   7050   7051   7053     1   108.0100461 406.684800
   7050   7054   7055     1   108.0100461 406.684800
   7050   7054   7056     1   108.0100461 406.684800
   7050   7057   7058     1   108.0100461 406.684800
   7050   7057   7059     1   108.0100461 406.684800
   7051   7050   7079     1   110.1100470 384.091200
   7051   7063   7064     1   109.8000471 387.438400
   7051   7063   7065     1   109.8000471 387.438400
   7052   7051   7063     1   110.5600475 386.601600
   7052   7051   7053     1   109.7500473 328.025600
   7053   7051   7063     1   110.5600475 386.601600
   7054   7050   7079     1   110.1100470 384.091200
   7054   7066   7067     1   109.8000471 387.438400
   7054   7066   7068     1   109.8000471 387.438400
   7055   7054   7066     1   110.5600475 386.601600
   7055   7054   7056     1   109.7500473 328.025600
   7056   7054   7066     1   110.5600475 386.601600
   7057   7050   7079     1   110.1100470 384.091200
   7057   7060   7061     1   109.8000471 387.438400
   7057   7060   7062     1   109.8000471 387.438400
   7058   7057   7060     1   110.5600475 386.601600
   7058   7057   7059     1   109.7500473 328.025600
   7059   7057   7060     1   110.5600475 386.601600
   7060   7069   7070     1   109.5600471 388.275200
   7060   7069   7071     1   109.5600471 388.275200
   7061   7060   7069     1   109.8000471 387.438400
   7061   7060   7062     1   107.5800459 329.699200
   7062   7060   7069     1   109.8000471 387.438400
   7063   7075   7076     1   109.5600471 388.275200
   7063   7075   7077     1   109.5600471 388.275200
   7064   7063   7075     1   109.8000471 387.438400
   7064   7063   7065     1   107.5800459 329.699200
   7065   7063   7075     1   109.8000471 387.438400
   7066   7072   7073     1   109.5600471 388.275200
   7066   7072   7074     1   109.5600471 388.275200
   7067   7066   7072     1   109.8000471 387.438400
   7067   7066   7068     1   107.5800459 329.699200
   7068   7066   7072     1   109.8000471 387.438400
   7070   7069   7078     1   109.7800468 425.094400
   7070   7069   7071     1   108.4600466 328.025600
   7071   7069   7078     1   109.7800468 425.094400
   7073   7072  12644     1   109.7800468 425.094400
   7073   7072   7074     1   108.4600466 328.025600
   7074   7072  12644     1   109.7800468 425.094400
   7076   7075  12667     1   109.7800468 425.094400
   7076   7075   7077     1   108.4600466 328.025600
   7077   7075  12667     1   109.7800468 425.094400
   7080   7081   7082     1   108.0100461 406.684800
   7080   7081   7083     1   108.0100461 406.684800
   7080   7084   7085     1   108.0100461 406.684800
   7080   7084   7086     1   108.0100461 406.684800
   7080   7087   7088     1   108.0100461 406.684800
   7080   7087   7089     1   108.0100461 406.684800
   7081   7080   7109     1   110.1100470 384.091200
   7081   7093   7094     1   109.8000471 387.438400
   7081   7093   7095     1   109.8000471 387.438400
   7082   7081   7093     1   110.5600475 386.601600
   7082   7081   7083     1   109.7500473 328.025600
   7083   7081   7093     1   110.5600475 386.601600
   7084   7080   7109     1   110.1100470 384.091200
   7084   7096   7097     1   109.8000471 387.438400
   7084   7096   7098     1   109.8000471 387.438400
   7085   7084   7096     1   110.5600475 386.601600
   7085   7084   7086     1   109.7500473 328.025600
   7086   7084   7096     1   110.5600475 386.601600
   7087   7080   7109     1   110.1100470 384.091200
   7087   7090   7091     1   109.8000471 387.438400
   7087   7090   7092     1   109.8000471 387.438400
   7088   7087   7090     1   110.5600475 386.601600
   7088   7087   7089     1   109.7500473 328.025600
   7089   7087   7090     1   110.5600475 386.601600
   7090   7099   7100     1   109.5600471 388.275200
   7090   7099   7101     1   109.5600471 388.275200
   7091   7090   7099     1   109.8000471 387.438400
   7091   7090   7092     1   107.5800459 329.699200
   7092   7090   7099     1   109.8000471 387.438400
   7093   7105   7106     1   109.5600471 388.275200
   7093   7105   7107     1   109.5600471 388.275200
   7094   7093   7105     1   109.8000471 387.438400
   7094   7093   7095     1   107.5800459 329.699200
   7095   7093   7105     1   109.8000471 387.438400
   7096   7102   7103     1   109.5600471 388.275200
   7096   7102   7104     1   109.5600471 388.275200
   7097   7096   7102     1   109.8000471 387.438400
   7097   7096   7098     1   107.5800459 329.699200
   7098   7096   7102     1   109.8000471 387.438400
   7100   7099   7108     1   109.7800468 425.094400
   7100   7099   7101     1   108.4600466 328.025600
   7101   7099   7108     1   109.7800468 425.094400
   7103   7102  12690     1   109.7800468 425.094400
   7103   7102   7104     1   108.4600466 328.025600
   7104   7102  12690     1   109.7800468 425.094400
   7106   7105  12713     1   109.7800468 425.094400
   7106   7105   7107     1   108.4600466 328.025600
   7107   7105  12713     1   109.7800468 425.094400
   7110   7111   7112     1   108.0100461 406.684800
   7110   7111   7113     1   108.0100461 406.684800
   7110   7114   7115     1   108.0100461 406.684800
   7110   7114   7116     1   108.0100461 406.684800
   7110   7117   7118     1   108.0100461 406.684800
   7110   7117   7119     1   108.0100461 406.684800
   7111   7110   7139     1   110.1100470 384.091200
   7111   7123   7124     1   109.8000471 387.438400
   7111   7123   7125     1   109.8000471 387.438400
   7112   7111   7123     1   110.5600475 386.601600
   7112   7111   7113     1   109.7500473 328.025600
   7113   7111   7123     1   110.5600475 386.601600
   7114   7110   7139     1   110.1100470 384.091200
   7114   7126   7127     1   109.8000471 387.438400
   7114   7126   7128     1   109.8000471 387.438400
   7115   7114   7126     1   110.5600475 386.601600
   7115   7114   7116     1   109.7500473 328.025600
   7116   7114   7126     1   110.5600475 386.601600
   7117   7110   7139     1   110.1100470 384.091200
   7117   7120   7121     1   109.8000471 387.438400
   7117   7120   7122     1   109.8000471 387.438400
   7118   7117   7120     1   110.5600475 386.601600
   7118   7117   7119     1   109.7500473 328.025600
   7119   7117   7120     1   110.5600475 386.601600
   7120   7129   7130     1   109.5600471 388.275200
   7120   7129   7131     1   109.5600471 388.275200
   7121   7120   7129     1   109.8000471 387.438400
   7121   7120   7122     1   107.5800459 329.699200
   7122   7120   7129     1   109.8000471 387.438400
   7123   7135   7136     1   109.5600471 388.275200
   7123   7135   7137     1   109.5600471 388.275200
   7124   7123   7135     1   109.8000471 387.438400
   7124   7123   7125     1   107.5800459 329.699200
   7125   7123   7135     1   109.8000471 387.438400
   7126   7132   7133     1   109.5600471 388.275200
   7126   7132   7134     1   109.5600471 388.275200
   7127   7126   7132     1   109.8000471 387.438400
   7127   7126   7128     1   107.5800459 329.699200
   7128   7126   7132     1   109.8000471 387.438400
   7130   7129   7138     1   109.7800468 425.094400
   7130   7129   7131     1   108.4600466 328.025600
   7131   7129   7138     1   109.7800468 425.094400
   7133   7132  12736     1   109.7800468 425.094400
   7133   7132   7134     1   108.4600466 328.025600
   7134   7132  12736     1   109.7800468 425.094400
   7136   7135  12759     1   109.7800468 425.094400
   7136   7135   7137     1   108.4600466 328.025600
   7137   7135  12759     1   109.7800468 425.094400
   7140   7141   7142     1   108.0100461 406.684800
   7140   7141   7143     1   108.0100461 406.684800
   7140   7144   7145     1   108.0100461 406.684800
   7140   7144   7146     1   108.0100461 406.684800
   7140   7147   7148     1   108.0100461 406.684800
   7140   7147   7149     1   108.0100461 406.684800
   7141   7140   7169     1   110.1100470 384.091200
   7141   7153   7154     1   109.8000471 387.438400
   7141   7153   7155     1   109.8000471 387.438400
   7142   7141   7153     1   110.5600475 386.601600
   7142   7141   7143     1   109.7500473 328.025600
   7143   7141   7153     1   110.5600475 386.601600
   7144   7140   7169     1   110.1100470 384.091200
   7144   7156   7157     1   109.8000471 387.438400
   7144   7156   7158     1   109.8000471 387.438400
   7145   7144   7156     1   110.5600475 386.601600
   7145   7144   7146     1   109.7500473 328.025600
   7146   7144   7156     1   110.5600475 386.601600
   7147   7140   7169     1   110.1100470 384.091200
   7147   7150   7151     1   109.8000471 387.438400
   7147   7150   7152     1   109.8000471 387.438400
   7148   7147   7150     1   110.5600475 386.601600
   7148   7147   7149     1   109.7500473 328.025600
   7149   7147   7150     1   110.5600475 386.601600
   7150   7159   7160     1   109.5600471 388.275200
   7150   7159   7161     1   109.5600471 388.275200
   7151   7150   7159     1   109.8000471 387.438400
   7151   7150   7152     1   107.5800459 329.699200
   7152   7150   7159     1   109.8000471 387.438400
   7153   7165   7166     1   109.5600471 388.275200
   7153   7165   7167     1   109.5600471 388.275200
   7154   7153   7165     1   109.8000471 387.438400
   7154   7153   7155     1   107.5800459 329.699200
   7155   7153   7165     1   109.8000471 387.438400
   7156   7162   7163     1   109.5600471 388.275200
   7156   7162   7164     1   109.5600471 388.275200
   7157   7156   7162     1   109.8000471 387.438400
   7157   7156   7158     1   107.5800459 329.699200
   7158   7156   7162     1   109.8000471 387.438400
   7160   7159   7168     1   109.7800468 425.094400
   7160   7159   7161     1   108.4600466 328.025600
   7161   7159   7168     1   109.7800468 425.094400
   7163   7162  12782     1   109.7800468 425.094400
   7163   7162   7164     1   108.4600466 328.025600
   7164   7162  12782     1   109.7800468 425.094400
   7166   7165  12805     1   109.7800468 425.094400
   7166   7165   7167     1   108.4600466 328.025600
   7167   7165  12805     1   109.7800468 425.094400
   7170   7171   7172     1   108.0100461 406.684800
   7170   7171   7173     1   108.0100461 406.684800
   7170   7174   7175     1   108.0100461 406.684800
   7170   7174   7176     1   108.0100461 406.684800
   7170   7177   7178     1   108.0100461 406.684800
   7170   7177   7179     1   108.0100461 406.684800
   7171   7170   7199     1   110.1100470 384.091200
   7171   7183   7184     1   109.8000471 387.438400
   7171   7183   7185     1   109.8000471 387.438400
   7172   7171   7183     1   110.5600475 386.601600
   7172   7171   7173     1   109.7500473 328.025600
   7173   7171   7183     1   110.5600475 386.601600
   7174   7170   7199     1   110.1100470 384.091200
   7174   7186   7187     1   109.8000471 387.438400
   7174   7186   7188     1   109.8000471 387.438400
   7175   7174   7186     1   110.5600475 386.601600
   7175   7174   7176     1   109.7500473 328.025600
   7176   7174   7186     1   110.5600475 386.601600
   7177   7170   7199     1   110.1100470 384.091200
   7177   7180   7181     1   109.8000471 387.438400
   7177   7180   7182     1   109.8000471 387.438400
   7178   7177   7180     1   110.5600475 386.601600
   7178   7177   7179     1   109.7500473 328.025600
   7179   7177   7180     1   110.5600475 386.601600
   7180   7189   7190     1   109.5600471 388.275200
   7180   7189   7191     1   109.5600471 388.275200
   7181   7180   7189     1   109.8000471 387.438400
   7181   7180   7182     1   107.5800459 329.699200
   7182   7180   7189     1   109.8000471 387.438400
   7183   7195   7196     1   109.5600471 388.275200
   7183   7195   7197     1   109.5600471 388.275200
   7184   7183   7195     1   109.8000471 387.438400
   7184   7183   7185     1   107.5800459 329.699200
   7185   7183   7195     1   109.8000471 387.438400
   7186   7192   7193     1   109.5600471 388.275200
   7186   7192   7194     1   109.5600471 388.275200
   7187   7186   7192     1   109.8000471 387.438400
   7187   7186   7188     1   107.5800459 329.699200
   7188   7186   7192     1   109.8000471 387.438400
   7190   7189   7198     1   109.7800468 425.094400
   7190   7189   7191     1   108.4600466 328.025600
   7191   7189   7198     1   109.7800468 425.094400
   7193   7192  12828     1   109.7800468 425.094400
   7193   7192   7194     1   108.4600466 328.025600
   7194   7192  12828     1   109.7800468 425.094400
   7196   7195  12851     1   109.7800468 425.094400
   7196   7195   7197     1   108.4600466 328.025600
   7197   7195  12851     1   109.7800468 425.094400
   7200   7201   7202     1   108.0100461 406.684800
   7200   7201   7203     1   108.0100461 406.684800
   7200   7204   7205     1   108.0100461 406.684800
   7200   7204   7206     1   108.0100461 406.684800
   7200   7207   7208     1   108.0100461 406.684800
   7200   7207   7209     1   108.0100461 406.684800
   7201   7200   7229     1   110.1100470 384.091200
   7201   7213   7214     1   109.8000471 387.438400
   7201   7213   7215     1   109.8000471 387.438400
   7202   7201   7213     1   110.5600475 386.601600
   7202   7201   7203     1   109.7500473 328.025600
   7203   7201   7213     1   110.5600475 386.601600
   7204   7200   7229     1   110.1100470 384.091200
   7204   7216   7217     1   109.8000471 387.438400
   7204   7216   7218     1   109.8000471 387.438400
   7205   7204   7216     1   110.5600475 386.601600
   7205   7204   7206     1   109.7500473 328.025600
   7206   7204   7216     1   110.5600475 386.601600
   7207   7200   7229     1   110.1100470 384.091200
   7207   7210   7211     1   109.8000471 387.438400
   7207   7210   7212     1   109.8000471 387.438400
   7208   7207   7210     1   110.5600475 386.601600
   7208   7207   7209     1   109.7500473 328.025600
   7209   7207   7210     1   110.5600475 386.601600
   7210   7219   7220     1   109.5600471 388.275200
   7210   7219   7221     1   109.5600471 388.275200
   7211   7210   7219     1   109.8000471 387.438400
   7211   7210   7212     1   107.5800459 329.699200
   7212   7210   7219     1   109.8000471 387.438400
   7213   7225   7226     1   109.5600471 388.275200
   7213   7225   7227     1   109.5600471 388.275200
   7214   7213   7225     1   109.8000471 387.438400
   7214   7213   7215     1   107.5800459 329.699200
   7215   7213   7225     1   109.8000471 387.438400
   7216   7222   7223     1   109.5600471 388.275200
   7216   7222   7224     1   109.5600471 388.275200
   7217   7216   7222     1   109.8000471 387.438400
   7217   7216   7218     1   107.5800459 329.699200
   7218   7216   7222     1   109.8000471 387.438400
   7220   7219   7228     1   109.7800468 425.094400
   7220   7219   7221     1   108.4600466 328.025600
   7221   7219   7228     1   109.7800468 425.094400
   7223   7222  12874     1   109.7800468 425.094400
   7223   7222   7224     1   108.4600466 328.025600
   7224   7222  12874     1   109.7800468 425.094400
   7226   7225  12897     1   109.7800468 425.094400
   7226   7225   7227     1   108.4600466 328.025600
   7227   7225  12897     1   109.7800468 425.094400
   7230   7231   7232     1   108.0100461 406.684800
   7230   7231   7233     1   108.0100461 406.684800
   7230   7234   7235     1   108.0100461 406.684800
   7230   7234   7236     1   108.0100461 406.684800
   7230   7237   7238     1   108.0100461 406.684800
   7230   7237   7239     1   108.0100461 406.684800
   7231   7230   7259     1   110.1100470 384.091200
   7231   7243   7244     1   109.8000471 387.438400
   7231   7243   7245     1   109.8000471 387.438400
   7232   7231   7243     1   110.5600475 386.601600
   7232   7231   7233     1   109.7500473 328.025600
   7233   7231   7243     1   110.5600475 386.601600
   7234   7230   7259     1   110.1100470 384.091200
   7234   7246   7247     1   109.8000471 387.438400
   7234   7246   7248     1   109.8000471 387.438400
   7235   7234   7246     1   110.5600475 386.601600
   7235   7234   7236     1   109.7500473 328.025600
   7236   7234   7246     1   110.5600475 386.601600
   7237   7230   7259     1   110.1100470 384.091200
   7237   7240   7241     1   109.8000471 387.438400
   7237   7240   7242     1   109.8000471 387.438400
   7238   7237   7240     1   110.5600475 386.601600
   7238   7237   7239     1   109.7500473 328.025600
   7239   7237   7240     1   110.5600475 386.601600
   7240   7249   7250     1   109.5600471 388.275200
   7240   7249   7251     1   109.5600471 388.275200
   7241   7240   7249     1   109.8000471 387.438400
   7241   7240   7242     1   107.5800459 329.699200
   7242   7240   7249     1   109.8000471 387.438400
   7243   7255   7256     1   109.5600471 388.275200
   7243   7255   7257     1   109.5600471 388.275200
   7244   7243   7255     1   109.8000471 387.438400
   7244   7243   7245     1   107.5800459 329.699200
   7245   7243   7255     1   109.8000471 387.438400
   7246   7252   7253     1   109.5600471 388.275200
   7246   7252   7254     1   109.5600471 388.275200
   7247   7246   7252     1   109.8000471 387.438400
   7247   7246   7248     1   107.5800459 329.699200
   7248   7246   7252     1   109.8000471 387.438400
   7250   7249   7258     1   109.7800468 425.094400
   7250   7249   7251     1   108.4600466 328.025600
   7251   7249   7258     1   109.7800468 425.094400
   7253   7252  12920     1   109.7800468 425.094400
   7253   7252   7254     1   108.4600466 328.025600
   7254   7252  12920     1   109.7800468 425.094400
   7256   7255  12943     1   109.7800468 425.094400
   7256   7255   7257     1   108.4600466 328.025600
   7257   7255  12943     1   109.7800468 425.094400
   7260   7261   7262     1   108.0100461 406.684800
   7260   7261   7263     1   108.0100461 406.684800
   7260   7264   7265     1   108.0100461 406.684800
   7260   7264   7266     1   108.0100461 406.684800
   7260   7267   7268     1   108.0100461 406.684800
   7260   7267   7269     1   108.0100461 406.684800
   7261   7260   7289     1   110.1100470 384.091200
   7261   7273   7274     1   109.8000471 387.438400
   7261   7273   7275     1   109.8000471 387.438400
   7262   7261   7273     1   110.5600475 386.601600
   7262   7261   7263     1   109.7500473 328.025600
   7263   7261   7273     1   110.5600475 386.601600
   7264   7260   7289     1   110.1100470 384.091200
   7264   7276   7277     1   109.8000471 387.438400
   7264   7276   7278     1   109.8000471 387.438400
   7265   7264   7276     1   110.5600475 386.601600
   7265   7264   7266     1   109.7500473 328.025600
   7266   7264   7276     1   110.5600475 386.601600
   7267   7260   7289     1   110.1100470 384.091200
   7267   7270   7271     1   109.8000471 387.438400
   7267   7270   7272     1   109.8000471 387.438400
   7268   7267   7270     1   110.5600475 386.601600
   7268   7267   7269     1   109.7500473 328.025600
   7269   7267   7270     1   110.5600475 386.601600
   7270   7279   7280     1   109.5600471 388.275200
   7270   7279   7281     1   109.5600471 388.275200
   7271   7270   7279     1   109.8000471 387.438400
   7271   7270   7272     1   107.5800459 329.699200
   7272   7270   7279     1   109.8000471 387.438400
   7273   7285   7286     1   109.5600471 388.275200
   7273   7285   7287     1   109.5600471 388.275200
   7274   7273   7285     1   109.8000471 387.438400
   7274   7273   7275     1   107.5800459 329.699200
   7275   7273   7285     1   109.8000471 387.438400
   7276   7282   7283     1   109.5600471 388.275200
   7276   7282   7284     1   109.5600471 388.275200
   7277   7276   7282     1   109.8000471 387.438400
   7277   7276   7278     1   107.5800459 329.699200
   7278   7276   7282     1   109.8000471 387.438400
   7280   7279   7288     1   109.7800468 425.094400
   7280   7279   7281     1   108.4600466 328.025600
   7281   7279   7288     1   109.7800468 425.094400
   7283   7282  12966     1   109.7800468 425.094400
   7283   7282   7284     1   108.4600466 328.025600
   7284   7282  12966     1   109.7800468 425.094400
   7286   7285  12989     1   109.7800468 425.094400
   7286   7285   7287     1   108.4600466 328.025600
   7287   7285  12989     1   109.7800468 425.094400
   7290   7291   7292     1   108.0100461 406.684800
   7290   7291   7293     1   108.0100461 406.684800
   7290   7294   7295     1   108.0100461 406.684800
   7290   7294   7296     1   108.0100461 406.684800
   7290   7297   7298     1   108.0100461 406.684800
   7290   7297   7299     1   108.0100461 406.684800
   7291   7290   7319     1   110.1100470 384.091200
   7291   7303   7304     1   109.8000471 387.438400
   7291   7303   7305     1   109.8000471 387.438400
   7292   7291   7303     1   110.5600475 386.601600
   7292   7291   7293     1   109.7500473 328.025600
   7293   7291   7303     1   110.5600475 386.601600
   7294   7290   7319     1   110.1100470 384.091200
   7294   7306   7307     1   109.8000471 387.438400
   7294   7306   7308     1   109.8000471 387.438400
   7295   7294   7306     1   110.5600475 386.601600
   7295   7294   7296     1   109.7500473 328.025600
   7296   7294   7306     1   110.5600475 386.601600
   7297   7290   7319     1   110.1100470 384.091200
   7297   7300   7301     1   109.8000471 387.438400
   7297   7300   7302     1   109.8000471 387.438400
   7298   7297   7300     1   110.5600475 386.601600
   7298   7297   7299     1   109.7500473 328.025600
   7299   7297   7300     1   110.5600475 386.601600
   7300   7309   7310     1   109.5600471 388.275200
   7300   7309   7311     1   109.5600471 388.275200
   7301   7300   7309     1   109.8000471 387.438400
   7301   7300   7302     1   107.5800459 329.699200
   7302   7300   7309     1   109.8000471 387.438400
   7303   7315   7316     1   109.5600471 388.275200
   7303   7315   7317     1   109.5600471 388.275200
   7304   7303   7315     1   109.8000471 387.438400
   7304   7303   7305     1   107.5800459 329.699200
   7305   7303   7315     1   109.8000471 387.438400
   7306   7312   7313     1   109.5600471 388.275200
   7306   7312   7314     1   109.5600471 388.275200
   7307   7306   7312     1   109.8000471 387.438400
   7307   7306   7308     1   107.5800459 329.699200
   7308   7306   7312     1   109.8000471 387.438400
   7310   7309   7318     1   109.7800468 425.094400
   7310   7309   7311     1   108.4600466 328.025600
   7311   7309   7318     1   109.7800468 425.094400
   7313   7312  13012     1   109.7800468 425.094400
   7313   7312   7314     1   108.4600466 328.025600
   7314   7312  13012     1   109.7800468 425.094400
   7316   7315  13035     1   109.7800468 425.094400
   7316   7315   7317     1   108.4600466 328.025600
   7317   7315  13035     1   109.7800468 425.094400
   7320   7321   7322     1   108.0100461 406.684800
   7320   7321   7323     1   108.0100461 406.684800
   7320   7324   7325     1   108.0100461 406.684800
   7320   7324   7326     1   108.0100461 406.684800
   7320   7327   7328     1   108.0100461 406.684800
   7320   7327   7329     1   108.0100461 406.684800
   7321   7320   7349     1   110.1100470 384.091200
   7321   7333   7334     1   109.8000471 387.438400
   7321   7333   7335     1   109.8000471 387.438400
   7322   7321   7333     1   110.5600475 386.601600
   7322   7321   7323     1   109.7500473 328.025600
   7323   7321   7333     1   110.5600475 386.601600
   7324   7320   7349     1   110.1100470 384.091200
   7324   7336   7337     1   109.8000471 387.438400
   7324   7336   7338     1   109.8000471 387.438400
   7325   7324   7336     1   110.5600475 386.601600
   7325   7324   7326     1   109.7500473 328.025600
   7326   7324   7336     1   110.5600475 386.601600
   7327   7320   7349     1   110.1100470 384.091200
   7327   7330   7331     1   109.8000471 387.438400
   7327   7330   7332     1   109.8000471 387.438400
   7328   7327   7330     1   110.5600475 386.601600
   7328   7327   7329     1   109.7500473 328.025600
   7329   7327   7330     1   110.5600475 386.601600
   7330   7339   7340     1   109.5600471 388.275200
   7330   7339   7341     1   109.5600471 388.275200
   7331   7330   7339     1   109.8000471 387.438400
   7331   7330   7332     1   107.5800459 329.699200
   7332   7330   7339     1   109.8000471 387.438400
   7333   7345   7346     1   109.5600471 388.275200
   7333   7345   7347     1   109.5600471 388.275200
   7334   7333   7345     1   109.8000471 387.438400
   7334   7333   7335     1   107.5800459 329.699200
   7335   7333   7345     1   109.8000471 387.438400
   7336   7342   7343     1   109.5600471 388.275200
   7336   7342   7344     1   109.5600471 388.275200
   7337   7336   7342     1   109.8000471 387.438400
   7337   7336   7338     1   107.5800459 329.699200
   7338   7336   7342     1   109.8000471 387.438400
   7340   7339   7348     1   109.7800468 425.094400
   7340   7339   7341     1   108.4600466 328.025600
   7341   7339   7348     1   109.7800468 425.094400
   7343   7342  13058     1   109.7800468 425.094400
   7343   7342   7344     1   108.4600466 328.025600
   7344   7342  13058     1   109.7800468 425.094400
   7346   7345  13081     1   109.7800468 425.094400
   7346   7345   7347     1   108.4600466 328.025600
   7347   7345  13081     1   109.7800468 425.094400
   7350   7351   7352     1   108.0100461 406.684800
   7350   7351   7353     1   108.0100461 406.684800
   7350   7354   7355     1   108.0100461 406.684800
   7350   7354   7356     1   108.0100461 406.684800
   7350   7357   7358     1   108.0100461 406.684800
   7350   7357   7359     1   108.0100461 406.684800
   7351   7350   7379     1   110.1100470 384.091200
   7351   7363   7364     1   109.8000471 387.438400
   7351   7363   7365     1   109.8000471 387.438400
   7352   7351   7363     1   110.5600475 386.601600
   7352   7351   7353     1   109.7500473 328.025600
   7353   7351   7363     1   110.5600475 386.601600
   7354   7350   7379     1   110.1100470 384.091200
   7354   7366   7367     1   109.8000471 387.438400
   7354   7366   7368     1   109.8000471 387.438400
   7355   7354   7366     1   110.5600475 386.601600
   7355   7354   7356     1   109.7500473 328.025600
   7356   7354   7366     1   110.5600475 386.601600
   7357   7350   7379     1   110.1100470 384.091200
   7357   7360   7361     1   109.8000471 387.438400
   7357   7360   7362     1   109.8000471 387.438400
   7358   7357   7360     1   110.5600475 386.601600
   7358   7357   7359     1   109.7500473 328.025600
   7359   7357   7360     1   110.5600475 386.601600
   7360   7369   7370     1   109.5600471 388.275200
   7360   7369   7371     1   109.5600471 388.275200
   7361   7360   7369     1   109.8000471 387.438400
   7361   7360   7362     1   107.5800459 329.699200
   7362   7360   7369     1   109.8000471 387.438400
   7363   7375   7376     1   109.5600471 388.275200
   7363   7375   7377     1   109.5600471 388.275200
   7364   7363   7375     1   109.8000471 387.438400
   7364   7363   7365     1   107.5800459 329.699200
   7365   7363   7375     1   109.8000471 387.438400
   7366   7372   7373     1   109.5600471 388.275200
   7366   7372   7374     1   109.5600471 388.275200
   7367   7366   7372     1   109.8000471 387.438400
   7367   7366   7368     1   107.5800459 329.699200
   7368   7366   7372     1   109.8000471 387.438400
   7370   7369   7378     1   109.7800468 425.094400
   7370   7369   7371     1   108.4600466 328.025600
   7371   7369   7378     1   109.7800468 425.094400
   7373   7372  13104     1   109.7800468 425.094400
   7373   7372   7374     1   108.4600466 328.025600
   7374   7372  13104     1   109.7800468 425.094400
   7376   7375  13127     1   109.7800468 425.094400
   7376   7375   7377     1   108.4600466 328.025600
   7377   7375  13127     1   109.7800468 425.094400
   7380   7381   7382     1   108.0100461 406.684800
   7380   7381   7383     1   108.0100461 406.684800
   7380   7384   7385     1   108.0100461 406.684800
   7380   7384   7386     1   108.0100461 406.684800
   7380   7387   7388     1   108.0100461 406.684800
   7380   7387   7389     1   108.0100461 406.684800
   7381   7380   7409     1   110.1100470 384.091200
   7381   7393   7394     1   109.8000471 387.438400
   7381   7393   7395     1   109.8000471 387.438400
   7382   7381   7393     1   110.5600475 386.601600
   7382   7381   7383     1   109.7500473 328.025600
   7383   7381   7393     1   110.5600475 386.601600
   7384   7380   7409     1   110.1100470 384.091200
   7384   7396   7397     1   109.8000471 387.438400
   7384   7396   7398     1   109.8000471 387.438400
   7385   7384   7396     1   110.5600475 386.601600
   7385   7384   7386     1   109.7500473 328.025600
   7386   7384   7396     1   110.5600475 386.601600
   7387   7380   7409     1   110.1100470 384.091200
   7387   7390   7391     1   109.8000471 387.438400
   7387   7390   7392     1   109.8000471 387.438400
   7388   7387   7390     1   110.5600475 386.601600
   7388   7387   7389     1   109.7500473 328.025600
   7389   7387   7390     1   110.5600475 386.601600
   7390   7399   7400     1   109.5600471 388.275200
   7390   7399   7401     1   109.5600471 388.275200
   7391   7390   7399     1   109.8000471 387.438400
   7391   7390   7392     1   107.5800459 329.699200
   7392   7390   7399     1   109.8000471 387.438400
   7393   7405   7406     1   109.5600471 388.275200
   7393   7405   7407     1   109.5600471 388.275200
   7394   7393   7405     1   109.8000471 387.438400
   7394   7393   7395     1   107.5800459 329.699200
   7395   7393   7405     1   109.8000471 387.438400
   7396   7402   7403     1   109.5600471 388.275200
   7396   7402   7404     1   109.5600471 388.275200
   7397   7396   7402     1   109.8000471 387.438400
   7397   7396   7398     1   107.5800459 329.699200
   7398   7396   7402     1   109.8000471 387.438400
   7400   7399   7408     1   109.7800468 425.094400
   7400   7399   7401     1   108.4600466 328.025600
   7401   7399   7408     1   109.7800468 425.094400
   7403   7402  13150     1   109.7800468 425.094400
   7403   7402   7404     1   108.4600466 328.025600
   7404   7402  13150     1   109.7800468 425.094400
   7406   7405  13173     1   109.7800468 425.094400
   7406   7405   7407     1   108.4600466 328.025600
   7407   7405  13173     1   109.7800468 425.094400
   7410   7411   7412     1   108.0100461 406.684800
   7410   7411   7413     1   108.0100461 406.684800
   7410   7414   7415     1   108.0100461 406.684800
   7410   7414   7416     1   108.0100461 406.684800
   7410   7417   7418     1   108.0100461 406.684800
   7410   7417   7419     1   108.0100461 406.684800
   7411   7410   7439     1   110.1100470 384.091200
   7411   7423   7424     1   109.8000471 387.438400
   7411   7423   7425     1   109.8000471 387.438400
   7412   7411   7423     1   110.5600475 386.601600
   7412   7411   7413     1   109.7500473 328.025600
   7413   7411   7423     1   110.5600475 386.601600
   7414   7410   7439     1   110.1100470 384.091200
   7414   7426   7427     1   109.8000471 387.438400
   7414   7426   7428     1   109.8000471 387.438400
   7415   7414   7426     1   110.5600475 386.601600
   7415   7414   7416     1   109.7500473 328.025600
   7416   7414   7426     1   110.5600475 386.601600
   7417   7410   7439     1   110.1100470 384.091200
   7417   7420   7421     1   109.8000471 387.438400
   7417   7420   7422     1   109.8000471 387.438400
   7418   7417   7420     1   110.5600475 386.601600
   7418   7417   7419     1   109.7500473 328.025600
   7419   7417   7420     1   110.5600475 386.601600
   7420   7429   7430     1   109.5600471 388.275200
   7420   7429   7431     1   109.5600471 388.275200
   7421   7420   7429     1   109.8000471 387.438400
   7421   7420   7422     1   107.5800459 329.699200
   7422   7420   7429     1   109.8000471 387.438400
   7423   7435   7436     1   109.5600471 388.275200
   7423   7435   7437     1   109.5600471 388.275200
   7424   7423   7435     1   109.8000471 387.438400
   7424   7423   7425     1   107.5800459 329.699200
   7425   7423   7435     1   109.8000471 387.438400
   7426   7432   7433     1   109.5600471 388.275200
   7426   7432   7434     1   109.5600471 388.275200
   7427   7426   7432     1   109.8000471 387.438400
   7427   7426   7428     1   107.5800459 329.699200
   7428   7426   7432     1   109.8000471 387.438400
   7430   7429   7438     1   109.7800468 425.094400
   7430   7429   7431     1   108.4600466 328.025600
   7431   7429   7438     1   109.7800468 425.094400
   7433   7432  13196     1   109.7800468 425.094400
   7433   7432   7434     1   108.4600466 328.025600
   7434   7432  13196     1   109.7800468 425.094400
   7436   7435  13219     1   109.7800468 425.094400
   7436   7435   7437     1   108.4600466 328.025600
   7437   7435  13219     1   109.7800468 425.094400
   7440   7441   7442     1   108.0100461 406.684800
   7440   7441   7443     1   108.0100461 406.684800
   7440   7444   7445     1   108.0100461 406.684800
   7440   7444   7446     1   108.0100461 406.684800
   7440   7447   7448     1   108.0100461 406.684800
   7440   7447   7449     1   108.0100461 406.684800
   7441   7440   7469     1   110.1100470 384.091200
   7441   7453   7454     1   109.8000471 387.438400
   7441   7453   7455     1   109.8000471 387.438400
   7442   7441   7453     1   110.5600475 386.601600
   7442   7441   7443     1   109.7500473 328.025600
   7443   7441   7453     1   110.5600475 386.601600
   7444   7440   7469     1   110.1100470 384.091200
   7444   7456   7457     1   109.8000471 387.438400
   7444   7456   7458     1   109.8000471 387.438400
   7445   7444   7456     1   110.5600475 386.601600
   7445   7444   7446     1   109.7500473 328.025600
   7446   7444   7456     1   110.5600475 386.601600
   7447   7440   7469     1   110.1100470 384.091200
   7447   7450   7451     1   109.8000471 387.438400
   7447   7450   7452     1   109.8000471 387.438400
   7448   7447   7450     1   110.5600475 386.601600
   7448   7447   7449     1   109.7500473 328.025600
   7449   7447   7450     1   110.5600475 386.601600
   7450   7459   7460     1   109.5600471 388.275200
   7450   7459   7461     1   109.5600471 388.275200
   7451   7450   7459     1   109.8000471 387.438400
   7451   7450   7452     1   107.5800459 329.699200
   7452   7450   7459     1   109.8000471 387.438400
   7453   7465   7466     1   109.5600471 388.275200
   7453   7465   7467     1   109.5600471 388.275200
   7454   7453   7465     1   109.8000471 387.438400
   7454   7453   7455     1   107.5800459 329.699200
   7455   7453   7465     1   109.8000471 387.438400
   7456   7462   7463     1   109.5600471 388.275200
   7456   7462   7464     1   109.5600471 388.275200
   7457   7456   7462     1   109.8000471 387.438400
   7457   7456   7458     1   107.5800459 329.699200
   7458   7456   7462     1   109.8000471 387.438400
   7460   7459   7468     1   109.7800468 425.094400
   7460   7459   7461     1   108.4600466 328.025600
   7461   7459   7468     1   109.7800468 425.094400
   7463   7462  13242     1   109.7800468 425.094400
   7463   7462   7464     1   108.4600466 328.025600
   7464   7462  13242     1   109.7800468 425.094400
   7466   7465  13265     1   109.7800468 425.094400
   7466   7465   7467     1   108.4600466 328.025600
   7467   7465  13265     1   109.7800468 425.094400
   7470   7471   7472     1   108.0100461 406.684800
   7470   7471   7473     1   108.0100461 406.684800
   7470   7474   7475     1   108.0100461 406.684800
   7470   7474   7476     1   108.0100461 406.684800
   7470   7477   7478     1   108.0100461 406.684800
   7470   7477   7479     1   108.0100461 406.684800
   7471   7470   7499     1   110.1100470 384.091200
   7471   7483   7484     1   109.8000471 387.438400
   7471   7483   7485     1   109.8000471 387.438400
   7472   7471   7483     1   110.5600475 386.601600
   7472   7471   7473     1   109.7500473 328.025600
   7473   7471   7483     1   110.5600475 386.601600
   7474   7470   7499     1   110.1100470 384.091200
   7474   7486   7487     1   109.8000471 387.438400
   7474   7486   7488     1   109.8000471 387.438400
   7475   7474   7486     1   110.5600475 386.601600
   7475   7474   7476     1   109.7500473 328.025600
   7476   7474   7486     1   110.5600475 386.601600
   7477   7470   7499     1   110.1100470 384.091200
   7477   7480   7481     1   109.8000471 387.438400
   7477   7480   7482     1   109.8000471 387.438400
   7478   7477   7480     1   110.5600475 386.601600
   7478   7477   7479     1   109.7500473 328.025600
   7479   7477   7480     1   110.5600475 386.601600
   7480   7489   7490     1   109.5600471 388.275200
   7480   7489   7491     1   109.5600471 388.275200
   7481   7480   7489     1   109.8000471 387.438400
   7481   7480   7482     1   107.5800459 329.699200
   7482   7480   7489     1   109.8000471 387.438400
   7483   7495   7496     1   109.5600471 388.275200
   7483   7495   7497     1   109.5600471 388.275200
   7484   7483   7495     1   109.8000471 387.438400
   7484   7483   7485     1   107.5800459 329.699200
   7485   7483   7495     1   109.8000471 387.438400
   7486   7492   7493     1   109.5600471 388.275200
   7486   7492   7494     1   109.5600471 388.275200
   7487   7486   7492     1   109.8000471 387.438400
   7487   7486   7488     1   107.5800459 329.699200
   7488   7486   7492     1   109.8000471 387.438400
   7490   7489   7498     1   109.7800468 425.094400
   7490   7489   7491     1   108.4600466 328.025600
   7491   7489   7498     1   109.7800468 425.094400
   7493   7492  13288     1   109.7800468 425.094400
   7493   7492   7494     1   108.4600466 328.025600
   7494   7492  13288     1   109.7800468 425.094400
   7496   7495  13311     1   109.7800468 425.094400
   7496   7495   7497     1   108.4600466 328.025600
   7497   7495  13311     1   109.7800468 425.094400
   7500   7501   7502     1   108.0100461 406.684800
   7500   7501   7503     1   108.0100461 406.684800
   7500   7504   7505     1   108.0100461 406.684800
   7500   7504   7506     1   108.0100461 406.684800
   7500   7507   7508     1   108.0100461 406.684800
   7500   7507   7509     1   108.0100461 406.684800
   7501   7500   7529     1   110.1100470 384.091200
   7501   7513   7514     1   109.8000471 387.438400
   7501   7513   7515     1   109.8000471 387.438400
   7502   7501   7513     1   110.5600475 386.601600
   7502   7501   7503     1   109.7500473 328.025600
   7503   7501   7513     1   110.5600475 386.601600
   7504   7500   7529     1   110.1100470 384.091200
   7504   7516   7517     1   109.8000471 387.438400
   7504   7516   7518     1   109.8000471 387.438400
   7505   7504   7516     1   110.5600475 386.601600
   7505   7504   7506     1   109.7500473 328.025600
   7506   7504   7516     1   110.5600475 386.601600
   7507   7500   7529     1   110.1100470 384.091200
   7507   7510   7511     1   109.8000471 387.438400
   7507   7510   7512     1   109.8000471 387.438400
   7508   7507   7510     1   110.5600475 386.601600
   7508   7507   7509     1   109.7500473 328.025600
   7509   7507   7510     1   110.5600475 386.601600
   7510   7519   7520     1   109.5600471 388.275200
   7510   7519   7521     1   109.5600471 388.275200
   7511   7510   7519     1   109.8000471 387.438400
   7511   7510   7512     1   107.5800459 329.699200
   7512   7510   7519     1   109.8000471 387.438400
   7513   7525   7526     1   109.5600471 388.275200
   7513   7525   7527     1   109.5600471 388.275200
   7514   7513   7525     1   109.8000471 387.438400
   7514   7513   7515     1   107.5800459 329.699200
   7515   7513   7525     1   109.8000471 387.438400
   7516   7522   7523     1   109.5600471 388.275200
   7516   7522   7524     1   109.5600471 388.275200
   7517   7516   7522     1   109.8000471 387.438400
   7517   7516   7518     1   107.5800459 329.699200
   7518   7516   7522     1   109.8000471 387.438400
   7520   7519   7528     1   109.7800468 425.094400
   7520   7519   7521     1   108.4600466 328.025600
   7521   7519   7528     1   109.7800468 425.094400
   7523   7522  13334     1   109.7800468 425.094400
   7523   7522   7524     1   108.4600466 328.025600
   7524   7522  13334     1   109.7800468 425.094400
   7526   7525  13357     1   109.7800468 425.094400
   7526   7525   7527     1   108.4600466 328.025600
   7527   7525  13357     1   109.7800468 425.094400
   7530   7531   7532     1   108.0100461 406.684800
   7530   7531   7533     1   108.0100461 406.684800
   7530   7534   7535     1   108.0100461 406.684800
   7530   7534   7536     1   108.0100461 406.684800
   7530   7537   7538     1   108.0100461 406.684800
   7530   7537   7539     1   108.0100461 406.684800
   7531   7530   7559     1   110.1100470 384.091200
   7531   7543   7544     1   109.8000471 387.438400
   7531   7543   7545     1   109.8000471 387.438400
   7532   7531   7543     1   110.5600475 386.601600
   7532   7531   7533     1   109.7500473 328.025600
   7533   7531   7543     1   110.5600475 386.601600
   7534   7530   7559     1   110.1100470 384.091200
   7534   7546   7547     1   109.8000471 387.438400
   7534   7546   7548     1   109.8000471 387.438400
   7535   7534   7546     1   110.5600475 386.601600
   7535   7534   7536     1   109.7500473 328.025600
   7536   7534   7546     1   110.5600475 386.601600
   7537   7530   7559     1   110.1100470 384.091200
   7537   7540   7541     1   109.8000471 387.438400
   7537   7540   7542     1   109.8000471 387.438400
   7538   7537   7540     1   110.5600475 386.601600
   7538   7537   7539     1   109.7500473 328.025600
   7539   7537   7540     1   110.5600475 386.601600
   7540   7549   7550     1   109.5600471 388.275200
   7540   7549   7551     1   109.5600471 388.275200
   7541   7540   7549     1   109.8000471 387.438400
   7541   7540   7542     1   107.5800459 329.699200
   7542   7540   7549     1   109.8000471 387.438400
   7543   7555   7556     1   109.5600471 388.275200
   7543   7555   7557     1   109.5600471 388.275200
   7544   7543   7555     1   109.8000471 387.438400
   7544   7543   7545     1   107.5800459 329.699200
   7545   7543   7555     1   109.8000471 387.438400
   7546   7552   7553     1   109.5600471 388.275200
   7546   7552   7554     1   109.5600471 388.275200
   7547   7546   7552     1   109.8000471 387.438400
   7547   7546   7548     1   107.5800459 329.699200
   7548   7546   7552     1   109.8000471 387.438400
   7550   7549   7558     1   109.7800468 425.094400
   7550   7549   7551     1   108.4600466 328.025600
   7551   7549   7558     1   109.7800468 425.094400
   7553   7552  13380     1   109.7800468 425.094400
   7553   7552   7554     1   108.4600466 328.025600
   7554   7552  13380     1   109.7800468 425.094400
   7556   7555  13403     1   109.7800468 425.094400
   7556   7555   7557     1   108.4600466 328.025600
   7557   7555  13403     1   109.7800468 425.094400
   7560   7561   7562     1   108.0100461 406.684800
   7560   7561   7563     1   108.0100461 406.684800
   7560   7564   7565     1   108.0100461 406.684800
   7560   7564   7566     1   108.0100461 406.684800
   7560   7567   7568     1   108.0100461 406.684800
   7560   7567   7569     1   108.0100461 406.684800
   7561   7560   7589     1   110.1100470 384.091200
   7561   7573   7574     1   109.8000471 387.438400
   7561   7573   7575     1   109.8000471 387.438400
   7562   7561   7573     1   110.5600475 386.601600
   7562   7561   7563     1   109.7500473 328.025600
   7563   7561   7573     1   110.5600475 386.601600
   7564   7560   7589     1   110.1100470 384.091200
   7564   7576   7577     1   109.8000471 387.438400
   7564   7576   7578     1   109.8000471 387.438400
   7565   7564   7576     1   110.5600475 386.601600
   7565   7564   7566     1   109.7500473 328.025600
   7566   7564   7576     1   110.5600475 386.601600
   7567   7560   7589     1   110.1100470 384.091200
   7567   7570   7571     1   109.8000471 387.438400
   7567   7570   7572     1   109.8000471 387.438400
   7568   7567   7570     1   110.5600475 386.601600
   7568   7567   7569     1   109.7500473 328.025600
   7569   7567   7570     1   110.5600475 386.601600
   7570   7579   7580     1   109.5600471 388.275200
   7570   7579   7581     1   109.5600471 388.275200
   7571   7570   7579     1   109.8000471 387.438400
   7571   7570   7572     1   107.5800459 329.699200
   7572   7570   7579     1   109.8000471 387.438400
   7573   7585   7586     1   109.5600471 388.275200
   7573   7585   7587     1   109.5600471 388.275200
   7574   7573   7585     1   109.8000471 387.438400
   7574   7573   7575     1   107.5800459 329.699200
   7575   7573   7585     1   109.8000471 387.438400
   7576   7582   7583     1   109.5600471 388.275200
   7576   7582   7584     1   109.5600471 388.275200
   7577   7576   7582     1   109.8000471 387.438400
   7577   7576   7578     1   107.5800459 329.699200
   7578   7576   7582     1   109.8000471 387.438400
   7580   7579   7588     1   109.7800468 425.094400
   7580   7579   7581     1   108.4600466 328.025600
   7581   7579   7588     1   109.7800468 425.094400
   7583   7582  13426     1   109.7800468 425.094400
   7583   7582   7584     1   108.4600466 328.025600
   7584   7582  13426     1   109.7800468 425.094400
   7586   7585  13449     1   109.7800468 425.094400
   7586   7585   7587     1   108.4600466 328.025600
   7587   7585  13449     1   109.7800468 425.094400
   7590   7591   7592     1   108.0100461 406.684800
   7590   7591   7593     1   108.0100461 406.684800
   7590   7594   7595     1   108.0100461 406.684800
   7590   7594   7596     1   108.0100461 406.684800
   7590   7597   7598     1   108.0100461 406.684800
   7590   7597   7599     1   108.0100461 406.684800
   7591   7590   7619     1   110.1100470 384.091200
   7591   7603   7604     1   109.8000471 387.438400
   7591   7603   7605     1   109.8000471 387.438400
   7592   7591   7603     1   110.5600475 386.601600
   7592   7591   7593     1   109.7500473 328.025600
   7593   7591   7603     1   110.5600475 386.601600
   7594   7590   7619     1   110.1100470 384.091200
   7594   7606   7607     1   109.8000471 387.438400
   7594   7606   7608     1   109.8000471 387.438400
   7595   7594   7606     1   110.5600475 386.601600
   7595   7594   7596     1   109.7500473 328.025600
   7596   7594   7606     1   110.5600475 386.601600
   7597   7590   7619     1   110.1100470 384.091200
   7597   7600   7601     1   109.8000471 387.438400
   7597   7600   7602     1   109.8000471 387.438400
   7598   7597   7600     1   110.5600475 386.601600
   7598   7597   7599     1   109.7500473 328.025600
   7599   7597   7600     1   110.5600475 386.601600
   7600   7609   7610     1   109.5600471 388.275200
   7600   7609   7611     1   109.5600471 388.275200
   7601   7600   7609     1   109.8000471 387.438400
   7601   7600   7602     1   107.5800459 329.699200
   7602   7600   7609     1   109.8000471 387.438400
   7603   7615   7616     1   109.5600471 388.275200
   7603   7615   7617     1   109.5600471 388.275200
   7604   7603   7615     1   109.8000471 387.438400
   7604   7603   7605     1   107.5800459 329.699200
   7605   7603   7615     1   109.8000471 387.438400
   7606   7612   7613     1   109.5600471 388.275200
   7606   7612   7614     1   109.5600471 388.275200
   7607   7606   7612     1   109.8000471 387.438400
   7607   7606   7608     1   107.5800459 329.699200
   7608   7606   7612     1   109.8000471 387.438400
   7610   7609   7618     1   109.7800468 425.094400
   7610   7609   7611     1   108.4600466 328.025600
   7611   7609   7618     1   109.7800468 425.094400
   7613   7612  13472     1   109.7800468 425.094400
   7613   7612   7614     1   108.4600466 328.025600
   7614   7612  13472     1   109.7800468 425.094400
   7616   7615  13495     1   109.7800468 425.094400
   7616   7615   7617     1   108.4600466 328.025600
   7617   7615  13495     1   109.7800468 425.094400
   7620   7621   7623     1   109.5600471 388.275200
   7620   7634   7638     1   109.5600471 388.275200
   7620   7634   7639     1   109.5600471 388.275200
   7621   7620   7622     1   109.5600471 388.275200
   7621   7624   7628     1   109.5600471 388.275200
   7621   7633   7636     1   107.2600461 396.643200
   7622   7620   7634     1   109.5600471 388.275200
   7622   7620   7642     1   109.7800468 425.094400
   7623   7621   7624     1   109.5600471 388.275200
   7623   7621   7633     1   110.2600474 425.931200
   7624   7625   7627     1   109.5600471 388.275200
   7624   7632   7635     1   107.2600461 396.643200
   7625   7624   7628     1   109.5600471 388.275200
   7625   7626   7629     1   110.2200475 386.601600
   7625   7631   7637     1   107.2600461 396.643200
   7626   7625   7627     1   109.5600471 388.275200
   7627   7625   7631     1   110.2600474 425.931200
   7628   7624   7632     1   110.2600474 425.931200
   7629   7626   7630     1   109.5800467 425.931200
   7629   7626   7642     1   109.5800467 425.931200
   7634   7640   7641     1   107.2600461 396.643200
   7638   7634   7640     1   110.2600474 425.931200
   7638   7634   7639     1   108.4600466 328.025600
   7639   7634   7640     1   110.2600474 425.931200
   7643   7644   7646     1   109.5600471 388.275200
   7643   7657   7661     1   109.5600471 388.275200
   7643   7657   7662     1   109.5600471 388.275200
   7644   7647   7651     1   109.5600471 388.275200
   7644   7656   7659     1   107.2600461 396.643200
   7644   7643   7645     1   109.5600471 388.275200
   7645   7643   7657     1   109.5600471 388.275200
   7645   7643   7665     1   109.7800468 425.094400
   7646   7644   7647     1   109.5600471 388.275200
   7646   7644   7656     1   110.2600474 425.931200
   7647   7648   7650     1   109.5600471 388.275200
   7647   7655   7658     1   107.2600461 396.643200
   7648   7649   7652     1   110.2200475 386.601600
   7648   7654   7660     1   107.2600461 396.643200
   7648   7647   7651     1   109.5600471 388.275200
   7649   7648   7650     1   109.5600471 388.275200
   7650   7648   7654     1   110.2600474 425.931200
   7651   7647   7655     1   110.2600474 425.931200
   7652   7649   7653     1   109.5800467 425.931200
   7652   7649   7665     1   109.5800467 425.931200
   7657   7663   7664     1   107.2600461 396.643200
   7661   7657   7663     1   110.2600474 425.931200
   7661   7657   7662     1   108.4600466 328.025600
   7662   7657   7663     1   110.2600474 425.931200
   7666   7667   7669     1   109.5600471 388.275200
   7666   7680   7684     1   109.5600471 388.275200
   7666   7680   7685     1   109.5600471 388.275200
   7667   7666   7668     1   109.5600471 388.275200
   7667   7670   7674     1   109.5600471 388.275200
   7667   7679   7682     1   107.2600461 396.643200
   7668   7666   7680     1   109.5600471 388.275200
   7668   7666   7688     1   109.7800468 425.094400
   7669   7667   7670     1   109.5600471 388.275200
   7669   7667   7679     1   110.2600474 425.931200
   7670   7671   7673     1   109.5600471 388.275200
   7670   7678   7681     1   107.2600461 396.643200
   7671   7670   7674     1   109.5600471 388.275200
   7671   7672   7675     1   110.2200475 386.601600
   7671   7677   7683     1   107.2600461 396.643200
   7672   7671   7673     1   109.5600471 388.275200
   7673   7671   7677     1   110.2600474 425.931200
   7674   7670   7678     1   110.2600474 425.931200
   7675   7672   7676     1   109.5800467 425.931200
   7675   7672   7688     1   109.5800467 425.931200
   7680   7686   7687     1   107.2600461 396.643200
   7684   7680   7686     1   110.2600474 425.931200
   7684   7680   7685     1   108.4600466 328.025600
   7685   7680   7686     1   110.2600474 425.931200
   7689   7690   7692     1   109.5600471 388.275200
   7689   7703   7707     1   109.5600471 388.275200
   7689   7703   7708     1   109.5600471 388.275200
   7690   7693   7697     1   109.5600471 388.275200
   7690   7702   7705     1   107.2600461 396.643200
   7690   7689   7691     1   109.5600471 388.275200
   7691   7689   7703     1   109.5600471 388.275200
   7691   7689   7711     1   109.7800468 425.094400
   7692   7690   7693     1   109.5600471 388.275200
   7692   7690   7702     1   110.2600474 425.931200
   7693   7694   7696     1   109.5600471 388.275200
   7693   7701   7704     1   107.2600461 396.643200
   7694   7695   7698     1   110.2200475 386.601600
   7694   7700   7706     1   107.2600461 396.643200
   7694   7693   7697     1   109.5600471 388.275200
   7695   7694   7696     1   109.5600471 388.275200
   7696   7694   7700     1   110.2600474 425.931200
   7697   7693   7701     1   110.2600474 425.931200
   7698   7695   7699     1   109.5800467 425.931200
   7698   7695   7711     1   109.5800467 425.931200
   7703   7709   7710     1   107.2600461 396.643200
   7707   7703   7709     1   110.2600474 425.931200
   7707   7703   7708     1   108.4600466 328.025600
   7708   7703   7709     1   110.2600474 425.931200
   7712   7713   7715     1   109.5600471 388.275200
   7712   7726   7730     1   109.5600471 388.275200
   7712   7726   7731     1   109.5600471 388.275200
   7713   7712   7714     1   109.5600471 388.275200
   7713   7716   7720     1   109.5600471 388.275200
   7713   7725   7728     1   107.2600461 396.643200
   7714   7712   7726     1   109.5600471 388.275200
   7714   7712   7734     1   109.7800468 425.094400
   7715   7713   7716     1   109.5600471 388.275200
   7715   7713   7725     1   110.2600474 425.931200
   7716   7717   7719     1   109.5600471 388.275200
   7716   7724   7727     1   107.2600461 396.643200
   7717   7716   7720     1   109.5600471 388.275200
   7717   7718   7721     1   110.2200475 386.601600
   7717   7723   7729     1   107.2600461 396.643200
   7718   7717   7719     1   109.5600471 388.275200
   7719   7717   7723     1   110.2600474 425.931200
   7720   7716   7724     1   110.2600474 425.931200
   7721   7718   7722     1   109.5800467 425.931200
   7721   7718   7734     1   109.5800467 425.931200
   7726   7732   7733     1   107.2600461 396.643200
   7730   7726   7732     1   110.2600474 425.931200
   7730   7726   7731     1   108.4600466 328.025600
   7731   7726   7732     1   110.2600474 425.931200
   7735   7736   7738     1   109.5600471 388.275200
   7735   7749   7753     1   109.5600471 388.275200
   7735   7749   7754     1   109.5600471 388.275200
   7736   7739   7743     1   109.5600471 388.275200
   7736   7748   7751     1   107.2600461 396.643200
   7736   7735   7737     1   109.5600471 388.275200
   7737   7735   7749     1   109.5600471 388.275200
   7737   7735   7757     1   109.7800468 425.094400
   7738   7736   7739     1   109.5600471 388.275200
   7738   7736   7748     1   110.2600474 425.931200
   7739   7740   7742     1   109.5600471 388.275200
   7739   7747   7750     1   107.2600461 396.643200
   7740   7741   7744     1   110.2200475 386.601600
   7740   7746   7752     1   107.2600461 396.643200
   7740   7739   7743     1   109.5600471 388.275200
   7741   7740   7742     1   109.5600471 388.275200
   7742   7740   7746     1   110.2600474 425.931200
   7743   7739   7747     1   110.2600474 425.931200
   7744   7741   7745     1   109.5800467 425.931200
   7744   7741   7757     1   109.5800467 425.931200
   7749   7755   7756     1   107.2600461 396.643200
   7753   7749   7755     1   110.2600474 425.931200
   7753   7749   7754     1   108.4600466 328.025600
   7754   7749   7755     1   110.2600474 425.931200
   7758   7759   7761     1   109.5600471 388.275200
   7758   7772   7776     1   109.5600471 388.275200
   7758   7772   7777     1   109.5600471 388.275200
   7759   7758   7760     1   109.5600471 388.275200
   7759   7762   7766     1   109.5600471 388.275200
   7759   7771   7774     1   107.2600461 396.643200
   7760   7758   7772     1   109.5600471 388.275200
   7760   7758   7780     1   109.7800468 425.094400
   7761   7759   7762     1   109.5600471 388.275200
   7761   7759   7771     1   110.2600474 425.931200
   7762   7763   7765     1   109.5600471 388.275200
   7762   7770   7773     1   107.2600461 396.643200
   7763   7762   7766     1   109.5600471 388.275200
   7763   7764   7767     1   110.2200475 386.601600
   7763   7769   7775     1   107.2600461 396.643200
   7764   7763   7765     1   109.5600471 388.275200
   7765   7763   7769     1   110.2600474 425.931200
   7766   7762   7770     1   110.2600474 425.931200
   7767   7764   7768     1   109.5800467 425.931200
   7767   7764   7780     1   109.5800467 425.931200
   7772   7778   7779     1   107.2600461 396.643200
   7776   7772   7778     1   110.2600474 425.931200
   7776   7772   7777     1   108.4600466 328.025600
   7777   7772   7778     1   110.2600474 425.931200
   7781   7782   7784     1   109.5600471 388.275200
   7781   7795   7799     1   109.5600471 388.275200
   7781   7795   7800     1   109.5600471 388.275200
   7782   7785   7789     1   109.5600471 388.275200
   7782   7794   7797     1   107.2600461 396.643200
   7782   7781   7783     1   109.5600471 388.275200
   7783   7781   7795     1   109.5600471 388.275200
   7783   7781   7803     1   109.7800468 425.094400
   7784   7782   7785     1   109.5600471 388.275200
   7784   7782   7794     1   110.2600474 425.931200
   7785   7786   7788     1   109.5600471 388.275200
   7785   7793   7796     1   107.2600461 396.643200
   7786   7787   7790     1   110.2200475 386.601600
   7786   7792   7798     1   107.2600461 396.643200
   7786   7785   7789     1   109.5600471 388.275200
   7787   7786   7788     1   109.5600471 388.275200
   7788   7786   7792     1   110.2600474 425.931200
   7789   7785   7793     1   110.2600474 425.931200
   7790   7787   7791     1   109.5800467 425.931200
   7790   7787   7803     1   109.5800467 425.931200
   7795   7801   7802     1   107.2600461 396.643200
   7799   7795   7801     1   110.2600474 425.931200
   7799   7795   7800     1   108.4600466 328.025600
   7800   7795   7801     1   110.2600474 425.931200
   7804   7805   7807     1   109.5600471 388.275200
   7804   7818   7822     1   109.5600471 388.275200
   7804   7818   7823     1   109.5600471 388.275200
   7805   7804   7806     1   109.5600471 388.275200
   7805   7808   7812     1   109.5600471 388.275200
   7805   7817   7820     1   107.2600461 396.643200
   7806   7804   7818     1   109.5600471 388.275200
   7806   7804   7826     1   109.7800468 425.094400
   7807   7805   7808     1   109.5600471 388.275200
   7807   7805   7817     1   110.2600474 425.931200
   7808   7809   7811     1   109.5600471 388.275200
   7808   7816   7819     1   107.2600461 396.643200
   7809   7808   7812     1   109.5600471 388.275200
   7809   7810   7813     1   110.2200475 386.601600
   7809   7815   7821     1   107.2600461 396.643200
   7810   7809   7811     1   109.5600471 388.275200
   7811   7809   7815     1   110.2600474 425.931200
   7812   7808   7816     1   110.2600474 425.931200
   7813   7810   7814     1   109.5800467 425.931200
   7813   7810   7826     1   109.5800467 425.931200
   7818   7824   7825     1   107.2600461 396.643200
   7822   7818   7824     1   110.2600474 425.931200
   7822   7818   7823     1   108.4600466 328.025600
   7823   7818   7824     1   110.2600474 425.931200
   7827   7828   7830     1   109.5600471 388.275200
   7827   7841   7845     1   109.5600471 388.275200
   7827   7841   7846     1   109.5600471 388.275200
   7828   7831   7835     1   109.5600471 388.275200
   7828   7840   7843     1   107.2600461 396.643200
   7828   7827   7829     1   109.5600471 388.275200
   7829   7827   7841     1   109.5600471 388.275200
   7829   7827   7849     1   109.7800468 425.094400
   7830   7828   7831     1   109.5600471 388.275200
   7830   7828   7840     1   110.2600474 425.931200
   7831   7832   7834     1   109.5600471 388.275200
   7831   7839   7842     1   107.2600461 396.643200
   7832   7833   7836     1   110.2200475 386.601600
   7832   7838   7844     1   107.2600461 396.643200
   7832   7831   7835     1   109.5600471 388.275200
   7833   7832   7834     1   109.5600471 388.275200
   7834   7832   7838     1   110.2600474 425.931200
   7835   7831   7839     1   110.2600474 425.931200
   7836   7833   7837     1   109.5800467 425.931200
   7836   7833   7849     1   109.5800467 425.931200
   7841   7847   7848     1   107.2600461 396.643200
   7845   7841   7847     1   110.2600474 425.931200
   7845   7841   7846     1   108.4600466 328.025600
   7846   7841   7847     1   110.2600474 425.931200
   7850   7851   7853     1   109.5600471 388.275200
   7850   7864   7868     1   109.5600471 388.275200
   7850   7864   7869     1   109.5600471 388.275200
   7851   7850   7852     1   109.5600471 388.275200
   7851   7854   7858     1   109.5600471 388.275200
   7851   7863   7866     1   107.2600461 396.643200
   7852   7850   7864     1   109.5600471 388.275200
   7852   7850   7872     1   109.7800468 425.094400
   7853   7851   7854     1   109.5600471 388.275200
   7853   7851   7863     1   110.2600474 425.931200
   7854   7855   7857     1   109.5600471 388.275200
   7854   7862   7865     1   107.2600461 396.643200
   7855   7854   7858     1   109.5600471 388.275200
   7855   7856   7859     1   110.2200475 386.601600
   7855   7861   7867     1   107.2600461 396.643200
   7856   7855   7857     1   109.5600471 388.275200
   7857   7855   7861     1   110.2600474 425.931200
   7858   7854   7862     1   110.2600474 425.931200
   7859   7856   7860     1   109.5800467 425.931200
   7859   7856   7872     1   109.5800467 425.931200
   7864   7870   7871     1   107.2600461 396.643200
   7868   7864   7870     1   110.2600474 425.931200
   7868   7864   7869     1   108.4600466 328.025600
   7869   7864   7870     1   110.2600474 425.931200
   7873   7874   7876     1   109.5600471 388.275200
   7873   7887   7891     1   109.5600471 388.275200
   7873   7887   7892     1   109.5600471 388.275200
   7874   7877   7881     1   109.5600471 388.275200
   7874   7886   7889     1   107.2600461 396.643200
   7874   7873   7875     1   109.5600471 388.275200
   7875   7873   7887     1   109.5600471 388.275200
   7875   7873   7895     1   109.7800468 425.094400
   7876   7874   7877     1   109.5600471 388.275200
   7876   7874   7886     1   110.2600474 425.931200
   7877   7878   7880     1   109.5600471 388.275200
   7877   7885   7888     1   107.2600461 396.643200
   7878   7879   7882     1   110.2200475 386.601600
   7878   7884   7890     1   107.2600461 396.643200
   7878   7877   7881     1   109.5600471 388.275200
   7879   7878   7880     1   109.5600471 388.275200
   7880   7878   7884     1   110.2600474 425.931200
   7881   7877   7885     1   110.2600474 425.931200
   7882   7879   7883     1   109.5800467 425.931200
   7882   7879   7895     1   109.5800467 425.931200
   7887   7893   7894     1   107.2600461 396.643200
   7891   7887   7893     1   110.2600474 425.931200
   7891   7887   7892     1   108.4600466 328.025600
   7892   7887   7893     1   110.2600474 425.931200
   7896   7897   7899     1   109.5600471 388.275200
   7896   7910   7914     1   109.5600471 388.275200
   7896   7910   7915     1   109.5600471 388.275200
   7897   7896   7898     1   109.5600471 388.275200
   7897   7900   7904     1   109.5600471 388.275200
   7897   7909   7912     1   107.2600461 396.643200
   7898   7896   7910     1   109.5600471 388.275200
   7898   7896   7918     1   109.7800468 425.094400
   7899   7897   7900     1   109.5600471 388.275200
   7899   7897   7909     1   110.2600474 425.931200
   7900   7901   7903     1   109.5600471 388.275200
   7900   7908   7911     1   107.2600461 396.643200
   7901   7900   7904     1   109.5600471 388.275200
   7901   7902   7905     1   110.2200475 386.601600
   7901   7907   7913     1   107.2600461 396.643200
   7902   7901   7903     1   109.5600471 388.275200
   7903   7901   7907     1   110.2600474 425.931200
   7904   7900   7908     1   110.2600474 425.931200
   7905   7902   7906     1   109.5800467 425.931200
   7905   7902   7918     1   109.5800467 425.931200
   7910   7916   7917     1   107.2600461 396.643200
   7914   7910   7916     1   110.2600474 425.931200
   7914   7910   7915     1   108.4600466 328.025600
   7915   7910   7916     1   110.2600474 425.931200
   7919   7920   7922     1   109.5600471 388.275200
   7919   7933   7937     1   109.5600471 388.275200
   7919   7933   7938     1   109.5600471 388.275200
   7920   7923   7927     1   109.5600471 388.275200
   7920   7932   7935     1   107.2600461 396.643200
   7920   7919   7921     1   109.5600471 388.275200
   7921   7919   7933     1   109.5600471 388.275200
   7921   7919   7941     1   109.7800468 425.094400
   7922   7920   7923     1   109.5600471 388.275200
   7922   7920   7932     1   110.2600474 425.931200
   7923   7924   7926     1   109.5600471 388.275200
   7923   7931   7934     1   107.2600461 396.643200
   7924   7925   7928     1   110.2200475 386.601600
   7924   7930   7936     1   107.2600461 396.643200
   7924   7923   7927     1   109.5600471 388.275200
   7925   7924   7926     1   109.5600471 388.275200
   7926   7924   7930     1   110.2600474 425.931200
   7927   7923   7931     1   110.2600474 425.931200
   7928   7925   7929     1   109.5800467 425.931200
   7928   7925   7941     1   109.5800467 425.931200
   7933   7939   7940     1   107.2600461 396.643200
   7937   7933   7939     1   110.2600474 425.931200
   7937   7933   7938     1   108.4600466 328.025600
   7938   7933   7939     1   110.2600474 425.931200
   7942   7943   7945     1   109.5600471 388.275200
   7942   7956   7960     1   109.5600471 388.275200
   7942   7956   7961     1   109.5600471 388.275200
   7943   7942   7944     1   109.5600471 388.275200
   7943   7946   7950     1   109.5600471 388.275200
   7943   7955   7958     1   107.2600461 396.643200
   7944   7942   7956     1   109.5600471 388.275200
   7944   7942   7964     1   109.7800468 425.094400
   7945   7943   7946     1   109.5600471 388.275200
   7945   7943   7955     1   110.2600474 425.931200
   7946   7947   7949     1   109.5600471 388.275200
   7946   7954   7957     1   107.2600461 396.643200
   7947   7946   7950     1   109.5600471 388.275200
   7947   7948   7951     1   110.2200475 386.601600
   7947   7953   7959     1   107.2600461 396.643200
   7948   7947   7949     1   109.5600471 388.275200
   7949   7947   7953     1   110.2600474 425.931200
   7950   7946   7954     1   110.2600474 425.931200
   7951   7948   7952     1   109.5800467 425.931200
   7951   7948   7964     1   109.5800467 425.931200
   7956   7962   7963     1   107.2600461 396.643200
   7960   7956   7962     1   110.2600474 425.931200
   7960   7956   7961     1   108.4600466 328.025600
   7961   7956   7962     1   110.2600474 425.931200
   7965   7966   7968     1   109.5600471 388.275200
   7965   7979   7983     1   109.5600471 388.275200
   7965   7979   7984     1   109.5600471 388.275200
   7966   7969   7973     1   109.5600471 388.275200
   7966   7978   7981     1   107.2600461 396.643200
   7966   7965   7967     1   109.5600471 388.275200
   7967   7965   7979     1   109.5600471 388.275200
   7967   7965   7987     1   109.7800468 425.094400
   7968   7966   7969     1   109.5600471 388.275200
   7968   7966   7978     1   110.2600474 425.931200
   7969   7970   7972     1   109.5600471 388.275200
   7969   7977   7980     1   107.2600461 396.643200
   7970   7971   7974     1   110.2200475 386.601600
   7970   7976   7982     1   107.2600461 396.643200
   7970   7969   7973     1   109.5600471 388.275200
   7971   7970   7972     1   109.5600471 388.275200
   7972   7970   7976     1   110.2600474 425.931200
   7973   7969   7977     1   110.2600474 425.931200
   7974   7971   7975     1   109.5800467 425.931200
   7974   7971   7987     1   109.5800467 425.931200
   7979   7985   7986     1   107.2600461 396.643200
   7983   7979   7985     1   110.2600474 425.931200
   7983   7979   7984     1   108.4600466 328.025600
   7984   7979   7985     1   110.2600474 425.931200
   7988   7989   7991     1   109.5600471 388.275200
   7988   8002   8006     1   109.5600471 388.275200
   7988   8002   8007     1   109.5600471 388.275200
   7989   7988   7990     1   109.5600471 388.275200
   7989   7992   7996     1   109.5600471 388.275200
   7989   8001   8004     1   107.2600461 396.643200
   7990   7988   8002     1   109.5600471 388.275200
   7990   7988   8010     1   109.7800468 425.094400
   7991   7989   7992     1   109.5600471 388.275200
   7991   7989   8001     1   110.2600474 425.931200
   7992   7993   7995     1   109.5600471 388.275200
   7992   8000   8003     1   107.2600461 396.643200
   7993   7992   7996     1   109.5600471 388.275200
   7993   7994   7997     1   110.2200475 386.601600
   7993   7999   8005     1   107.2600461 396.643200
   7994   7993   7995     1   109.5600471 388.275200
   7995   7993   7999     1   110.2600474 425.931200
   7996   7992   8000     1   110.2600474 425.931200
   7997   7994   7998     1   109.5800467 425.931200
   7997   7994   8010     1   109.5800467 425.931200
   8002   8008   8009     1   107.2600461 396.643200
   8006   8002   8008     1   110.2600474 425.931200
   8006   8002   8007     1   108.4600466 328.025600
   8007   8002   8008     1   110.2600474 425.931200
   8011   8012   8014     1   109.5600471 388.275200
   8011   8025   8029     1   109.5600471 388.275200
   8011   8025   8030     1   109.5600471 388.275200
   8012   8015   8019     1   109.5600471 388.275200
   8012   8024   8027     1   107.2600461 396.643200
   8012   8011   8013     1   109.5600471 388.275200
   8013   8011   8025     1   109.5600471 388.275200
   8013   8011   8033     1   109.7800468 425.094400
   8014   8012   8015     1   109.5600471 388.275200
   8014   8012   8024     1   110.2600474 425.931200
   8015   8016   8018     1   109.5600471 388.275200
   8015   8023   8026     1   107.2600461 396.643200
   8016   8017   8020     1   110.2200475 386.601600
   8016   8022   8028     1   107.2600461 396.643200
   8016   8015   8019     1   109.5600471 388.275200
   8017   8016   8018     1   109.5600471 388.275200
   8018   8016   8022     1   110.2600474 425.931200
   8019   8015   8023     1   110.2600474 425.931200
   8020   8017   8021     1   109.5800467 425.931200
   8020   8017   8033     1   109.5800467 425.931200
   8025   8031   8032     1   107.2600461 396.643200
   8029   8025   8031     1   110.2600474 425.931200
   8029   8025   8030     1   108.4600466 328.025600
   8030   8025   8031     1   110.2600474 425.931200
   8034   8035   8037     1   109.5600471 388.275200
   8034   8048   8052     1   109.5600471 388.275200
   8034   8048   8053     1   109.5600471 388.275200
   8035   8034   8036     1   109.5600471 388.275200
   8035   8038   8042     1   109.5600471 388.275200
   8035   8047   8050     1   107.2600461 396.643200
   8036   8034   8048     1   109.5600471 388.275200
   8036   8034   8056     1   109.7800468 425.094400
   8037   8035   8038     1   109.5600471 388.275200
   8037   8035   8047     1   110.2600474 425.931200
   8038   8039   8041     1   109.5600471 388.275200
   8038   8046   8049     1   107.2600461 396.643200
   8039   8038   8042     1   109.5600471 388.275200
   8039   8040   8043     1   110.2200475 386.601600
   8039   8045   8051     1   107.2600461 396.643200
   8040   8039   8041     1   109.5600471 388.275200
   8041   8039   8045     1   110.2600474 425.931200
   8042   8038   8046     1   110.2600474 425.931200
   8043   8040   8044     1   109.5800467 425.931200
   8043   8040   8056     1   109.5800467 425.931200
   8048   8054   8055     1   107.2600461 396.643200
   8052   8048   8054     1   110.2600474 425.931200
   8052   8048   8053     1   108.4600466 328.025600
   8053   8048   8054     1   110.2600474 425.931200
   8057   8058   8060     1   109.5600471 388.275200
   8057   8071   8075     1   109.5600471 388.275200
   8057   8071   8076     1   109.5600471 388.275200
   8058   8061   8065     1   109.5600471 388.275200
   8058   8070   8073     1   107.2600461 396.643200
   8058   8057   8059     1   109.5600471 388.275200
   8059   8057   8071     1   109.5600471 388.275200
   8059   8057   8079     1   109.7800468 425.094400
   8060   8058   8061     1   109.5600471 388.275200
   8060   8058   8070     1   110.2600474 425.931200
   8061   8062   8064     1   109.5600471 388.275200
   8061   8069   8072     1   107.2600461 396.643200
   8062   8063   8066     1   110.2200475 386.601600
   8062   8068   8074     1   107.2600461 396.643200
   8062   8061   8065     1   109.5600471 388.275200
   8063   8062   8064     1   109.5600471 388.275200
   8064   8062   8068     1   110.2600474 425.931200
   8065   8061   8069     1   110.2600474 425.931200
   8066   8063   8067     1   109.5800467 425.931200
   8066   8063   8079     1   109.5800467 425.931200
   8071   8077   8078     1   107.2600461 396.643200
   8075   8071   8077     1   110.2600474 425.931200
   8075   8071   8076     1   108.4600466 328.025600
   8076   8071   8077     1   110.2600474 425.931200
   8080   8081   8083     1   109.5600471 388.275200
   8080   8094   8098     1   109.5600471 388.275200
   8080   8094   8099     1   109.5600471 388.275200
   8081   8080   8082     1   109.5600471 388.275200
   8081   8084   8088     1   109.5600471 388.275200
   8081   8093   8096     1   107.2600461 396.643200
   8082   8080   8094     1   109.5600471 388.275200
   8082   8080   8102     1   109.7800468 425.094400
   8083   8081   8084     1   109.5600471 388.275200
   8083   8081   8093     1   110.2600474 425.931200
   8084   8085   8087     1   109.5600471 388.275200
   8084   8092   8095     1   107.2600461 396.643200
   8085   8084   8088     1   109.5600471 388.275200
   8085   8086   8089     1   110.2200475 386.601600
   8085   8091   8097     1   107.2600461 396.643200
   8086   8085   8087     1   109.5600471 388.275200
   8087   8085   8091     1   110.2600474 425.931200
   8088   8084   8092     1   110.2600474 425.931200
   8089   8086   8090     1   109.5800467 425.931200
   8089   8086   8102     1   109.5800467 425.931200
   8094   8100   8101     1   107.2600461 396.643200
   8098   8094   8100     1   110.2600474 425.931200
   8098   8094   8099     1   108.4600466 328.025600
   8099   8094   8100     1   110.2600474 425.931200
   8103   8104   8106     1   109.5600471 388.275200
   8103   8117   8121     1   109.5600471 388.275200
   8103   8117   8122     1   109.5600471 388.275200
   8104   8107   8111     1   109.5600471 388.275200
   8104   8116   8119     1   107.2600461 396.643200
   8104   8103   8105     1   109.5600471 388.275200
   8105   8103   8117     1   109.5600471 388.275200
   8105   8103   8125     1   109.7800468 425.094400
   8106   8104   8107     1   109.5600471 388.275200
   8106   8104   8116     1   110.2600474 425.931200
   8107   8108   8110     1   109.5600471 388.275200
   8107   8115   8118     1   107.2600461 396.643200
   8108   8109   8112     1   110.2200475 386.601600
   8108   8114   8120     1   107.2600461 396.643200
   8108   8107   8111     1   109.5600471 388.275200
   8109   8108   8110     1   109.5600471 388.275200
   8110   8108   8114     1   110.2600474 425.931200
   8111   8107   8115     1   110.2600474 425.931200
   8112   8109   8113     1   109.5800467 425.931200
   8112   8109   8125     1   109.5800467 425.931200
   8117   8123   8124     1   107.2600461 396.643200
   8121   8117   8123     1   110.2600474 425.931200
   8121   8117   8122     1   108.4600466 328.025600
   8122   8117   8123     1   110.2600474 425.931200
   8126   8127   8129     1   109.5600471 388.275200
   8126   8140   8144     1   109.5600471 388.275200
   8126   8140   8145     1   109.5600471 388.275200
   8127   8126   8128     1   109.5600471 388.275200
   8127   8130   8134     1   109.5600471 388.275200
   8127   8139   8142     1   107.2600461 396.643200
   8128   8126   8140     1   109.5600471 388.275200
   8128   8126   8148     1   109.7800468 425.094400
   8129   8127   8130     1   109.5600471 388.275200
   8129   8127   8139     1   110.2600474 425.931200
   8130   8131   8133     1   109.5600471 388.275200
   8130   8138   8141     1   107.2600461 396.643200
   8131   8130   8134     1   109.5600471 388.275200
   8131   8132   8135     1   110.2200475 386.601600
   8131   8137   8143     1   107.2600461 396.643200
   8132   8131   8133     1   109.5600471 388.275200
   8133   8131   8137     1   110.2600474 425.931200
   8134   8130   8138     1   110.2600474 425.931200
   8135   8132   8136     1   109.5800467 425.931200
   8135   8132   8148     1   109.5800467 425.931200
   8140   8146   8147     1   107.2600461 396.643200
   8144   8140   8146     1   110.2600474 425.931200
   8144   8140   8145     1   108.4600466 328.025600
   8145   8140   8146     1   110.2600474 425.931200
   8149   8150   8152     1   109.5600471 388.275200
   8149   8163   8167     1   109.5600471 388.275200
   8149   8163   8168     1   109.5600471 388.275200
   8150   8153   8157     1   109.5600471 388.275200
   8150   8162   8165     1   107.2600461 396.643200
   8150   8149   8151     1   109.5600471 388.275200
   8151   8149   8163     1   109.5600471 388.275200
   8151   8149   8171     1   109.7800468 425.094400
   8152   8150   8153     1   109.5600471 388.275200
   8152   8150   8162     1   110.2600474 425.931200
   8153   8154   8156     1   109.5600471 388.275200
   8153   8161   8164     1   107.2600461 396.643200
   8154   8155   8158     1   110.2200475 386.601600
   8154   8160   8166     1   107.2600461 396.643200
   8154   8153   8157     1   109.5600471 388.275200
   8155   8154   8156     1   109.5600471 388.275200
   8156   8154   8160     1   110.2600474 425.931200
   8157   8153   8161     1   110.2600474 425.931200
   8158   8155   8159     1   109.5800467 425.931200
   8158   8155   8171     1   109.5800467 425.931200
   8163   8169   8170     1   107.2600461 396.643200
   8167   8163   8169     1   110.2600474 425.931200
   8167   8163   8168     1   108.4600466 328.025600
   8168   8163   8169     1   110.2600474 425.931200
   8172   8173   8175     1   109.5600471 388.275200
   8172   8186   8190     1   109.5600471 388.275200
   8172   8186   8191     1   109.5600471 388.275200
   8173   8172   8174     1   109.5600471 388.275200
   8173   8176   8180     1   109.5600471 388.275200
   8173   8185   8188     1   107.2600461 396.643200
   8174   8172   8186     1   109.5600471 388.275200
   8174   8172   8194     1   109.7800468 425.094400
   8175   8173   8176     1   109.5600471 388.275200
   8175   8173   8185     1   110.2600474 425.931200
   8176   8177   8179     1   109.5600471 388.275200
   8176   8184   8187     1   107.2600461 396.643200
   8177   8176   8180     1   109.5600471 388.275200
   8177   8178   8181     1   110.2200475 386.601600
   8177   8183   8189     1   107.2600461 396.643200
   8178   8177   8179     1   109.5600471 388.275200
   8179   8177   8183     1   110.2600474 425.931200
   8180   8176   8184     1   110.2600474 425.931200
   8181   8178   8182     1   109.5800467 425.931200
   8181   8178   8194     1   109.5800467 425.931200
   8186   8192   8193     1   107.2600461 396.643200
   8190   8186   8192     1   110.2600474 425.931200
   8190   8186   8191     1   108.4600466 328.025600
   8191   8186   8192     1   110.2600474 425.931200
   8195   8196   8198     1   109.5600471 388.275200
   8195   8209   8213     1   109.5600471 388.275200
   8195   8209   8214     1   109.5600471 388.275200
   8196   8199   8203     1   109.5600471 388.275200
   8196   8208   8211     1   107.2600461 396.643200
   8196   8195   8197     1   109.5600471 388.275200
   8197   8195   8209     1   109.5600471 388.275200
   8197   8195   8217     1   109.7800468 425.094400
   8198   8196   8199     1   109.5600471 388.275200
   8198   8196   8208     1   110.2600474 425.931200
   8199   8200   8202     1   109.5600471 388.275200
   8199   8207   8210     1   107.2600461 396.643200
   8200   8201   8204     1   110.2200475 386.601600
   8200   8206   8212     1   107.2600461 396.643200
   8200   8199   8203     1   109.5600471 388.275200
   8201   8200   8202     1   109.5600471 388.275200
   8202   8200   8206     1   110.2600474 425.931200
   8203   8199   8207     1   110.2600474 425.931200
   8204   8201   8205     1   109.5800467 425.931200
   8204   8201   8217     1   109.5800467 425.931200
   8209   8215   8216     1   107.2600461 396.643200
   8213   8209   8215     1   110.2600474 425.931200
   8213   8209   8214     1   108.4600466 328.025600
   8214   8209   8215     1   110.2600474 425.931200
   8218   8219   8221     1   109.5600471 388.275200
   8218   8232   8236     1   109.5600471 388.275200
   8218   8232   8237     1   109.5600471 388.275200
   8219   8218   8220     1   109.5600471 388.275200
   8219   8222   8226     1   109.5600471 388.275200
   8219   8231   8234     1   107.2600461 396.643200
   8220   8218   8232     1   109.5600471 388.275200
   8220   8218   8240     1   109.7800468 425.094400
   8221   8219   8222     1   109.5600471 388.275200
   8221   8219   8231     1   110.2600474 425.931200
   8222   8223   8225     1   109.5600471 388.275200
   8222   8230   8233     1   107.2600461 396.643200
   8223   8222   8226     1   109.5600471 388.275200
   8223   8224   8227     1   110.2200475 386.601600
   8223   8229   8235     1   107.2600461 396.643200
   8224   8223   8225     1   109.5600471 388.275200
   8225   8223   8229     1   110.2600474 425.931200
   8226   8222   8230     1   110.2600474 425.931200
   8227   8224   8228     1   109.5800467 425.931200
   8227   8224   8240     1   109.5800467 425.931200
   8232   8238   8239     1   107.2600461 396.643200
   8236   8232   8238     1   110.2600474 425.931200
   8236   8232   8237     1   108.4600466 328.025600
   8237   8232   8238     1   110.2600474 425.931200
   8241   8242   8244     1   109.5600471 388.275200
   8241   8255   8259     1   109.5600471 388.275200
   8241   8255   8260     1   109.5600471 388.275200
   8242   8245   8249     1   109.5600471 388.275200
   8242   8254   8257     1   107.2600461 396.643200
   8242   8241   8243     1   109.5600471 388.275200
   8243   8241   8255     1   109.5600471 388.275200
   8243   8241   8263     1   109.7800468 425.094400
   8244   8242   8245     1   109.5600471 388.275200
   8244   8242   8254     1   110.2600474 425.931200
   8245   8246   8248     1   109.5600471 388.275200
   8245   8253   8256     1   107.2600461 396.643200
   8246   8247   8250     1   110.2200475 386.601600
   8246   8252   8258     1   107.2600461 396.643200
   8246   8245   8249     1   109.5600471 388.275200
   8247   8246   8248     1   109.5600471 388.275200
   8248   8246   8252     1   110.2600474 425.931200
   8249   8245   8253     1   110.2600474 425.931200
   8250   8247   8251     1   109.5800467 425.931200
   8250   8247   8263     1   109.5800467 425.931200
   8255   8261   8262     1   107.2600461 396.643200
   8259   8255   8261     1   110.2600474 425.931200
   8259   8255   8260     1   108.4600466 328.025600
   8260   8255   8261     1   110.2600474 425.931200
   8264   8265   8267     1   109.5600471 388.275200
   8264   8278   8282     1   109.5600471 388.275200
   8264   8278   8283     1   109.5600471 388.275200
   8265   8264   8266     1   109.5600471 388.275200
   8265   8268   8272     1   109.5600471 388.275200
   8265   8277   8280     1   107.2600461 396.643200
   8266   8264   8278     1   109.5600471 388.275200
   8266   8264   8286     1   109.7800468 425.094400
   8267   8265   8268     1   109.5600471 388.275200
   8267   8265   8277     1   110.2600474 425.931200
   8268   8269   8271     1   109.5600471 388.275200
   8268   8276   8279     1   107.2600461 396.643200
   8269   8268   8272     1   109.5600471 388.275200
   8269   8270   8273     1   110.2200475 386.601600
   8269   8275   8281     1   107.2600461 396.643200
   8270   8269   8271     1   109.5600471 388.275200
   8271   8269   8275     1   110.2600474 425.931200
   8272   8268   8276     1   110.2600474 425.931200
   8273   8270   8274     1   109.5800467 425.931200
   8273   8270   8286     1   109.5800467 425.931200
   8278   8284   8285     1   107.2600461 396.643200
   8282   8278   8284     1   110.2600474 425.931200
   8282   8278   8283     1   108.4600466 328.025600
   8283   8278   8284     1   110.2600474 425.931200
   8287   8288   8290     1   109.5600471 388.275200
   8287   8301   8305     1   109.5600471 388.275200
   8287   8301   8306     1   109.5600471 388.275200
   8288   8291   8295     1   109.5600471 388.275200
   8288   8300   8303     1   107.2600461 396.643200
   8288   8287   8289     1   109.5600471 388.275200
   8289   8287   8301     1   109.5600471 388.275200
   8289   8287   8309     1   109.7800468 425.094400
   8290   8288   8291     1   109.5600471 388.275200
   8290   8288   8300     1   110.2600474 425.931200
   8291   8292   8294     1   109.5600471 388.275200
   8291   8299   8302     1   107.2600461 396.643200
   8292   8293   8296     1   110.2200475 386.601600
   8292   8298   8304     1   107.2600461 396.643200
   8292   8291   8295     1   109.5600471 388.275200
   8293   8292   8294     1   109.5600471 388.275200
   8294   8292   8298     1   110.2600474 425.931200
   8295   8291   8299     1   110.2600474 425.931200
   8296   8293   8297     1   109.5800467 425.931200
   8296   8293   8309     1   109.5800467 425.931200
   8301   8307   8308     1   107.2600461 396.643200
   8305   8301   8307     1   110.2600474 425.931200
   8305   8301   8306     1   108.4600466 328.025600
   8306   8301   8307     1   110.2600474 425.931200
   8310   8311   8313     1   109.5600471 388.275200
   8310   8324   8328     1   109.5600471 388.275200
   8310   8324   8329     1   109.5600471 388.275200
   8311   8310   8312     1   109.5600471 388.275200
   8311   8314   8318     1   109.5600471 388.275200
   8311   8323   8326     1   107.2600461 396.643200
   8312   8310   8324     1   109.5600471 388.275200
   8312   8310   8332     1   109.7800468 425.094400
   8313   8311   8314     1   109.5600471 388.275200
   8313   8311   8323     1   110.2600474 425.931200
   8314   8315   8317     1   109.5600471 388.275200
   8314   8322   8325     1   107.2600461 396.643200
   8315   8314   8318     1   109.5600471 388.275200
   8315   8316   8319     1   110.2200475 386.601600
   8315   8321   8327     1   107.2600461 396.643200
   8316   8315   8317     1   109.5600471 388.275200
   8317   8315   8321     1   110.2600474 425.931200
   8318   8314   8322     1   110.2600474 425.931200
   8319   8316   8320     1   109.5800467 425.931200
   8319   8316   8332     1   109.5800467 425.931200
   8324   8330   8331     1   107.2600461 396.643200
   8328   8324   8330     1   110.2600474 425.931200
   8328   8324   8329     1   108.4600466 328.025600
   8329   8324   8330     1   110.2600474 425.931200
   8333   8334   8336     1   109.5600471 388.275200
   8333   8347   8351     1   109.5600471 388.275200
   8333   8347   8352     1   109.5600471 388.275200
   8334   8337   8341     1   109.5600471 388.275200
   8334   8346   8349     1   107.2600461 396.643200
   8334   8333   8335     1   109.5600471 388.275200
   8335   8333   8347     1   109.5600471 388.275200
   8335   8333   8355     1   109.7800468 425.094400
   8336   8334   8337     1   109.5600471 388.275200
   8336   8334   8346     1   110.2600474 425.931200
   8337   8338   8340     1   109.5600471 388.275200
   8337   8345   8348     1   107.2600461 396.643200
   8338   8339   8342     1   110.2200475 386.601600
   8338   8344   8350     1   107.2600461 396.643200
   8338   8337   8341     1   109.5600471 388.275200
   8339   8338   8340     1   109.5600471 388.275200
   8340   8338   8344     1   110.2600474 425.931200
   8341   8337   8345     1   110.2600474 425.931200
   8342   8339   8343     1   109.5800467 425.931200
   8342   8339   8355     1   109.5800467 425.931200
   8347   8353   8354     1   107.2600461 396.643200
   8351   8347   8353     1   110.2600474 425.931200
   8351   8347   8352     1   108.4600466 328.025600
   8352   8347   8353     1   110.2600474 425.931200
   8356   8357   8359     1   109.5600471 388.275200
   8356   8370   8374     1   109.5600471 388.275200
   8356   8370   8375     1   109.5600471 388.275200
   8357   8356   8358     1   109.5600471 388.275200
   8357   8360   8364     1   109.5600471 388.275200
   8357   8369   8372     1   107.2600461 396.643200
   8358   8356   8370     1   109.5600471 388.275200
   8358   8356   8378     1   109.7800468 425.094400
   8359   8357   8360     1   109.5600471 388.275200
   8359   8357   8369     1   110.2600474 425.931200
   8360   8361   8363     1   109.5600471 388.275200
   8360   8368   8371     1   107.2600461 396.643200
   8361   8360   8364     1   109.5600471 388.275200
   8361   8362   8365     1   110.2200475 386.601600
   8361   8367   8373     1   107.2600461 396.643200
   8362   8361   8363     1   109.5600471 388.275200
   8363   8361   8367     1   110.2600474 425.931200
   8364   8360   8368     1   110.2600474 425.931200
   8365   8362   8366     1   109.5800467 425.931200
   8365   8362   8378     1   109.5800467 425.931200
   8370   8376   8377     1   107.2600461 396.643200
   8374   8370   8376     1   110.2600474 425.931200
   8374   8370   8375     1   108.4600466 328.025600
   8375   8370   8376     1   110.2600474 425.931200
   8379   8380   8382     1   109.5600471 388.275200
   8379   8393   8397     1   109.5600471 388.275200
   8379   8393   8398     1   109.5600471 388.275200
   8380   8383   8387     1   109.5600471 388.275200
   8380   8392   8395     1   107.2600461 396.643200
   8380   8379   8381     1   109.5600471 388.275200
   8381   8379   8393     1   109.5600471 388.275200
   8381   8379   8401     1   109.7800468 425.094400
   8382   8380   8383     1   109.5600471 388.275200
   8382   8380   8392     1   110.2600474 425.931200
   8383   8384   8386     1   109.5600471 388.275200
   8383   8391   8394     1   107.2600461 396.643200
   8384   8385   8388     1   110.2200475 386.601600
   8384   8390   8396     1   107.2600461 396.643200
   8384   8383   8387     1   109.5600471 388.275200
   8385   8384   8386     1   109.5600471 388.275200
   8386   8384   8390     1   110.2600474 425.931200
   8387   8383   8391     1   110.2600474 425.931200
   8388   8385   8389     1   109.5800467 425.931200
   8388   8385   8401     1   109.5800467 425.931200
   8393   8399   8400     1   107.2600461 396.643200
   8397   8393   8399     1   110.2600474 425.931200
   8397   8393   8398     1   108.4600466 328.025600
   8398   8393   8399     1   110.2600474 425.931200
   8402   8403   8405     1   109.5600471 388.275200
   8402   8416   8420     1   109.5600471 388.275200
   8402   8416   8421     1   109.5600471 388.275200
   8403   8402   8404     1   109.5600471 388.275200
   8403   8406   8410     1   109.5600471 388.275200
   8403   8415   8418     1   107.2600461 396.643200
   8404   8402   8416     1   109.5600471 388.275200
   8404   8402   8424     1   109.7800468 425.094400
   8405   8403   8406     1   109.5600471 388.275200
   8405   8403   8415     1   110.2600474 425.931200
   8406   8407   8409     1   109.5600471 388.275200
   8406   8414   8417     1   107.2600461 396.643200
   8407   8406   8410     1   109.5600471 388.275200
   8407   8408   8411     1   110.2200475 386.601600
   8407   8413   8419     1   107.2600461 396.643200
   8408   8407   8409     1   109.5600471 388.275200
   8409   8407   8413     1   110.2600474 425.931200
   8410   8406   8414     1   110.2600474 425.931200
   8411   8408   8412     1   109.5800467 425.931200
   8411   8408   8424     1   109.5800467 425.931200
   8416   8422   8423     1   107.2600461 396.643200
   8420   8416   8422     1   110.2600474 425.931200
   8420   8416   8421     1   108.4600466 328.025600
   8421   8416   8422     1   110.2600474 425.931200
   8425   8426   8428     1   109.5600471 388.275200
   8425   8439   8443     1   109.5600471 388.275200
   8425   8439   8444     1   109.5600471 388.275200
   8426   8429   8433     1   109.5600471 388.275200
   8426   8438   8441     1   107.2600461 396.643200
   8426   8425   8427     1   109.5600471 388.275200
   8427   8425   8439     1   109.5600471 388.275200
   8427   8425   8447     1   109.7800468 425.094400
   8428   8426   8429     1   109.5600471 388.275200
   8428   8426   8438     1   110.2600474 425.931200
   8429   8430   8432     1   109.5600471 388.275200
   8429   8437   8440     1   107.2600461 396.643200
   8430   8431   8434     1   110.2200475 386.601600
   8430   8436   8442     1   107.2600461 396.643200
   8430   8429   8433     1   109.5600471 388.275200
   8431   8430   8432     1   109.5600471 388.275200
   8432   8430   8436     1   110.2600474 425.931200
   8433   8429   8437     1   110.2600474 425.931200
   8434   8431   8435     1   109.5800467 425.931200
   8434   8431   8447     1   109.5800467 425.931200
   8439   8445   8446     1   107.2600461 396.643200
   8443   8439   8445     1   110.2600474 425.931200
   8443   8439   8444     1   108.4600466 328.025600
   8444   8439   8445     1   110.2600474 425.931200
   8448   8449   8451     1   109.5600471 388.275200
   8448   8462   8466     1   109.5600471 388.275200
   8448   8462   8467     1   109.5600471 388.275200
   8449   8448   8450     1   109.5600471 388.275200
   8449   8452   8456     1   109.5600471 388.275200
   8449   8461   8464     1   107.2600461 396.643200
   8450   8448   8462     1   109.5600471 388.275200
   8450   8448   8470     1   109.7800468 425.094400
   8451   8449   8452     1   109.5600471 388.275200
   8451   8449   8461     1   110.2600474 425.931200
   8452   8453   8455     1   109.5600471 388.275200
   8452   8460   8463     1   107.2600461 396.643200
   8453   8452   8456     1   109.5600471 388.275200
   8453   8454   8457     1   110.2200475 386.601600
   8453   8459   8465     1   107.2600461 396.643200
   8454   8453   8455     1   109.5600471 388.275200
   8455   8453   8459     1   110.2600474 425.931200
   8456   8452   8460     1   110.2600474 425.931200
   8457   8454   8458     1   109.5800467 425.931200
   8457   8454   8470     1   109.5800467 425.931200
   8462   8468   8469     1   107.2600461 396.643200
   8466   8462   8468     1   110.2600474 425.931200
   8466   8462   8467     1   108.4600466 328.025600
   8467   8462   8468     1   110.2600474 425.931200
   8471   8472   8474     1   109.5600471 388.275200
   8471   8485   8489     1   109.5600471 388.275200
   8471   8485   8490     1   109.5600471 388.275200
   8472   8475   8479     1   109.5600471 388.275200
   8472   8484   8487     1   107.2600461 396.643200
   8472   8471   8473     1   109.5600471 388.275200
   8473   8471   8485     1   109.5600471 388.275200
   8473   8471   8493     1   109.7800468 425.094400
   8474   8472   8475     1   109.5600471 388.275200
   8474   8472   8484     1   110.2600474 425.931200
   8475   8476   8478     1   109.5600471 388.275200
   8475   8483   8486     1   107.2600461 396.643200
   8476   8477   8480     1   110.2200475 386.601600
   8476   8482   8488     1   107.2600461 396.643200
   8476   8475   8479     1   109.5600471 388.275200
   8477   8476   8478     1   109.5600471 388.275200
   8478   8476   8482     1   110.2600474 425.931200
   8479   8475   8483     1   110.2600474 425.931200
   8480   8477   8481     1   109.5800467 425.931200
   8480   8477   8493     1   109.5800467 425.931200
   8485   8491   8492     1   107.2600461 396.643200
   8489   8485   8491     1   110.2600474 425.931200
   8489   8485   8490     1   108.4600466 328.025600
   8490   8485   8491     1   110.2600474 425.931200
   8494   8495   8497     1   109.5600471 388.275200
   8494   8508   8512     1   109.5600471 388.275200
   8494   8508   8513     1   109.5600471 388.275200
   8495   8494   8496     1   109.5600471 388.275200
   8495   8498   8502     1   109.5600471 388.275200
   8495   8507   8510     1   107.2600461 396.643200
   8496   8494   8508     1   109.5600471 388.275200
   8496   8494   8516     1   109.7800468 425.094400
   8497   8495   8498     1   109.5600471 388.275200
   8497   8495   8507     1   110.2600474 425.931200
   8498   8499   8501     1   109.5600471 388.275200
   8498   8506   8509     1   107.2600461 396.643200
   8499   8498   8502     1   109.5600471 388.275200
   8499   8500   8503     1   110.2200475 386.601600
   8499   8505   8511     1   107.2600461 396.643200
   8500   8499   8501     1   109.5600471 388.275200
   8501   8499   8505     1   110.2600474 425.931200
   8502   8498   8506     1   110.2600474 425.931200
   8503   8500   8504     1   109.5800467 425.931200
   8503   8500   8516     1   109.5800467 425.931200
   8508   8514   8515     1   107.2600461 396.643200
   8512   8508   8514     1   110.2600474 425.931200
   8512   8508   8513     1   108.4600466 328.025600
   8513   8508   8514     1   110.2600474 425.931200
   8517   8518   8520     1   109.5600471 388.275200
   8517   8531   8535     1   109.5600471 388.275200
   8517   8531   8536     1   109.5600471 388.275200
   8518   8521   8525     1   109.5600471 388.275200
   8518   8530   8533     1   107.2600461 396.643200
   8518   8517   8519     1   109.5600471 388.275200
   8519   8517   8531     1   109.5600471 388.275200
   8519   8517   8539     1   109.7800468 425.094400
   8520   8518   8521     1   109.5600471 388.275200
   8520   8518   8530     1   110.2600474 425.931200
   8521   8522   8524     1   109.5600471 388.275200
   8521   8529   8532     1   107.2600461 396.643200
   8522   8523   8526     1   110.2200475 386.601600
   8522   8528   8534     1   107.2600461 396.643200
   8522   8521   8525     1   109.5600471 388.275200
   8523   8522   8524     1   109.5600471 388.275200
   8524   8522   8528     1   110.2600474 425.931200
   8525   8521   8529     1   110.2600474 425.931200
   8526   8523   8527     1   109.5800467 425.931200
   8526   8523   8539     1   109.5800467 425.931200
   8531   8537   8538     1   107.2600461 396.643200
   8535   8531   8537     1   110.2600474 425.931200
   8535   8531   8536     1   108.4600466 328.025600
   8536   8531   8537     1   110.2600474 425.931200
   8540   8541   8543     1   109.5600471 388.275200
   8540   8554   8558     1   109.5600471 388.275200
   8540   8554   8559     1   109.5600471 388.275200
   8541   8540   8542     1   109.5600471 388.275200
   8541   8544   8548     1   109.5600471 388.275200
   8541   8553   8556     1   107.2600461 396.643200
   8542   8540   8554     1   109.5600471 388.275200
   8542   8540   8562     1   109.7800468 425.094400
   8543   8541   8544     1   109.5600471 388.275200
   8543   8541   8553     1   110.2600474 425.931200
   8544   8545   8547     1   109.5600471 388.275200
   8544   8552   8555     1   107.2600461 396.643200
   8545   8544   8548     1   109.5600471 388.275200
   8545   8546   8549     1   110.2200475 386.601600
   8545   8551   8557     1   107.2600461 396.643200
   8546   8545   8547     1   109.5600471 388.275200
   8547   8545   8551     1   110.2600474 425.931200
   8548   8544   8552     1   110.2600474 425.931200
   8549   8546   8550     1   109.5800467 425.931200
   8549   8546   8562     1   109.5800467 425.931200
   8554   8560   8561     1   107.2600461 396.643200
   8558   8554   8560     1   110.2600474 425.931200
   8558   8554   8559     1   108.4600466 328.025600
   8559   8554   8560     1   110.2600474 425.931200
   8563   8564   8566     1   109.5600471 388.275200
   8563   8577   8581     1   109.5600471 388.275200
   8563   8577   8582     1   109.5600471 388.275200
   8564   8567   8571     1   109.5600471 388.275200
   8564   8576   8579     1   107.2600461 396.643200
   8564   8563   8565     1   109.5600471 388.275200
   8565   8563   8577     1   109.5600471 388.275200
   8565   8563   8585     1   109.7800468 425.094400
   8566   8564   8567     1   109.5600471 388.275200
   8566   8564   8576     1   110.2600474 425.931200
   8567   8568   8570     1   109.5600471 388.275200
   8567   8575   8578     1   107.2600461 396.643200
   8568   8569   8572     1   110.2200475 386.601600
   8568   8574   8580     1   107.2600461 396.643200
   8568   8567   8571     1   109.5600471 388.275200
   8569   8568   8570     1   109.5600471 388.275200
   8570   8568   8574     1   110.2600474 425.931200
   8571   8567   8575     1   110.2600474 425.931200
   8572   8569   8573     1   109.5800467 425.931200
   8572   8569   8585     1   109.5800467 425.931200
   8577   8583   8584     1   107.2600461 396.643200
   8581   8577   8583     1   110.2600474 425.931200
   8581   8577   8582     1   108.4600466 328.025600
   8582   8577   8583     1   110.2600474 425.931200
   8586   8587   8589     1   109.5600471 388.275200
   8586   8600   8604     1   109.5600471 388.275200
   8586   8600   8605     1   109.5600471 388.275200
   8587   8586   8588     1   109.5600471 388.275200
   8587   8590   8594     1   109.5600471 388.275200
   8587   8599   8602     1   107.2600461 396.643200
   8588   8586   8600     1   109.5600471 388.275200
   8588   8586   8608     1   109.7800468 425.094400
   8589   8587   8590     1   109.5600471 388.275200
   8589   8587   8599     1   110.2600474 425.931200
   8590   8591   8593     1   109.5600471 388.275200
   8590   8598   8601     1   107.2600461 396.643200
   8591   8590   8594     1   109.5600471 388.275200
   8591   8592   8595     1   110.2200475 386.601600
   8591   8597   8603     1   107.2600461 396.643200
   8592   8591   8593     1   109.5600471 388.275200
   8593   8591   8597     1   110.2600474 425.931200
   8594   8590   8598     1   110.2600474 425.931200
   8595   8592   8596     1   109.5800467 425.931200
   8595   8592   8608     1   109.5800467 425.931200
   8600   8606   8607     1   107.2600461 396.643200
   8604   8600   8606     1   110.2600474 425.931200
   8604   8600   8605     1   108.4600466 328.025600
   8605   8600   8606     1   110.2600474 425.931200
   8609   8610   8612     1   109.5600471 388.275200
   8609   8623   8627     1   109.5600471 388.275200
   8609   8623   8628     1   109.5600471 388.275200
   8610   8613   8617     1   109.5600471 388.275200
   8610   8622   8625     1   107.2600461 396.643200
   8610   8609   8611     1   109.5600471 388.275200
   8611   8609   8623     1   109.5600471 388.275200
   8611   8609   8631     1   109.7800468 425.094400
   8612   8610   8613     1   109.5600471 388.275200
   8612   8610   8622     1   110.2600474 425.931200
   8613   8614   8616     1   109.5600471 388.275200
   8613   8621   8624     1   107.2600461 396.643200
   8614   8615   8618     1   110.2200475 386.601600
   8614   8620   8626     1   107.2600461 396.643200
   8614   8613   8617     1   109.5600471 388.275200
   8615   8614   8616     1   109.5600471 388.275200
   8616   8614   8620     1   110.2600474 425.931200
   8617   8613   8621     1   110.2600474 425.931200
   8618   8615   8619     1   109.5800467 425.931200
   8618   8615   8631     1   109.5800467 425.931200
   8623   8629   8630     1   107.2600461 396.643200
   8627   8623   8629     1   110.2600474 425.931200
   8627   8623   8628     1   108.4600466 328.025600
   8628   8623   8629     1   110.2600474 425.931200
   8632   8633   8635     1   109.5600471 388.275200
   8632   8646   8650     1   109.5600471 388.275200
   8632   8646   8651     1   109.5600471 388.275200
   8633   8632   8634     1   109.5600471 388.275200
   8633   8636   8640     1   109.5600471 388.275200
   8633   8645   8648     1   107.2600461 396.643200
   8634   8632   8646     1   109.5600471 388.275200
   8634   8632   8654     1   109.7800468 425.094400
   8635   8633   8636     1   109.5600471 388.275200
   8635   8633   8645     1   110.2600474 425.931200
   8636   8637   8639     1   109.5600471 388.275200
   8636   8644   8647     1   107.2600461 396.643200
   8637   8636   8640     1   109.5600471 388.275200
   8637   8638   8641     1   110.2200475 386.601600
   8637   8643   8649     1   107.2600461 396.643200
   8638   8637   8639     1   109.5600471 388.275200
   8639   8637   8643     1   110.2600474 425.931200
   8640   8636   8644     1   110.2600474 425.931200
   8641   8638   8642     1   109.5800467 425.931200
   8641   8638   8654     1   109.5800467 425.931200
   8646   8652   8653     1   107.2600461 396.643200
   8650   8646   8652     1   110.2600474 425.931200
   8650   8646   8651     1   108.4600466 328.025600
   8651   8646   8652     1   110.2600474 425.931200
   8655   8656   8658     1   109.5600471 388.275200
   8655   8669   8673     1   109.5600471 388.275200
   8655   8669   8674     1   109.5600471 388.275200
   8656   8659   8663     1   109.5600471 388.275200
   8656   8668   8671     1   107.2600461 396.643200
   8656   8655   8657     1   109.5600471 388.275200
   8657   8655   8669     1   109.5600471 388.275200
   8657   8655   8677     1   109.7800468 425.094400
   8658   8656   8659     1   109.5600471 388.275200
   8658   8656   8668     1   110.2600474 425.931200
   8659   8660   8662     1   109.5600471 388.275200
   8659   8667   8670     1   107.2600461 396.643200
   8660   8661   8664     1   110.2200475 386.601600
   8660   8666   8672     1   107.2600461 396.643200
   8660   8659   8663     1   109.5600471 388.275200
   8661   8660   8662     1   109.5600471 388.275200
   8662   8660   8666     1   110.2600474 425.931200
   8663   8659   8667     1   110.2600474 425.931200
   8664   8661   8665     1   109.5800467 425.931200
   8664   8661   8677     1   109.5800467 425.931200
   8669   8675   8676     1   107.2600461 396.643200
   8673   8669   8675     1   110.2600474 425.931200
   8673   8669   8674     1   108.4600466 328.025600
   8674   8669   8675     1   110.2600474 425.931200
   8678   8679   8681     1   109.5600471 388.275200
   8678   8692   8696     1   109.5600471 388.275200
   8678   8692   8697     1   109.5600471 388.275200
   8679   8678   8680     1   109.5600471 388.275200
   8679   8682   8686     1   109.5600471 388.275200
   8679   8691   8694     1   107.2600461 396.643200
   8680   8678   8692     1   109.5600471 388.275200
   8680   8678   8700     1   109.7800468 425.094400
   8681   8679   8682     1   109.5600471 388.275200
   8681   8679   8691     1   110.2600474 425.931200
   8682   8683   8685     1   109.5600471 388.275200
   8682   8690   8693     1   107.2600461 396.643200
   8683   8682   8686     1   109.5600471 388.275200
   8683   8684   8687     1   110.2200475 386.601600
   8683   8689   8695     1   107.2600461 396.643200
   8684   8683   8685     1   109.5600471 388.275200
   8685   8683   8689     1   110.2600474 425.931200
   8686   8682   8690     1   110.2600474 425.931200
   8687   8684   8688     1   109.5800467 425.931200
   8687   8684   8700     1   109.5800467 425.931200
   8692   8698   8699     1   107.2600461 396.643200
   8696   8692   8698     1   110.2600474 425.931200
   8696   8692   8697     1   108.4600466 328.025600
   8697   8692   8698     1   110.2600474 425.931200
   8701   8702   8704     1   109.5600471 388.275200
   8701   8715   8719     1   109.5600471 388.275200
   8701   8715   8720     1   109.5600471 388.275200
   8702   8705   8709     1   109.5600471 388.275200
   8702   8714   8717     1   107.2600461 396.643200
   8702   8701   8703     1   109.5600471 388.275200
   8703   8701   8715     1   109.5600471 388.275200
   8703   8701   8723     1   109.7800468 425.094400
   8704   8702   8705     1   109.5600471 388.275200
   8704   8702   8714     1   110.2600474 425.931200
   8705   8706   8708     1   109.5600471 388.275200
   8705   8713   8716     1   107.2600461 396.643200
   8706   8707   8710     1   110.2200475 386.601600
   8706   8712   8718     1   107.2600461 396.643200
   8706   8705   8709     1   109.5600471 388.275200
   8707   8706   8708     1   109.5600471 388.275200
   8708   8706   8712     1   110.2600474 425.931200
   8709   8705   8713     1   110.2600474 425.931200
   8710   8707   8711     1   109.5800467 425.931200
   8710   8707   8723     1   109.5800467 425.931200
   8715   8721   8722     1   107.2600461 396.643200
   8719   8715   8721     1   110.2600474 425.931200
   8719   8715   8720     1   108.4600466 328.025600
   8720   8715   8721     1   110.2600474 425.931200
   8724   8725   8727     1   109.5600471 388.275200
   8724   8738   8742     1   109.5600471 388.275200
   8724   8738   8743     1   109.5600471 388.275200
   8725   8724   8726     1   109.5600471 388.275200
   8725   8728   8732     1   109.5600471 388.275200
   8725   8737   8740     1   107.2600461 396.643200
   8726   8724   8738     1   109.5600471 388.275200
   8726   8724   8746     1   109.7800468 425.094400
   8727   8725   8728     1   109.5600471 388.275200
   8727   8725   8737     1   110.2600474 425.931200
   8728   8729   8731     1   109.5600471 388.275200
   8728   8736   8739     1   107.2600461 396.643200
   8729   8728   8732     1   109.5600471 388.275200
   8729   8730   8733     1   110.2200475 386.601600
   8729   8735   8741     1   107.2600461 396.643200
   8730   8729   8731     1   109.5600471 388.275200
   8731   8729   8735     1   110.2600474 425.931200
   8732   8728   8736     1   110.2600474 425.931200
   8733   8730   8734     1   109.5800467 425.931200
   8733   8730   8746     1   109.5800467 425.931200
   8738   8744   8745     1   107.2600461 396.643200
   8742   8738   8744     1   110.2600474 425.931200
   8742   8738   8743     1   108.4600466 328.025600
   8743   8738   8744     1   110.2600474 425.931200
   8747   8748   8750     1   109.5600471 388.275200
   8747   8761   8765     1   109.5600471 388.275200
   8747   8761   8766     1   109.5600471 388.275200
   8748   8751   8755     1   109.5600471 388.275200
   8748   8760   8763     1   107.2600461 396.643200
   8748   8747   8749     1   109.5600471 388.275200
   8749   8747   8761     1   109.5600471 388.275200
   8749   8747   8769     1   109.7800468 425.094400
   8750   8748   8751     1   109.5600471 388.275200
   8750   8748   8760     1   110.2600474 425.931200
   8751   8752   8754     1   109.5600471 388.275200
   8751   8759   8762     1   107.2600461 396.643200
   8752   8753   8756     1   110.2200475 386.601600
   8752   8758   8764     1   107.2600461 396.643200
   8752   8751   8755     1   109.5600471 388.275200
   8753   8752   8754     1   109.5600471 388.275200
   8754   8752   8758     1   110.2600474 425.931200
   8755   8751   8759     1   110.2600474 425.931200
   8756   8753   8757     1   109.5800467 425.931200
   8756   8753   8769     1   109.5800467 425.931200
   8761   8767   8768     1   107.2600461 396.643200
   8765   8761   8767     1   110.2600474 425.931200
   8765   8761   8766     1   108.4600466 328.025600
   8766   8761   8767     1   110.2600474 425.931200
   8770   8771   8773     1   109.5600471 388.275200
   8770   8784   8788     1   109.5600471 388.275200
   8770   8784   8789     1   109.5600471 388.275200
   8771   8770   8772     1   109.5600471 388.275200
   8771   8774   8778     1   109.5600471 388.275200
   8771   8783   8786     1   107.2600461 396.643200
   8772   8770   8784     1   109.5600471 388.275200
   8772   8770   8792     1   109.7800468 425.094400
   8773   8771   8774     1   109.5600471 388.275200
   8773   8771   8783     1   110.2600474 425.931200
   8774   8775   8777     1   109.5600471 388.275200
   8774   8782   8785     1   107.2600461 396.643200
   8775   8774   8778     1   109.5600471 388.275200
   8775   8776   8779     1   110.2200475 386.601600
   8775   8781   8787     1   107.2600461 396.643200
   8776   8775   8777     1   109.5600471 388.275200
   8777   8775   8781     1   110.2600474 425.931200
   8778   8774   8782     1   110.2600474 425.931200
   8779   8776   8780     1   109.5800467 425.931200
   8779   8776   8792     1   109.5800467 425.931200
   8784   8790   8791     1   107.2600461 396.643200
   8788   8784   8790     1   110.2600474 425.931200
   8788   8784   8789     1   108.4600466 328.025600
   8789   8784   8790     1   110.2600474 425.931200
   8793   8794   8796     1   109.5600471 388.275200
   8793   8807   8811     1   109.5600471 388.275200
   8793   8807   8812     1   109.5600471 388.275200
   8794   8797   8801     1   109.5600471 388.275200
   8794   8806   8809     1   107.2600461 396.643200
   8794   8793   8795     1   109.5600471 388.275200
   8795   8793   8807     1   109.5600471 388.275200
   8795   8793   8815     1   109.7800468 425.094400
   8796   8794   8797     1   109.5600471 388.275200
   8796   8794   8806     1   110.2600474 425.931200
   8797   8798   8800     1   109.5600471 388.275200
   8797   8805   8808     1   107.2600461 396.643200
   8798   8799   8802     1   110.2200475 386.601600
   8798   8804   8810     1   107.2600461 396.643200
   8798   8797   8801     1   109.5600471 388.275200
   8799   8798   8800     1   109.5600471 388.275200
   8800   8798   8804     1   110.2600474 425.931200
   8801   8797   8805     1   110.2600474 425.931200
   8802   8799   8803     1   109.5800467 425.931200
   8802   8799   8815     1   109.5800467 425.931200
   8807   8813   8814     1   107.2600461 396.643200
   8811   8807   8813     1   110.2600474 425.931200
   8811   8807   8812     1   108.4600466 328.025600
   8812   8807   8813     1   110.2600474 425.931200
   8816   8817   8819     1   109.5600471 388.275200
   8816   8830   8834     1   109.5600471 388.275200
   8816   8830   8835     1   109.5600471 388.275200
   8817   8816   8818     1   109.5600471 388.275200
   8817   8820   8824     1   109.5600471 388.275200
   8817   8829   8832     1   107.2600461 396.643200
   8818   8816   8830     1   109.5600471 388.275200
   8818   8816   8838     1   109.7800468 425.094400
   8819   8817   8820     1   109.5600471 388.275200
   8819   8817   8829     1   110.2600474 425.931200
   8820   8821   8823     1   109.5600471 388.275200
   8820   8828   8831     1   107.2600461 396.643200
   8821   8820   8824     1   109.5600471 388.275200
   8821   8822   8825     1   110.2200475 386.601600
   8821   8827   8833     1   107.2600461 396.643200
   8822   8821   8823     1   109.5600471 388.275200
   8823   8821   8827     1   110.2600474 425.931200
   8824   8820   8828     1   110.2600474 425.931200
   8825   8822   8826     1   109.5800467 425.931200
   8825   8822   8838     1   109.5800467 425.931200
   8830   8836   8837     1   107.2600461 396.643200
   8834   8830   8836     1   110.2600474 425.931200
   8834   8830   8835     1   108.4600466 328.025600
   8835   8830   8836     1   110.2600474 425.931200
   8839   8840   8842     1   109.5600471 388.275200
   8839   8853   8857     1   109.5600471 388.275200
   8839   8853   8858     1   109.5600471 388.275200
   8840   8843   8847     1   109.5600471 388.275200
   8840   8852   8855     1   107.2600461 396.643200
   8840   8839   8841     1   109.5600471 388.275200
   8841   8839   8853     1   109.5600471 388.275200
   8841   8839   8861     1   109.7800468 425.094400
   8842   8840   8843     1   109.5600471 388.275200
   8842   8840   8852     1   110.2600474 425.931200
   8843   8844   8846     1   109.5600471 388.275200
   8843   8851   8854     1   107.2600461 396.643200
   8844   8845   8848     1   110.2200475 386.601600
   8844   8850   8856     1   107.2600461 396.643200
   8844   8843   8847     1   109.5600471 388.275200
   8845   8844   8846     1   109.5600471 388.275200
   8846   8844   8850     1   110.2600474 425.931200
   8847   8843   8851     1   110.2600474 425.931200
   8848   8845   8849     1   109.5800467 425.931200
   8848   8845   8861     1   109.5800467 425.931200
   8853   8859   8860     1   107.2600461 396.643200
   8857   8853   8859     1   110.2600474 425.931200
   8857   8853   8858     1   108.4600466 328.025600
   8858   8853   8859     1   110.2600474 425.931200
   8862   8863   8865     1   109.5600471 388.275200
   8862   8876   8880     1   109.5600471 388.275200
   8862   8876   8881     1   109.5600471 388.275200
   8863   8862   8864     1   109.5600471 388.275200
   8863   8866   8870     1   109.5600471 388.275200
   8863   8875   8878     1   107.2600461 396.643200
   8864   8862   8876     1   109.5600471 388.275200
   8864   8862   8884     1   109.7800468 425.094400
   8865   8863   8866     1   109.5600471 388.275200
   8865   8863   8875     1   110.2600474 425.931200
   8866   8867   8869     1   109.5600471 388.275200
   8866   8874   8877     1   107.2600461 396.643200
   8867   8866   8870     1   109.5600471 388.275200
   8867   8868   8871     1   110.2200475 386.601600
   8867   8873   8879     1   107.2600461 396.643200
   8868   8867   8869     1   109.5600471 388.275200
   8869   8867   8873     1   110.2600474 425.931200
   8870   8866   8874     1   110.2600474 425.931200
   8871   8868   8872     1   109.5800467 425.931200
   8871   8868   8884     1   109.5800467 425.931200
   8876   8882   8883     1   107.2600461 396.643200
   8880   8876   8882     1   110.2600474 425.931200
   8880   8876   8881     1   108.4600466 328.025600
   8881   8876   8882     1   110.2600474 425.931200
   8885   8886   8888     1   109.5600471 388.275200
   8885   8899   8903     1   109.5600471 388.275200
   8885   8899   8904     1   109.5600471 388.275200
   8886   8889   8893     1   109.5600471 388.275200
   8886   8898   8901     1   107.2600461 396.643200
   8886   8885   8887     1   109.5600471 388.275200
   8887   8885   8899     1   109.5600471 388.275200
   8887   8885   8907     1   109.7800468 425.094400
   8888   8886   8889     1   109.5600471 388.275200
   8888   8886   8898     1   110.2600474 425.931200
   8889   8890   8892     1   109.5600471 388.275200
   8889   8897   8900     1   107.2600461 396.643200
   8890   8891   8894     1   110.2200475 386.601600
   8890   8896   8902     1   107.2600461 396.643200
   8890   8889   8893     1   109.5600471 388.275200
   8891   8890   8892     1   109.5600471 388.275200
   8892   8890   8896     1   110.2600474 425.931200
   8893   8889   8897     1   110.2600474 425.931200
   8894   8891   8895     1   109.5800467 425.931200
   8894   8891   8907     1   109.5800467 425.931200
   8899   8905   8906     1   107.2600461 396.643200
   8903   8899   8905     1   110.2600474 425.931200
   8903   8899   8904     1   108.4600466 328.025600
   8904   8899   8905     1   110.2600474 425.931200
   8908   8909   8911     1   109.5600471 388.275200
   8908   8922   8926     1   109.5600471 388.275200
   8908   8922   8927     1   109.5600471 388.275200
   8909   8908   8910     1   109.5600471 388.275200
   8909   8912   8916     1   109.5600471 388.275200
   8909   8921   8924     1   107.2600461 396.643200
   8910   8908   8922     1   109.5600471 388.275200
   8910   8908   8930     1   109.7800468 425.094400
   8911   8909   8912     1   109.5600471 388.275200
   8911   8909   8921     1   110.2600474 425.931200
   8912   8913   8915     1   109.5600471 388.275200
   8912   8920   8923     1   107.2600461 396.643200
   8913   8912   8916     1   109.5600471 388.275200
   8913   8914   8917     1   110.2200475 386.601600
   8913   8919   8925     1   107.2600461 396.643200
   8914   8913   8915     1   109.5600471 388.275200
   8915   8913   8919     1   110.2600474 425.931200
   8916   8912   8920     1   110.2600474 425.931200
   8917   8914   8918     1   109.5800467 425.931200
   8917   8914   8930     1   109.5800467 425.931200
   8922   8928   8929     1   107.2600461 396.643200
   8926   8922   8928     1   110.2600474 425.931200
   8926   8922   8927     1   108.4600466 328.025600
   8927   8922   8928     1   110.2600474 425.931200
   8931   8932   8934     1   109.5600471 388.275200
   8931   8945   8949     1   109.5600471 388.275200
   8931   8945   8950     1   109.5600471 388.275200
   8932   8935   8939     1   109.5600471 388.275200
   8932   8944   8947     1   107.2600461 396.643200
   8932   8931   8933     1   109.5600471 388.275200
   8933   8931   8945     1   109.5600471 388.275200
   8933   8931   8953     1   109.7800468 425.094400
   8934   8932   8935     1   109.5600471 388.275200
   8934   8932   8944     1   110.2600474 425.931200
   8935   8936   8938     1   109.5600471 388.275200
   8935   8943   8946     1   107.2600461 396.643200
   8936   8937   8940     1   110.2200475 386.601600
   8936   8942   8948     1   107.2600461 396.643200
   8936   8935   8939     1   109.5600471 388.275200
   8937   8936   8938     1   109.5600471 388.275200
   8938   8936   8942     1   110.2600474 425.931200
   8939   8935   8943     1   110.2600474 425.931200
   8940   8937   8941     1   109.5800467 425.931200
   8940   8937   8953     1   109.5800467 425.931200
   8945   8951   8952     1   107.2600461 396.643200
   8949   8945   8951     1   110.2600474 425.931200
   8949   8945   8950     1   108.4600466 328.025600
   8950   8945   8951     1   110.2600474 425.931200
   8954   8955   8957     1   109.5600471 388.275200
   8954   8968   8972     1   109.5600471 388.275200
   8954   8968   8973     1   109.5600471 388.275200
   8955   8954   8956     1   109.5600471 388.275200
   8955   8958   8962     1   109.5600471 388.275200
   8955   8967   8970     1   107.2600461 396.643200
   8956   8954   8968     1   109.5600471 388.275200
   8956   8954   8976     1   109.7800468 425.094400
   8957   8955   8958     1   109.5600471 388.275200
   8957   8955   8967     1   110.2600474 425.931200
   8958   8959   8961     1   109.5600471 388.275200
   8958   8966   8969     1   107.2600461 396.643200
   8959   8958   8962     1   109.5600471 388.275200
   8959   8960   8963     1   110.2200475 386.601600
   8959   8965   8971     1   107.2600461 396.643200
   8960   8959   8961     1   109.5600471 388.275200
   8961   8959   8965     1   110.2600474 425.931200
   8962   8958   8966     1   110.2600474 425.931200
   8963   8960   8964     1   109.5800467 425.931200
   8963   8960   8976     1   109.5800467 425.931200
   8968   8974   8975     1   107.2600461 396.643200
   8972   8968   8974     1   110.2600474 425.931200
   8972   8968   8973     1   108.4600466 328.025600
   8973   8968   8974     1   110.2600474 425.931200
   8977   8978   8980     1   109.5600471 388.275200
   8977   8991   8995     1   109.5600471 388.275200
   8977   8991   8996     1   109.5600471 388.275200
   8978   8981   8985     1   109.5600471 388.275200
   8978   8990   8993     1   107.2600461 396.643200
   8978   8977   8979     1   109.5600471 388.275200
   8979   8977   8991     1   109.5600471 388.275200
   8979   8977   8999     1   109.7800468 425.094400
   8980   8978   8981     1   109.5600471 388.275200
   8980   8978   8990     1   110.2600474 425.931200
   8981   8982   8984     1   109.5600471 388.275200
   8981   8989   8992     1   107.2600461 396.643200
   8982   8983   8986     1   110.2200475 386.601600
   8982   8988   8994     1   107.2600461 396.643200
   8982   8981   8985     1   109.5600471 388.275200
   8983   8982   8984     1   109.5600471 388.275200
   8984   8982   8988     1   110.2600474 425.931200
   8985   8981   8989     1   110.2600474 425.931200
   8986   8983   8987     1   109.5800467 425.931200
   8986   8983   8999     1   109.5800467 425.931200
   8991   8997   8998     1   107.2600461 396.643200
   8995   8991   8997     1   110.2600474 425.931200
   8995   8991   8996     1   108.4600466 328.025600
   8996   8991   8997     1   110.2600474 425.931200
   9000   9001   9003     1   109.5600471 388.275200
   9000   9014   9018     1   109.5600471 388.275200
   9000   9014   9019     1   109.5600471 388.275200
   9001   9000   9002     1   109.5600471 388.275200
   9001   9004   9008     1   109.5600471 388.275200
   9001   9013   9016     1   107.2600461 396.643200
   9002   9000   9014     1   109.5600471 388.275200
   9002   9000   9022     1   109.7800468 425.094400
   9003   9001   9004     1   109.5600471 388.275200
   9003   9001   9013     1   110.2600474 425.931200
   9004   9005   9007     1   109.5600471 388.275200
   9004   9012   9015     1   107.2600461 396.643200
   9005   9004   9008     1   109.5600471 388.275200
   9005   9006   9009     1   110.2200475 386.601600
   9005   9011   9017     1   107.2600461 396.643200
   9006   9005   9007     1   109.5600471 388.275200
   9007   9005   9011     1   110.2600474 425.931200
   9008   9004   9012     1   110.2600474 425.931200
   9009   9006   9010     1   109.5800467 425.931200
   9009   9006   9022     1   109.5800467 425.931200
   9014   9020   9021     1   107.2600461 396.643200
   9018   9014   9020     1   110.2600474 425.931200
   9018   9014   9019     1   108.4600466 328.025600
   9019   9014   9020     1   110.2600474 425.931200
   9023   9024   9026     1   109.5600471 388.275200
   9023   9037   9041     1   109.5600471 388.275200
   9023   9037   9042     1   109.5600471 388.275200
   9024   9027   9031     1   109.5600471 388.275200
   9024   9036   9039     1   107.2600461 396.643200
   9024   9023   9025     1   109.5600471 388.275200
   9025   9023   9037     1   109.5600471 388.275200
   9025   9023   9045     1   109.7800468 425.094400
   9026   9024   9027     1   109.5600471 388.275200
   9026   9024   9036     1   110.2600474 425.931200
   9027   9028   9030     1   109.5600471 388.275200
   9027   9035   9038     1   107.2600461 396.643200
   9028   9029   9032     1   110.2200475 386.601600
   9028   9034   9040     1   107.2600461 396.643200
   9028   9027   9031     1   109.5600471 388.275200
   9029   9028   9030     1   109.5600471 388.275200
   9030   9028   9034     1   110.2600474 425.931200
   9031   9027   9035     1   110.2600474 425.931200
   9032   9029   9033     1   109.5800467 425.931200
   9032   9029   9045     1   109.5800467 425.931200
   9037   9043   9044     1   107.2600461 396.643200
   9041   9037   9043     1   110.2600474 425.931200
   9041   9037   9042     1   108.4600466 328.025600
   9042   9037   9043     1   110.2600474 425.931200
   9046   9047   9049     1   109.5600471 388.275200
   9046   9060   9064     1   109.5600471 388.275200
   9046   9060   9065     1   109.5600471 388.275200
   9047   9046   9048     1   109.5600471 388.275200
   9047   9050   9054     1   109.5600471 388.275200
   9047   9059   9062     1   107.2600461 396.643200
   9048   9046   9060     1   109.5600471 388.275200
   9048   9046   9068     1   109.7800468 425.094400
   9049   9047   9050     1   109.5600471 388.275200
   9049   9047   9059     1   110.2600474 425.931200
   9050   9051   9053     1   109.5600471 388.275200
   9050   9058   9061     1   107.2600461 396.643200
   9051   9050   9054     1   109.5600471 388.275200
   9051   9052   9055     1   110.2200475 386.601600
   9051   9057   9063     1   107.2600461 396.643200
   9052   9051   9053     1   109.5600471 388.275200
   9053   9051   9057     1   110.2600474 425.931200
   9054   9050   9058     1   110.2600474 425.931200
   9055   9052   9056     1   109.5800467 425.931200
   9055   9052   9068     1   109.5800467 425.931200
   9060   9066   9067     1   107.2600461 396.643200
   9064   9060   9066     1   110.2600474 425.931200
   9064   9060   9065     1   108.4600466 328.025600
   9065   9060   9066     1   110.2600474 425.931200
   9069   9070   9072     1   109.5600471 388.275200
   9069   9083   9087     1   109.5600471 388.275200
   9069   9083   9088     1   109.5600471 388.275200
   9070   9073   9077     1   109.5600471 388.275200
   9070   9082   9085     1   107.2600461 396.643200
   9070   9069   9071     1   109.5600471 388.275200
   9071   9069   9083     1   109.5600471 388.275200
   9071   9069   9091     1   109.7800468 425.094400
   9072   9070   9073     1   109.5600471 388.275200
   9072   9070   9082     1   110.2600474 425.931200
   9073   9074   9076     1   109.5600471 388.275200
   9073   9081   9084     1   107.2600461 396.643200
   9074   9075   9078     1   110.2200475 386.601600
   9074   9080   9086     1   107.2600461 396.643200
   9074   9073   9077     1   109.5600471 388.275200
   9075   9074   9076     1   109.5600471 388.275200
   9076   9074   9080     1   110.2600474 425.931200
   9077   9073   9081     1   110.2600474 425.931200
   9078   9075   9079     1   109.5800467 425.931200
   9078   9075   9091     1   109.5800467 425.931200
   9083   9089   9090     1   107.2600461 396.643200
   9087   9083   9089     1   110.2600474 425.931200
   9087   9083   9088     1   108.4600466 328.025600
   9088   9083   9089     1   110.2600474 425.931200
   9092   9093   9095     1   109.5600471 388.275200
   9092   9106   9110     1   109.5600471 388.275200
   9092   9106   9111     1   109.5600471 388.275200
   9093   9092   9094     1   109.5600471 388.275200
   9093   9096   9100     1   109.5600471 388.275200
   9093   9105   9108     1   107.2600461 396.643200
   9094   9092   9106     1   109.5600471 388.275200
   9094   9092   9114     1   109.7800468 425.094400
   9095   9093   9096     1   109.5600471 388.275200
   9095   9093   9105     1   110.2600474 425.931200
   9096   9097   9099     1   109.5600471 388.275200
   9096   9104   9107     1   107.2600461 396.643200
   9097   9096   9100     1   109.5600471 388.275200
   9097   9098   9101     1   110.2200475 386.601600
   9097   9103   9109     1   107.2600461 396.643200
   9098   9097   9099     1   109.5600471 388.275200
   9099   9097   9103     1   110.2600474 425.931200
   9100   9096   9104     1   110.2600474 425.931200
   9101   9098   9102     1   109.5800467 425.931200
   9101   9098   9114     1   109.5800467 425.931200
   9106   9112   9113     1   107.2600461 396.643200
   9110   9106   9112     1   110.2600474 425.931200
   9110   9106   9111     1   108.4600466 328.025600
   9111   9106   9112     1   110.2600474 425.931200
   9115   9116   9118     1   109.5600471 388.275200
   9115   9129   9133     1   109.5600471 388.275200
   9115   9129   9134     1   109.5600471 388.275200
   9116   9119   9123     1   109.5600471 388.275200
   9116   9128   9131     1   107.2600461 396.643200
   9116   9115   9117     1   109.5600471 388.275200
   9117   9115   9129     1   109.5600471 388.275200
   9117   9115   9137     1   109.7800468 425.094400
   9118   9116   9119     1   109.5600471 388.275200
   9118   9116   9128     1   110.2600474 425.931200
   9119   9120   9122     1   109.5600471 388.275200
   9119   9127   9130     1   107.2600461 396.643200
   9120   9121   9124     1   110.2200475 386.601600
   9120   9126   9132     1   107.2600461 396.643200
   9120   9119   9123     1   109.5600471 388.275200
   9121   9120   9122     1   109.5600471 388.275200
   9122   9120   9126     1   110.2600474 425.931200
   9123   9119   9127     1   110.2600474 425.931200
   9124   9121   9125     1   109.5800467 425.931200
   9124   9121   9137     1   109.5800467 425.931200
   9129   9135   9136     1   107.2600461 396.643200
   9133   9129   9135     1   110.2600474 425.931200
   9133   9129   9134     1   108.4600466 328.025600
   9134   9129   9135     1   110.2600474 425.931200
   9138   9139   9141     1   109.5600471 388.275200
   9138   9152   9156     1   109.5600471 388.275200
   9138   9152   9157     1   109.5600471 388.275200
   9139   9138   9140     1   109.5600471 388.275200
   9139   9142   9146     1   109.5600471 388.275200
   9139   9151   9154     1   107.2600461 396.643200
   9140   9138   9152     1   109.5600471 388.275200
   9140   9138   9160     1   109.7800468 425.094400
   9141   9139   9142     1   109.5600471 388.275200
   9141   9139   9151     1   110.2600474 425.931200
   9142   9143   9145     1   109.5600471 388.275200
   9142   9150   9153     1   107.2600461 396.643200
   9143   9142   9146     1   109.5600471 388.275200
   9143   9144   9147     1   110.2200475 386.601600
   9143   9149   9155     1   107.2600461 396.643200
   9144   9143   9145     1   109.5600471 388.275200
   9145   9143   9149     1   110.2600474 425.931200
   9146   9142   9150     1   110.2600474 425.931200
   9147   9144   9148     1   109.5800467 425.931200
   9147   9144   9160     1   109.5800467 425.931200
   9152   9158   9159     1   107.2600461 396.643200
   9156   9152   9158     1   110.2600474 425.931200
   9156   9152   9157     1   108.4600466 328.025600
   9157   9152   9158     1   110.2600474 425.931200
   9161   9162   9164     1   109.5600471 388.275200
   9161   9175   9179     1   109.5600471 388.275200
   9161   9175   9180     1   109.5600471 388.275200
   9162   9165   9169     1   109.5600471 388.275200
   9162   9174   9177     1   107.2600461 396.643200
   9162   9161   9163     1   109.5600471 388.275200
   9163   9161   9175     1   109.5600471 388.275200
   9163   9161   9183     1   109.7800468 425.094400
   9164   9162   9165     1   109.5600471 388.275200
   9164   9162   9174     1   110.2600474 425.931200
   9165   9166   9168     1   109.5600471 388.275200
   9165   9173   9176     1   107.2600461 396.643200
   9166   9167   9170     1   110.2200475 386.601600
   9166   9172   9178     1   107.2600461 396.643200
   9166   9165   9169     1   109.5600471 388.275200
   9167   9166   9168     1   109.5600471 388.275200
   9168   9166   9172     1   110.2600474 425.931200
   9169   9165   9173     1   110.2600474 425.931200
   9170   9167   9171     1   109.5800467 425.931200
   9170   9167   9183     1   109.5800467 425.931200
   9175   9181   9182     1   107.2600461 396.643200
   9179   9175   9181     1   110.2600474 425.931200
   9179   9175   9180     1   108.4600466 328.025600
   9180   9175   9181     1   110.2600474 425.931200
   9184   9185   9187     1   109.5600471 388.275200
   9184   9198   9202     1   109.5600471 388.275200
   9184   9198   9203     1   109.5600471 388.275200
   9185   9184   9186     1   109.5600471 388.275200
   9185   9188   9192     1   109.5600471 388.275200
   9185   9197   9200     1   107.2600461 396.643200
   9186   9184   9198     1   109.5600471 388.275200
   9186   9184   9206     1   109.7800468 425.094400
   9187   9185   9188     1   109.5600471 388.275200
   9187   9185   9197     1   110.2600474 425.931200
   9188   9189   9191     1   109.5600471 388.275200
   9188   9196   9199     1   107.2600461 396.643200
   9189   9188   9192     1   109.5600471 388.275200
   9189   9190   9193     1   110.2200475 386.601600
   9189   9195   9201     1   107.2600461 396.643200
   9190   9189   9191     1   109.5600471 388.275200
   9191   9189   9195     1   110.2600474 425.931200
   9192   9188   9196     1   110.2600474 425.931200
   9193   9190   9194     1   109.5800467 425.931200
   9193   9190   9206     1   109.5800467 425.931200
   9198   9204   9205     1   107.2600461 396.643200
   9202   9198   9204     1   110.2600474 425.931200
   9202   9198   9203     1   108.4600466 328.025600
   9203   9198   9204     1   110.2600474 425.931200
   9207   9208   9210     1   109.5600471 388.275200
   9207   9221   9225     1   109.5600471 388.275200
   9207   9221   9226     1   109.5600471 388.275200
   9208   9211   9215     1   109.5600471 388.275200
   9208   9220   9223     1   107.2600461 396.643200
   9208   9207   9209     1   109.5600471 388.275200
   9209   9207   9221     1   109.5600471 388.275200
   9209   9207   9229     1   109.7800468 425.094400
   9210   9208   9211     1   109.5600471 388.275200
   9210   9208   9220     1   110.2600474 425.931200
   9211   9212   9214     1   109.5600471 388.275200
   9211   9219   9222     1   107.2600461 396.643200
   9212   9213   9216     1   110.2200475 386.601600
   9212   9218   9224     1   107.2600461 396.643200
   9212   9211   9215     1   109.5600471 388.275200
   9213   9212   9214     1   109.5600471 388.275200
   9214   9212   9218     1   110.2600474 425.931200
   9215   9211   9219     1   110.2600474 425.931200
   9216   9213   9217     1   109.5800467 425.931200
   9216   9213   9229     1   109.5800467 425.931200
   9221   9227   9228     1   107.2600461 396.643200
   9225   9221   9227     1   110.2600474 425.931200
   9225   9221   9226     1   108.4600466 328.025600
   9226   9221   9227     1   110.2600474 425.931200
   9230   9231   9233     1   109.5600471 388.275200
   9230   9244   9248     1   109.5600471 388.275200
   9230   9244   9249     1   109.5600471 388.275200
   9231   9230   9232     1   109.5600471 388.275200
   9231   9234   9238     1   109.5600471 388.275200
   9231   9243   9246     1   107.2600461 396.643200
   9232   9230   9244     1   109.5600471 388.275200
   9232   9230   9252     1   109.7800468 425.094400
   9233   9231   9234     1   109.5600471 388.275200
   9233   9231   9243     1   110.2600474 425.931200
   9234   9235   9237     1   109.5600471 388.275200
   9234   9242   9245     1   107.2600461 396.643200
   9235   9234   9238     1   109.5600471 388.275200
   9235   9236   9239     1   110.2200475 386.601600
   9235   9241   9247     1   107.2600461 396.643200
   9236   9235   9237     1   109.5600471 388.275200
   9237   9235   9241     1   110.2600474 425.931200
   9238   9234   9242     1   110.2600474 425.931200
   9239   9236   9240     1   109.5800467 425.931200
   9239   9236   9252     1   109.5800467 425.931200
   9244   9250   9251     1   107.2600461 396.643200
   9248   9244   9250     1   110.2600474 425.931200
   9248   9244   9249     1   108.4600466 328.025600
   9249   9244   9250     1   110.2600474 425.931200
   9253   9254   9256     1   109.5600471 388.275200
   9253   9267   9271     1   109.5600471 388.275200
   9253   9267   9272     1   109.5600471 388.275200
   9254   9257   9261     1   109.5600471 388.275200
   9254   9266   9269     1   107.2600461 396.643200
   9254   9253   9255     1   109.5600471 388.275200
   9255   9253   9267     1   109.5600471 388.275200
   9255   9253   9275     1   109.7800468 425.094400
   9256   9254   9257     1   109.5600471 388.275200
   9256   9254   9266     1   110.2600474 425.931200
   9257   9258   9260     1   109.5600471 388.275200
   9257   9265   9268     1   107.2600461 396.643200
   9258   9259   9262     1   110.2200475 386.601600
   9258   9264   9270     1   107.2600461 396.643200
   9258   9257   9261     1   109.5600471 388.275200
   9259   9258   9260     1   109.5600471 388.275200
   9260   9258   9264     1   110.2600474 425.931200
   9261   9257   9265     1   110.2600474 425.931200
   9262   9259   9263     1   109.5800467 425.931200
   9262   9259   9275     1   109.5800467 425.931200
   9267   9273   9274     1   107.2600461 396.643200
   9271   9267   9273     1   110.2600474 425.931200
   9271   9267   9272     1   108.4600466 328.025600
   9272   9267   9273     1   110.2600474 425.931200
   9276   9277   9279     1   109.5600471 388.275200
   9276   9290   9294     1   109.5600471 388.275200
   9276   9290   9295     1   109.5600471 388.275200
   9277   9276   9278     1   109.5600471 388.275200
   9277   9280   9284     1   109.5600471 388.275200
   9277   9289   9292     1   107.2600461 396.643200
   9278   9276   9290     1   109.5600471 388.275200
   9278   9276   9298     1   109.7800468 425.094400
   9279   9277   9280     1   109.5600471 388.275200
   9279   9277   9289     1   110.2600474 425.931200
   9280   9281   9283     1   109.5600471 388.275200
   9280   9288   9291     1   107.2600461 396.643200
   9281   9280   9284     1   109.5600471 388.275200
   9281   9282   9285     1   110.2200475 386.601600
   9281   9287   9293     1   107.2600461 396.643200
   9282   9281   9283     1   109.5600471 388.275200
   9283   9281   9287     1   110.2600474 425.931200
   9284   9280   9288     1   110.2600474 425.931200
   9285   9282   9286     1   109.5800467 425.931200
   9285   9282   9298     1   109.5800467 425.931200
   9290   9296   9297     1   107.2600461 396.643200
   9294   9290   9296     1   110.2600474 425.931200
   9294   9290   9295     1   108.4600466 328.025600
   9295   9290   9296     1   110.2600474 425.931200
   9299   9300   9302     1   109.5600471 388.275200
   9299   9313   9317     1   109.5600471 388.275200
   9299   9313   9318     1   109.5600471 388.275200
   9300   9303   9307     1   109.5600471 388.275200
   9300   9312   9315     1   107.2600461 396.643200
   9300   9299   9301     1   109.5600471 388.275200
   9301   9299   9313     1   109.5600471 388.275200
   9301   9299   9321     1   109.7800468 425.094400
   9302   9300   9303     1   109.5600471 388.275200
   9302   9300   9312     1   110.2600474 425.931200
   9303   9304   9306     1   109.5600471 388.275200
   9303   9311   9314     1   107.2600461 396.643200
   9304   9305   9308     1   110.2200475 386.601600
   9304   9310   9316     1   107.2600461 396.643200
   9304   9303   9307     1   109.5600471 388.275200
   9305   9304   9306     1   109.5600471 388.275200
   9306   9304   9310     1   110.2600474 425.931200
   9307   9303   9311     1   110.2600474 425.931200
   9308   9305   9309     1   109.5800467 425.931200
   9308   9305   9321     1   109.5800467 425.931200
   9313   9319   9320     1   107.2600461 396.643200
   9317   9313   9319     1   110.2600474 425.931200
   9317   9313   9318     1   108.4600466 328.025600
   9318   9313   9319     1   110.2600474 425.931200
   9322   9323   9325     1   109.5600471 388.275200
   9322   9336   9340     1   109.5600471 388.275200
   9322   9336   9341     1   109.5600471 388.275200
   9323   9322   9324     1   109.5600471 388.275200
   9323   9326   9330     1   109.5600471 388.275200
   9323   9335   9338     1   107.2600461 396.643200
   9324   9322   9336     1   109.5600471 388.275200
   9324   9322   9344     1   109.7800468 425.094400
   9325   9323   9326     1   109.5600471 388.275200
   9325   9323   9335     1   110.2600474 425.931200
   9326   9327   9329     1   109.5600471 388.275200
   9326   9334   9337     1   107.2600461 396.643200
   9327   9326   9330     1   109.5600471 388.275200
   9327   9328   9331     1   110.2200475 386.601600
   9327   9333   9339     1   107.2600461 396.643200
   9328   9327   9329     1   109.5600471 388.275200
   9329   9327   9333     1   110.2600474 425.931200
   9330   9326   9334     1   110.2600474 425.931200
   9331   9328   9332     1   109.5800467 425.931200
   9331   9328   9344     1   109.5800467 425.931200
   9336   9342   9343     1   107.2600461 396.643200
   9340   9336   9342     1   110.2600474 425.931200
   9340   9336   9341     1   108.4600466 328.025600
   9341   9336   9342     1   110.2600474 425.931200
   9345   9346   9348     1   109.5600471 388.275200
   9345   9359   9363     1   109.5600471 388.275200
   9345   9359   9364     1   109.5600471 388.275200
   9346   9349   9353     1   109.5600471 388.275200
   9346   9358   9361     1   107.2600461 396.643200
   9346   9345   9347     1   109.5600471 388.275200
   9347   9345   9359     1   109.5600471 388.275200
   9347   9345   9367     1   109.7800468 425.094400
   9348   9346   9349     1   109.5600471 388.275200
   9348   9346   9358     1   110.2600474 425.931200
   9349   9350   9352     1   109.5600471 388.275200
   9349   9357   9360     1   107.2600461 396.643200
   9350   9351   9354     1   110.2200475 386.601600
   9350   9356   9362     1   107.2600461 396.643200
   9350   9349   9353     1   109.5600471 388.275200
   9351   9350   9352     1   109.5600471 388.275200
   9352   9350   9356     1   110.2600474 425.931200
   9353   9349   9357     1   110.2600474 425.931200
   9354   9351   9355     1   109.5800467 425.931200
   9354   9351   9367     1   109.5800467 425.931200
   9359   9365   9366     1   107.2600461 396.643200
   9363   9359   9365     1   110.2600474 425.931200
   9363   9359   9364     1   108.4600466 328.025600
   9364   9359   9365     1   110.2600474 425.931200
   9368   9369   9371     1   109.5600471 388.275200
   9368   9382   9386     1   109.5600471 388.275200
   9368   9382   9387     1   109.5600471 388.275200
   9369   9368   9370     1   109.5600471 388.275200
   9369   9372   9376     1   109.5600471 388.275200
   9369   9381   9384     1   107.2600461 396.643200
   9370   9368   9382     1   109.5600471 388.275200
   9370   9368   9390     1   109.7800468 425.094400
   9371   9369   9372     1   109.5600471 388.275200
   9371   9369   9381     1   110.2600474 425.931200
   9372   9373   9375     1   109.5600471 388.275200
   9372   9380   9383     1   107.2600461 396.643200
   9373   9372   9376     1   109.5600471 388.275200
   9373   9374   9377     1   110.2200475 386.601600
   9373   9379   9385     1   107.2600461 396.643200
   9374   9373   9375     1   109.5600471 388.275200
   9375   9373   9379     1   110.2600474 425.931200
   9376   9372   9380     1   110.2600474 425.931200
   9377   9374   9378     1   109.5800467 425.931200
   9377   9374   9390     1   109.5800467 425.931200
   9382   9388   9389     1   107.2600461 396.643200
   9386   9382   9388     1   110.2600474 425.931200
   9386   9382   9387     1   108.4600466 328.025600
   9387   9382   9388     1   110.2600474 425.931200
   9391   9392   9394     1   109.5600471 388.275200
   9391   9405   9409     1   109.5600471 388.275200
   9391   9405   9410     1   109.5600471 388.275200
   9392   9395   9399     1   109.5600471 388.275200
   9392   9404   9407     1   107.2600461 396.643200
   9392   9391   9393     1   109.5600471 388.275200
   9393   9391   9405     1   109.5600471 388.275200
   9393   9391   9413     1   109.7800468 425.094400
   9394   9392   9395     1   109.5600471 388.275200
   9394   9392   9404     1   110.2600474 425.931200
   9395   9396   9398     1   109.5600471 388.275200
   9395   9403   9406     1   107.2600461 396.643200
   9396   9397   9400     1   110.2200475 386.601600
   9396   9402   9408     1   107.2600461 396.643200
   9396   9395   9399     1   109.5600471 388.275200
   9397   9396   9398     1   109.5600471 388.275200
   9398   9396   9402     1   110.2600474 425.931200
   9399   9395   9403     1   110.2600474 425.931200
   9400   9397   9401     1   109.5800467 425.931200
   9400   9397   9413     1   109.5800467 425.931200
   9405   9411   9412     1   107.2600461 396.643200
   9409   9405   9411     1   110.2600474 425.931200
   9409   9405   9410     1   108.4600466 328.025600
   9410   9405   9411     1   110.2600474 425.931200
   9414   9415   9417     1   109.5600471 388.275200
   9414   9428   9432     1   109.5600471 388.275200
   9414   9428   9433     1   109.5600471 388.275200
   9415   9414   9416     1   109.5600471 388.275200
   9415   9418   9422     1   109.5600471 388.275200
   9415   9427   9430     1   107.2600461 396.643200
   9416   9414   9428     1   109.5600471 388.275200
   9416   9414   9436     1   109.7800468 425.094400
   9417   9415   9418     1   109.5600471 388.275200
   9417   9415   9427     1   110.2600474 425.931200
   9418   9419   9421     1   109.5600471 388.275200
   9418   9426   9429     1   107.2600461 396.643200
   9419   9418   9422     1   109.5600471 388.275200
   9419   9420   9423     1   110.2200475 386.601600
   9419   9425   9431     1   107.2600461 396.643200
   9420   9419   9421     1   109.5600471 388.275200
   9421   9419   9425     1   110.2600474 425.931200
   9422   9418   9426     1   110.2600474 425.931200
   9423   9420   9424     1   109.5800467 425.931200
   9423   9420   9436     1   109.5800467 425.931200
   9428   9434   9435     1   107.2600461 396.643200
   9432   9428   9434     1   110.2600474 425.931200
   9432   9428   9433     1   108.4600466 328.025600
   9433   9428   9434     1   110.2600474 425.931200
   9437   9438   9440     1   109.5600471 388.275200
   9437   9451   9455     1   109.5600471 388.275200
   9437   9451   9456     1   109.5600471 388.275200
   9438   9441   9445     1   109.5600471 388.275200
   9438   9450   9453     1   107.2600461 396.643200
   9438   9437   9439     1   109.5600471 388.275200
   9439   9437   9451     1   109.5600471 388.275200
   9439   9437   9459     1   109.7800468 425.094400
   9440   9438   9441     1   109.5600471 388.275200
   9440   9438   9450     1   110.2600474 425.931200
   9441   9442   9444     1   109.5600471 388.275200
   9441   9449   9452     1   107.2600461 396.643200
   9442   9443   9446     1   110.2200475 386.601600
   9442   9448   9454     1   107.2600461 396.643200
   9442   9441   9445     1   109.5600471 388.275200
   9443   9442   9444     1   109.5600471 388.275200
   9444   9442   9448     1   110.2600474 425.931200
   9445   9441   9449     1   110.2600474 425.931200
   9446   9443   9447     1   109.5800467 425.931200
   9446   9443   9459     1   109.5800467 425.931200
   9451   9457   9458     1   107.2600461 396.643200
   9455   9451   9457     1   110.2600474 425.931200
   9455   9451   9456     1   108.4600466 328.025600
   9456   9451   9457     1   110.2600474 425.931200
   9460   9461   9463     1   109.5600471 388.275200
   9460   9474   9478     1   109.5600471 388.275200
   9460   9474   9479     1   109.5600471 388.275200
   9461   9460   9462     1   109.5600471 388.275200
   9461   9464   9468     1   109.5600471 388.275200
   9461   9473   9476     1   107.2600461 396.643200
   9462   9460   9474     1   109.5600471 388.275200
   9462   9460   9482     1   109.7800468 425.094400
   9463   9461   9464     1   109.5600471 388.275200
   9463   9461   9473     1   110.2600474 425.931200
   9464   9465   9467     1   109.5600471 388.275200
   9464   9472   9475     1   107.2600461 396.643200
   9465   9464   9468     1   109.5600471 388.275200
   9465   9466   9469     1   110.2200475 386.601600
   9465   9471   9477     1   107.2600461 396.643200
   9466   9465   9467     1   109.5600471 388.275200
   9467   9465   9471     1   110.2600474 425.931200
   9468   9464   9472     1   110.2600474 425.931200
   9469   9466   9470     1   109.5800467 425.931200
   9469   9466   9482     1   109.5800467 425.931200
   9474   9480   9481     1   107.2600461 396.643200
   9478   9474   9480     1   110.2600474 425.931200
   9478   9474   9479     1   108.4600466 328.025600
   9479   9474   9480     1   110.2600474 425.931200
   9483   9484   9486     1   109.5600471 388.275200
   9483   9497   9501     1   109.5600471 388.275200
   9483   9497   9502     1   109.5600471 388.275200
   9484   9487   9491     1   109.5600471 388.275200
   9484   9496   9499     1   107.2600461 396.643200
   9484   9483   9485     1   109.5600471 388.275200
   9485   9483   9497     1   109.5600471 388.275200
   9485   9483   9505     1   109.7800468 425.094400
   9486   9484   9487     1   109.5600471 388.275200
   9486   9484   9496     1   110.2600474 425.931200
   9487   9488   9490     1   109.5600471 388.275200
   9487   9495   9498     1   107.2600461 396.643200
   9488   9489   9492     1   110.2200475 386.601600
   9488   9494   9500     1   107.2600461 396.643200
   9488   9487   9491     1   109.5600471 388.275200
   9489   9488   9490     1   109.5600471 388.275200
   9490   9488   9494     1   110.2600474 425.931200
   9491   9487   9495     1   110.2600474 425.931200
   9492   9489   9493     1   109.5800467 425.931200
   9492   9489   9505     1   109.5800467 425.931200
   9497   9503   9504     1   107.2600461 396.643200
   9501   9497   9503     1   110.2600474 425.931200
   9501   9497   9502     1   108.4600466 328.025600
   9502   9497   9503     1   110.2600474 425.931200
   9506   9507   9509     1   109.5600471 388.275200
   9506   9520   9524     1   109.5600471 388.275200
   9506   9520   9525     1   109.5600471 388.275200
   9507   9506   9508     1   109.5600471 388.275200
   9507   9510   9514     1   109.5600471 388.275200
   9507   9519   9522     1   107.2600461 396.643200
   9508   9506   9520     1   109.5600471 388.275200
   9508   9506   9528     1   109.7800468 425.094400
   9509   9507   9510     1   109.5600471 388.275200
   9509   9507   9519     1   110.2600474 425.931200
   9510   9511   9513     1   109.5600471 388.275200
   9510   9518   9521     1   107.2600461 396.643200
   9511   9510   9514     1   109.5600471 388.275200
   9511   9512   9515     1   110.2200475 386.601600
   9511   9517   9523     1   107.2600461 396.643200
   9512   9511   9513     1   109.5600471 388.275200
   9513   9511   9517     1   110.2600474 425.931200
   9514   9510   9518     1   110.2600474 425.931200
   9515   9512   9516     1   109.5800467 425.931200
   9515   9512   9528     1   109.5800467 425.931200
   9520   9526   9527     1   107.2600461 396.643200
   9524   9520   9526     1   110.2600474 425.931200
   9524   9520   9525     1   108.4600466 328.025600
   9525   9520   9526     1   110.2600474 425.931200
   9529   9530   9532     1   109.5600471 388.275200
   9529   9543   9547     1   109.5600471 388.275200
   9529   9543   9548     1   109.5600471 388.275200
   9530   9533   9537     1   109.5600471 388.275200
   9530   9542   9545     1   107.2600461 396.643200
   9530   9529   9531     1   109.5600471 388.275200
   9531   9529   9543     1   109.5600471 388.275200
   9531   9529   9551     1   109.7800468 425.094400
   9532   9530   9533     1   109.5600471 388.275200
   9532   9530   9542     1   110.2600474 425.931200
   9533   9534   9536     1   109.5600471 388.275200
   9533   9541   9544     1   107.2600461 396.643200
   9534   9535   9538     1   110.2200475 386.601600
   9534   9540   9546     1   107.2600461 396.643200
   9534   9533   9537     1   109.5600471 388.275200
   9535   9534   9536     1   109.5600471 388.275200
   9536   9534   9540     1   110.2600474 425.931200
   9537   9533   9541     1   110.2600474 425.931200
   9538   9535   9539     1   109.5800467 425.931200
   9538   9535   9551     1   109.5800467 425.931200
   9543   9549   9550     1   107.2600461 396.643200
   9547   9543   9549     1   110.2600474 425.931200
   9547   9543   9548     1   108.4600466 328.025600
   9548   9543   9549     1   110.2600474 425.931200
   9552   9553   9555     1   109.5600471 388.275200
   9552   9566   9570     1   109.5600471 388.275200
   9552   9566   9571     1   109.5600471 388.275200
   9553   9552   9554     1   109.5600471 388.275200
   9553   9556   9560     1   109.5600471 388.275200
   9553   9565   9568     1   107.2600461 396.643200
   9554   9552   9566     1   109.5600471 388.275200
   9554   9552   9574     1   109.7800468 425.094400
   9555   9553   9556     1   109.5600471 388.275200
   9555   9553   9565     1   110.2600474 425.931200
   9556   9557   9559     1   109.5600471 388.275200
   9556   9564   9567     1   107.2600461 396.643200
   9557   9556   9560     1   109.5600471 388.275200
   9557   9558   9561     1   110.2200475 386.601600
   9557   9563   9569     1   107.2600461 396.643200
   9558   9557   9559     1   109.5600471 388.275200
   9559   9557   9563     1   110.2600474 425.931200
   9560   9556   9564     1   110.2600474 425.931200
   9561   9558   9562     1   109.5800467 425.931200
   9561   9558   9574     1   109.5800467 425.931200
   9566   9572   9573     1   107.2600461 396.643200
   9570   9566   9572     1   110.2600474 425.931200
   9570   9566   9571     1   108.4600466 328.025600
   9571   9566   9572     1   110.2600474 425.931200
   9575   9576   9578     1   109.5600471 388.275200
   9575   9589   9593     1   109.5600471 388.275200
   9575   9589   9594     1   109.5600471 388.275200
   9576   9579   9583     1   109.5600471 388.275200
   9576   9588   9591     1   107.2600461 396.643200
   9576   9575   9577     1   109.5600471 388.275200
   9577   9575   9589     1   109.5600471 388.275200
   9577   9575   9597     1   109.7800468 425.094400
   9578   9576   9579     1   109.5600471 388.275200
   9578   9576   9588     1   110.2600474 425.931200
   9579   9580   9582     1   109.5600471 388.275200
   9579   9587   9590     1   107.2600461 396.643200
   9580   9581   9584     1   110.2200475 386.601600
   9580   9586   9592     1   107.2600461 396.643200
   9580   9579   9583     1   109.5600471 388.275200
   9581   9580   9582     1   109.5600471 388.275200
   9582   9580   9586     1   110.2600474 425.931200
   9583   9579   9587     1   110.2600474 425.931200
   9584   9581   9585     1   109.5800467 425.931200
   9584   9581   9597     1   109.5800467 425.931200
   9589   9595   9596     1   107.2600461 396.643200
   9593   9589   9595     1   110.2600474 425.931200
   9593   9589   9594     1   108.4600466 328.025600
   9594   9589   9595     1   110.2600474 425.931200
   9598   9599   9601     1   109.5600471 388.275200
   9598   9612   9616     1   109.5600471 388.275200
   9598   9612   9617     1   109.5600471 388.275200
   9599   9598   9600     1   109.5600471 388.275200
   9599   9602   9606     1   109.5600471 388.275200
   9599   9611   9614     1   107.2600461 396.643200
   9600   9598   9612     1   109.5600471 388.275200
   9600   9598   9620     1   109.7800468 425.094400
   9601   9599   9602     1   109.5600471 388.275200
   9601   9599   9611     1   110.2600474 425.931200
   9602   9603   9605     1   109.5600471 388.275200
   9602   9610   9613     1   107.2600461 396.643200
   9603   9602   9606     1   109.5600471 388.275200
   9603   9604   9607     1   110.2200475 386.601600
   9603   9609   9615     1   107.2600461 396.643200
   9604   9603   9605     1   109.5600471 388.275200
   9605   9603   9609     1   110.2600474 425.931200
   9606   9602   9610     1   110.2600474 425.931200
   9607   9604   9608     1   109.5800467 425.931200
   9607   9604   9620     1   109.5800467 425.931200
   9612   9618   9619     1   107.2600461 396.643200
   9616   9612   9618     1   110.2600474 425.931200
   9616   9612   9617     1   108.4600466 328.025600
   9617   9612   9618     1   110.2600474 425.931200
   9621   9622   9624     1   109.5600471 388.275200
   9621   9635   9639     1   109.5600471 388.275200
   9621   9635   9640     1   109.5600471 388.275200
   9622   9625   9629     1   109.5600471 388.275200
   9622   9634   9637     1   107.2600461 396.643200
   9622   9621   9623     1   109.5600471 388.275200
   9623   9621   9635     1   109.5600471 388.275200
   9623   9621   9643     1   109.7800468 425.094400
   9624   9622   9625     1   109.5600471 388.275200
   9624   9622   9634     1   110.2600474 425.931200
   9625   9626   9628     1   109.5600471 388.275200
   9625   9633   9636     1   107.2600461 396.643200
   9626   9627   9630     1   110.2200475 386.601600
   9626   9632   9638     1   107.2600461 396.643200
   9626   9625   9629     1   109.5600471 388.275200
   9627   9626   9628     1   109.5600471 388.275200
   9628   9626   9632     1   110.2600474 425.931200
   9629   9625   9633     1   110.2600474 425.931200
   9630   9627   9631     1   109.5800467 425.931200
   9630   9627   9643     1   109.5800467 425.931200
   9635   9641   9642     1   107.2600461 396.643200
   9639   9635   9641     1   110.2600474 425.931200
   9639   9635   9640     1   108.4600466 328.025600
   9640   9635   9641     1   110.2600474 425.931200
   9644   9645   9647     1   109.5600471 388.275200
   9644   9658   9662     1   109.5600471 388.275200
   9644   9658   9663     1   109.5600471 388.275200
   9645   9644   9646     1   109.5600471 388.275200
   9645   9648   9652     1   109.5600471 388.275200
   9645   9657   9660     1   107.2600461 396.643200
   9646   9644   9658     1   109.5600471 388.275200
   9646   9644   9666     1   109.7800468 425.094400
   9647   9645   9648     1   109.5600471 388.275200
   9647   9645   9657     1   110.2600474 425.931200
   9648   9649   9651     1   109.5600471 388.275200
   9648   9656   9659     1   107.2600461 396.643200
   9649   9648   9652     1   109.5600471 388.275200
   9649   9650   9653     1   110.2200475 386.601600
   9649   9655   9661     1   107.2600461 396.643200
   9650   9649   9651     1   109.5600471 388.275200
   9651   9649   9655     1   110.2600474 425.931200
   9652   9648   9656     1   110.2600474 425.931200
   9653   9650   9654     1   109.5800467 425.931200
   9653   9650   9666     1   109.5800467 425.931200
   9658   9664   9665     1   107.2600461 396.643200
   9662   9658   9664     1   110.2600474 425.931200
   9662   9658   9663     1   108.4600466 328.025600
   9663   9658   9664     1   110.2600474 425.931200
   9667   9668   9670     1   109.5600471 388.275200
   9667   9681   9685     1   109.5600471 388.275200
   9667   9681   9686     1   109.5600471 388.275200
   9668   9671   9675     1   109.5600471 388.275200
   9668   9680   9683     1   107.2600461 396.643200
   9668   9667   9669     1   109.5600471 388.275200
   9669   9667   9681     1   109.5600471 388.275200
   9669   9667   9689     1   109.7800468 425.094400
   9670   9668   9671     1   109.5600471 388.275200
   9670   9668   9680     1   110.2600474 425.931200
   9671   9672   9674     1   109.5600471 388.275200
   9671   9679   9682     1   107.2600461 396.643200
   9672   9673   9676     1   110.2200475 386.601600
   9672   9678   9684     1   107.2600461 396.643200
   9672   9671   9675     1   109.5600471 388.275200
   9673   9672   9674     1   109.5600471 388.275200
   9674   9672   9678     1   110.2600474 425.931200
   9675   9671   9679     1   110.2600474 425.931200
   9676   9673   9677     1   109.5800467 425.931200
   9676   9673   9689     1   109.5800467 425.931200
   9681   9687   9688     1   107.2600461 396.643200
   9685   9681   9687     1   110.2600474 425.931200
   9685   9681   9686     1   108.4600466 328.025600
   9686   9681   9687     1   110.2600474 425.931200
   9690   9691   9693     1   109.5600471 388.275200
   9690   9704   9708     1   109.5600471 388.275200
   9690   9704   9709     1   109.5600471 388.275200
   9691   9690   9692     1   109.5600471 388.275200
   9691   9694   9698     1   109.5600471 388.275200
   9691   9703   9706     1   107.2600461 396.643200
   9692   9690   9704     1   109.5600471 388.275200
   9692   9690   9712     1   109.7800468 425.094400
   9693   9691   9694     1   109.5600471 388.275200
   9693   9691   9703     1   110.2600474 425.931200
   9694   9695   9697     1   109.5600471 388.275200
   9694   9702   9705     1   107.2600461 396.643200
   9695   9694   9698     1   109.5600471 388.275200
   9695   9696   9699     1   110.2200475 386.601600
   9695   9701   9707     1   107.2600461 396.643200
   9696   9695   9697     1   109.5600471 388.275200
   9697   9695   9701     1   110.2600474 425.931200
   9698   9694   9702     1   110.2600474 425.931200
   9699   9696   9700     1   109.5800467 425.931200
   9699   9696   9712     1   109.5800467 425.931200
   9704   9710   9711     1   107.2600461 396.643200
   9708   9704   9710     1   110.2600474 425.931200
   9708   9704   9709     1   108.4600466 328.025600
   9709   9704   9710     1   110.2600474 425.931200
   9713   9714   9716     1   109.5600471 388.275200
   9713   9727   9731     1   109.5600471 388.275200
   9713   9727   9732     1   109.5600471 388.275200
   9714   9717   9721     1   109.5600471 388.275200
   9714   9726   9729     1   107.2600461 396.643200
   9714   9713   9715     1   109.5600471 388.275200
   9715   9713   9727     1   109.5600471 388.275200
   9715   9713   9735     1   109.7800468 425.094400
   9716   9714   9717     1   109.5600471 388.275200
   9716   9714   9726     1   110.2600474 425.931200
   9717   9718   9720     1   109.5600471 388.275200
   9717   9725   9728     1   107.2600461 396.643200
   9718   9719   9722     1   110.2200475 386.601600
   9718   9724   9730     1   107.2600461 396.643200
   9718   9717   9721     1   109.5600471 388.275200
   9719   9718   9720     1   109.5600471 388.275200
   9720   9718   9724     1   110.2600474 425.931200
   9721   9717   9725     1   110.2600474 425.931200
   9722   9719   9723     1   109.5800467 425.931200
   9722   9719   9735     1   109.5800467 425.931200
   9727   9733   9734     1   107.2600461 396.643200
   9731   9727   9733     1   110.2600474 425.931200
   9731   9727   9732     1   108.4600466 328.025600
   9732   9727   9733     1   110.2600474 425.931200
   9736   9737   9739     1   109.5600471 388.275200
   9736   9750   9754     1   109.5600471 388.275200
   9736   9750   9755     1   109.5600471 388.275200
   9737   9736   9738     1   109.5600471 388.275200
   9737   9740   9744     1   109.5600471 388.275200
   9737   9749   9752     1   107.2600461 396.643200
   9738   9736   9750     1   109.5600471 388.275200
   9738   9736   9758     1   109.7800468 425.094400
   9739   9737   9740     1   109.5600471 388.275200
   9739   9737   9749     1   110.2600474 425.931200
   9740   9741   9743     1   109.5600471 388.275200
   9740   9748   9751     1   107.2600461 396.643200
   9741   9740   9744     1   109.5600471 388.275200
   9741   9742   9745     1   110.2200475 386.601600
   9741   9747   9753     1   107.2600461 396.643200
   9742   9741   9743     1   109.5600471 388.275200
   9743   9741   9747     1   110.2600474 425.931200
   9744   9740   9748     1   110.2600474 425.931200
   9745   9742   9746     1   109.5800467 425.931200
   9745   9742   9758     1   109.5800467 425.931200
   9750   9756   9757     1   107.2600461 396.643200
   9754   9750   9756     1   110.2600474 425.931200
   9754   9750   9755     1   108.4600466 328.025600
   9755   9750   9756     1   110.2600474 425.931200
   9759   9760   9762     1   109.5600471 388.275200
   9759   9773   9777     1   109.5600471 388.275200
   9759   9773   9778     1   109.5600471 388.275200
   9760   9763   9767     1   109.5600471 388.275200
   9760   9772   9775     1   107.2600461 396.643200
   9760   9759   9761     1   109.5600471 388.275200
   9761   9759   9773     1   109.5600471 388.275200
   9761   9759   9781     1   109.7800468 425.094400
   9762   9760   9763     1   109.5600471 388.275200
   9762   9760   9772     1   110.2600474 425.931200
   9763   9764   9766     1   109.5600471 388.275200
   9763   9771   9774     1   107.2600461 396.643200
   9764   9765   9768     1   110.2200475 386.601600
   9764   9770   9776     1   107.2600461 396.643200
   9764   9763   9767     1   109.5600471 388.275200
   9765   9764   9766     1   109.5600471 388.275200
   9766   9764   9770     1   110.2600474 425.931200
   9767   9763   9771     1   110.2600474 425.931200
   9768   9765   9769     1   109.5800467 425.931200
   9768   9765   9781     1   109.5800467 425.931200
   9773   9779   9780     1   107.2600461 396.643200
   9777   9773   9779     1   110.2600474 425.931200
   9777   9773   9778     1   108.4600466 328.025600
   9778   9773   9779     1   110.2600474 425.931200
   9782   9783   9785     1   109.5600471 388.275200
   9782   9796   9800     1   109.5600471 388.275200
   9782   9796   9801     1   109.5600471 388.275200
   9783   9782   9784     1   109.5600471 388.275200
   9783   9786   9790     1   109.5600471 388.275200
   9783   9795   9798     1   107.2600461 396.643200
   9784   9782   9796     1   109.5600471 388.275200
   9784   9782   9804     1   109.7800468 425.094400
   9785   9783   9786     1   109.5600471 388.275200
   9785   9783   9795     1   110.2600474 425.931200
   9786   9787   9789     1   109.5600471 388.275200
   9786   9794   9797     1   107.2600461 396.643200
   9787   9786   9790     1   109.5600471 388.275200
   9787   9788   9791     1   110.2200475 386.601600
   9787   9793   9799     1   107.2600461 396.643200
   9788   9787   9789     1   109.5600471 388.275200
   9789   9787   9793     1   110.2600474 425.931200
   9790   9786   9794     1   110.2600474 425.931200
   9791   9788   9792     1   109.5800467 425.931200
   9791   9788   9804     1   109.5800467 425.931200
   9796   9802   9803     1   107.2600461 396.643200
   9800   9796   9802     1   110.2600474 425.931200
   9800   9796   9801     1   108.4600466 328.025600
   9801   9796   9802     1   110.2600474 425.931200
   9805   9806   9808     1   109.5600471 388.275200
   9805   9819   9823     1   109.5600471 388.275200
   9805   9819   9824     1   109.5600471 388.275200
   9806   9809   9813     1   109.5600471 388.275200
   9806   9818   9821     1   107.2600461 396.643200
   9806   9805   9807     1   109.5600471 388.275200
   9807   9805   9819     1   109.5600471 388.275200
   9807   9805   9827     1   109.7800468 425.094400
   9808   9806   9809     1   109.5600471 388.275200
   9808   9806   9818     1   110.2600474 425.931200
   9809   9810   9812     1   109.5600471 388.275200
   9809   9817   9820     1   107.2600461 396.643200
   9810   9811   9814     1   110.2200475 386.601600
   9810   9816   9822     1   107.2600461 396.643200
   9810   9809   9813     1   109.5600471 388.275200
   9811   9810   9812     1   109.5600471 388.275200
   9812   9810   9816     1   110.2600474 425.931200
   9813   9809   9817     1   110.2600474 425.931200
   9814   9811   9815     1   109.5800467 425.931200
   9814   9811   9827     1   109.5800467 425.931200
   9819   9825   9826     1   107.2600461 396.643200
   9823   9819   9825     1   110.2600474 425.931200
   9823   9819   9824     1   108.4600466 328.025600
   9824   9819   9825     1   110.2600474 425.931200
   9828   9829   9831     1   109.5600471 388.275200
   9828   9842   9846     1   109.5600471 388.275200
   9828   9842   9847     1   109.5600471 388.275200
   9829   9828   9830     1   109.5600471 388.275200
   9829   9832   9836     1   109.5600471 388.275200
   9829   9841   9844     1   107.2600461 396.643200
   9830   9828   9842     1   109.5600471 388.275200
   9830   9828   9850     1   109.7800468 425.094400
   9831   9829   9832     1   109.5600471 388.275200
   9831   9829   9841     1   110.2600474 425.931200
   9832   9833   9835     1   109.5600471 388.275200
   9832   9840   9843     1   107.2600461 396.643200
   9833   9832   9836     1   109.5600471 388.275200
   9833   9834   9837     1   110.2200475 386.601600
   9833   9839   9845     1   107.2600461 396.643200
   9834   9833   9835     1   109.5600471 388.275200
   9835   9833   9839     1   110.2600474 425.931200
   9836   9832   9840     1   110.2600474 425.931200
   9837   9834   9838     1   109.5800467 425.931200
   9837   9834   9850     1   109.5800467 425.931200
   9842   9848   9849     1   107.2600461 396.643200
   9846   9842   9848     1   110.2600474 425.931200
   9846   9842   9847     1   108.4600466 328.025600
   9847   9842   9848     1   110.2600474 425.931200
   9851   9852   9854     1   109.5600471 388.275200
   9851   9865   9869     1   109.5600471 388.275200
   9851   9865   9870     1   109.5600471 388.275200
   9852   9855   9859     1   109.5600471 388.275200
   9852   9864   9867     1   107.2600461 396.643200
   9852   9851   9853     1   109.5600471 388.275200
   9853   9851   9865     1   109.5600471 388.275200
   9853   9851   9873     1   109.7800468 425.094400
   9854   9852   9855     1   109.5600471 388.275200
   9854   9852   9864     1   110.2600474 425.931200
   9855   9856   9858     1   109.5600471 388.275200
   9855   9863   9866     1   107.2600461 396.643200
   9856   9857   9860     1   110.2200475 386.601600
   9856   9862   9868     1   107.2600461 396.643200
   9856   9855   9859     1   109.5600471 388.275200
   9857   9856   9858     1   109.5600471 388.275200
   9858   9856   9862     1   110.2600474 425.931200
   9859   9855   9863     1   110.2600474 425.931200
   9860   9857   9861     1   109.5800467 425.931200
   9860   9857   9873     1   109.5800467 425.931200
   9865   9871   9872     1   107.2600461 396.643200
   9869   9865   9871     1   110.2600474 425.931200
   9869   9865   9870     1   108.4600466 328.025600
   9870   9865   9871     1   110.2600474 425.931200
   9874   9875   9877     1   109.5600471 388.275200
   9874   9888   9892     1   109.5600471 388.275200
   9874   9888   9893     1   109.5600471 388.275200
   9875   9874   9876     1   109.5600471 388.275200
   9875   9878   9882     1   109.5600471 388.275200
   9875   9887   9890     1   107.2600461 396.643200
   9876   9874   9888     1   109.5600471 388.275200
   9876   9874   9896     1   109.7800468 425.094400
   9877   9875   9878     1   109.5600471 388.275200
   9877   9875   9887     1   110.2600474 425.931200
   9878   9879   9881     1   109.5600471 388.275200
   9878   9886   9889     1   107.2600461 396.643200
   9879   9878   9882     1   109.5600471 388.275200
   9879   9880   9883     1   110.2200475 386.601600
   9879   9885   9891     1   107.2600461 396.643200
   9880   9879   9881     1   109.5600471 388.275200
   9881   9879   9885     1   110.2600474 425.931200
   9882   9878   9886     1   110.2600474 425.931200
   9883   9880   9884     1   109.5800467 425.931200
   9883   9880   9896     1   109.5800467 425.931200
   9888   9894   9895     1   107.2600461 396.643200
   9892   9888   9894     1   110.2600474 425.931200
   9892   9888   9893     1   108.4600466 328.025600
   9893   9888   9894     1   110.2600474 425.931200
   9897   9898   9900     1   109.5600471 388.275200
   9897   9911   9915     1   109.5600471 388.275200
   9897   9911   9916     1   109.5600471 388.275200
   9898   9901   9905     1   109.5600471 388.275200
   9898   9910   9913     1   107.2600461 396.643200
   9898   9897   9899     1   109.5600471 388.275200
   9899   9897   9911     1   109.5600471 388.275200
   9899   9897   9919     1   109.7800468 425.094400
   9900   9898   9901     1   109.5600471 388.275200
   9900   9898   9910     1   110.2600474 425.931200
   9901   9902   9904     1   109.5600471 388.275200
   9901   9909   9912     1   107.2600461 396.643200
   9902   9903   9906     1   110.2200475 386.601600
   9902   9908   9914     1   107.2600461 396.643200
   9902   9901   9905     1   109.5600471 388.275200
   9903   9902   9904     1   109.5600471 388.275200
   9904   9902   9908     1   110.2600474 425.931200
   9905   9901   9909     1   110.2600474 425.931200
   9906   9903   9907     1   109.5800467 425.931200
   9906   9903   9919     1   109.5800467 425.931200
   9911   9917   9918     1   107.2600461 396.643200
   9915   9911   9917     1   110.2600474 425.931200
   9915   9911   9916     1   108.4600466 328.025600
   9916   9911   9917     1   110.2600474 425.931200
   9920   9921   9923     1   109.5600471 388.275200
   9920   9934   9938     1   109.5600471 388.275200
   9920   9934   9939     1   109.5600471 388.275200
   9921   9920   9922     1   109.5600471 388.275200
   9921   9924   9928     1   109.5600471 388.275200
   9921   9933   9936     1   107.2600461 396.643200
   9922   9920   9934     1   109.5600471 388.275200
   9922   9920   9942     1   109.7800468 425.094400
   9923   9921   9924     1   109.5600471 388.275200
   9923   9921   9933     1   110.2600474 425.931200
   9924   9925   9927     1   109.5600471 388.275200
   9924   9932   9935     1   107.2600461 396.643200
   9925   9924   9928     1   109.5600471 388.275200
   9925   9926   9929     1   110.2200475 386.601600
   9925   9931   9937     1   107.2600461 396.643200
   9926   9925   9927     1   109.5600471 388.275200
   9927   9925   9931     1   110.2600474 425.931200
   9928   9924   9932     1   110.2600474 425.931200
   9929   9926   9930     1   109.5800467 425.931200
   9929   9926   9942     1   109.5800467 425.931200
   9934   9940   9941     1   107.2600461 396.643200
   9938   9934   9940     1   110.2600474 425.931200
   9938   9934   9939     1   108.4600466 328.025600
   9939   9934   9940     1   110.2600474 425.931200
   9943   9944   9946     1   109.5600471 388.275200
   9943   9957   9961     1   109.5600471 388.275200
   9943   9957   9962     1   109.5600471 388.275200
   9944   9947   9951     1   109.5600471 388.275200
   9944   9956   9959     1   107.2600461 396.643200
   9944   9943   9945     1   109.5600471 388.275200
   9945   9943   9957     1   109.5600471 388.275200
   9945   9943   9965     1   109.7800468 425.094400
   9946   9944   9947     1   109.5600471 388.275200
   9946   9944   9956     1   110.2600474 425.931200
   9947   9948   9950     1   109.5600471 388.275200
   9947   9955   9958     1   107.2600461 396.643200
   9948   9949   9952     1   110.2200475 386.601600
   9948   9954   9960     1   107.2600461 396.643200
   9948   9947   9951     1   109.5600471 388.275200
   9949   9948   9950     1   109.5600471 388.275200
   9950   9948   9954     1   110.2600474 425.931200
   9951   9947   9955     1   110.2600474 425.931200
   9952   9949   9953     1   109.5800467 425.931200
   9952   9949   9965     1   109.5800467 425.931200
   9957   9963   9964     1   107.2600461 396.643200
   9961   9957   9963     1   110.2600474 425.931200
   9961   9957   9962     1   108.4600466 328.025600
   9962   9957   9963     1   110.2600474 425.931200
   9966   9967   9969     1   109.5600471 388.275200
   9966   9980   9984     1   109.5600471 388.275200
   9966   9980   9985     1   109.5600471 388.275200
   9967   9966   9968     1   109.5600471 388.275200
   9967   9970   9974     1   109.5600471 388.275200
   9967   9979   9982     1   107.2600461 396.643200
   9968   9966   9980     1   109.5600471 388.275200
   9968   9966   9988     1   109.7800468 425.094400
   9969   9967   9970     1   109.5600471 388.275200
   9969   9967   9979     1   110.2600474 425.931200
   9970   9971   9973     1   109.5600471 388.275200
   9970   9978   9981     1   107.2600461 396.643200
   9971   9970   9974     1   109.5600471 388.275200
   9971   9972   9975     1   110.2200475 386.601600
   9971   9977   9983     1   107.2600461 396.643200
   9972   9971   9973     1   109.5600471 388.275200
   9973   9971   9977     1   110.2600474 425.931200
   9974   9970   9978     1   110.2600474 425.931200
   9975   9972   9976     1   109.5800467 425.931200
   9975   9972   9988     1   109.5800467 425.931200
   9980   9986   9987     1   107.2600461 396.643200
   9984   9980   9986     1   110.2600474 425.931200
   9984   9980   9985     1   108.4600466 328.025600
   9985   9980   9986     1   110.2600474 425.931200
   9989   9990   9992     1   109.5600471 388.275200
   9989  10003  10007     1   109.5600471 388.275200
   9989  10003  10008     1   109.5600471 388.275200
   9990   9993   9997     1   109.5600471 388.275200
   9990  10002  10005     1   107.2600461 396.643200
   9990   9989   9991     1   109.5600471 388.275200
   9991   9989  10003     1   109.5600471 388.275200
   9991   9989  10011     1   109.7800468 425.094400
   9992   9990   9993     1   109.5600471 388.275200
   9992   9990  10002     1   110.2600474 425.931200
   9993   9994   9996     1   109.5600471 388.275200
   9993  10001  10004     1   107.2600461 396.643200
   9994   9995   9998     1   110.2200475 386.601600
   9994  10000  10006     1   107.2600461 396.643200
   9994   9993   9997     1   109.5600471 388.275200
   9995   9994   9996     1   109.5600471 388.275200
   9996   9994  10000     1   110.2600474 425.931200
   9997   9993  10001     1   110.2600474 425.931200
   9998   9995   9999     1   109.5800467 425.931200
   9998   9995  10011     1   109.5800467 425.931200
  10003  10009  10010     1   107.2600461 396.643200
  10007  10003  10009     1   110.2600474 425.931200
  10007  10003  10008     1   108.4600466 328.025600
  10008  10003  10009     1   110.2600474 425.931200
  10012  10013  10015     1   109.5600471 388.275200
  10012  10026  10030     1   109.5600471 388.275200
  10012  10026  10031     1   109.5600471 388.275200
  10013  10012  10014     1   109.5600471 388.275200
  10013  10016  10020     1   109.5600471 388.275200
  10013  10025  10028     1   107.2600461 396.643200
  10014  10012  10026     1   109.5600471 388.275200
  10014  10012  10034     1   109.7800468 425.094400
  10015  10013  10016     1   109.5600471 388.275200
  10015  10013  10025     1   110.2600474 425.931200
  10016  10017  10019     1   109.5600471 388.275200
  10016  10024  10027     1   107.2600461 396.643200
  10017  10016  10020     1   109.5600471 388.275200
  10017  10018  10021     1   110.2200475 386.601600
  10017  10023  10029     1   107.2600461 396.643200
  10018  10017  10019     1   109.5600471 388.275200
  10019  10017  10023     1   110.2600474 425.931200
  10020  10016  10024     1   110.2600474 425.931200
  10021  10018  10022     1   109.5800467 425.931200
  10021  10018  10034     1   109.5800467 425.931200
  10026  10032  10033     1   107.2600461 396.643200
  10030  10026  10032     1   110.2600474 425.931200
  10030  10026  10031     1   108.4600466 328.025600
  10031  10026  10032     1   110.2600474 425.931200
  10035  10036  10038     1   109.5600471 388.275200
  10035  10049  10053     1   109.5600471 388.275200
  10035  10049  10054     1   109.5600471 388.275200
  10036  10039  10043     1   109.5600471 388.275200
  10036  10048  10051     1   107.2600461 396.643200
  10036  10035  10037     1   109.5600471 388.275200
  10037  10035  10049     1   109.5600471 388.275200
  10037  10035  10057     1   109.7800468 425.094400
  10038  10036  10039     1   109.5600471 388.275200
  10038  10036  10048     1   110.2600474 425.931200
  10039  10040  10042     1   109.5600471 388.275200
  10039  10047  10050     1   107.2600461 396.643200
  10040  10041  10044     1   110.2200475 386.601600
  10040  10046  10052     1   107.2600461 396.643200
  10040  10039  10043     1   109.5600471 388.275200
  10041  10040  10042     1   109.5600471 388.275200
  10042  10040  10046     1   110.2600474 425.931200
  10043  10039  10047     1   110.2600474 425.931200
  10044  10041  10045     1   109.5800467 425.931200
  10044  10041  10057     1   109.5800467 425.931200
  10049  10055  10056     1   107.2600461 396.643200
  10053  10049  10055     1   110.2600474 425.931200
  10053  10049  10054     1   108.4600466 328.025600
  10054  10049  10055     1   110.2600474 425.931200
  10058  10059  10061     1   109.5600471 388.275200
  10058  10072  10076     1   109.5600471 388.275200
  10058  10072  10077     1   109.5600471 388.275200
  10059  10058  10060     1   109.5600471 388.275200
  10059  10062  10066     1   109.5600471 388.275200
  10059  10071  10074     1   107.2600461 396.643200
  10060  10058  10072     1   109.5600471 388.275200
  10060  10058  10080     1   109.7800468 425.094400
  10061  10059  10062     1   109.5600471 388.275200
  10061  10059  10071     1   110.2600474 425.931200
  10062  10063  10065     1   109.5600471 388.275200
  10062  10070  10073     1   107.2600461 396.643200
  10063  10062  10066     1   109.5600471 388.275200
  10063  10064  10067     1   110.2200475 386.601600
  10063  10069  10075     1   107.2600461 396.643200
  10064  10063  10065     1   109.5600471 388.275200
  10065  10063  10069     1   110.2600474 425.931200
  10066  10062  10070     1   110.2600474 425.931200
  10067  10064  10068     1   109.5800467 425.931200
  10067  10064  10080     1   109.5800467 425.931200
  10072  10078  10079     1   107.2600461 396.643200
  10076  10072  10078     1   110.2600474 425.931200
  10076  10072  10077     1   108.4600466 328.025600
  10077  10072  10078     1   110.2600474 425.931200
  10081  10082  10084     1   109.5600471 388.275200
  10081  10095  10099     1   109.5600471 388.275200
  10081  10095  10100     1   109.5600471 388.275200
  10082  10085  10089     1   109.5600471 388.275200
  10082  10094  10097     1   107.2600461 396.643200
  10082  10081  10083     1   109.5600471 388.275200
  10083  10081  10095     1   109.5600471 388.275200
  10083  10081  10103     1   109.7800468 425.094400
  10084  10082  10085     1   109.5600471 388.275200
  10084  10082  10094     1   110.2600474 425.931200
  10085  10086  10088     1   109.5600471 388.275200
  10085  10093  10096     1   107.2600461 396.643200
  10086  10087  10090     1   110.2200475 386.601600
  10086  10092  10098     1   107.2600461 396.643200
  10086  10085  10089     1   109.5600471 388.275200
  10087  10086  10088     1   109.5600471 388.275200
  10088  10086  10092     1   110.2600474 425.931200
  10089  10085  10093     1   110.2600474 425.931200
  10090  10087  10091     1   109.5800467 425.931200
  10090  10087  10103     1   109.5800467 425.931200
  10095  10101  10102     1   107.2600461 396.643200
  10099  10095  10101     1   110.2600474 425.931200
  10099  10095  10100     1   108.4600466 328.025600
  10100  10095  10101     1   110.2600474 425.931200
  10104  10105  10107     1   109.5600471 388.275200
  10104  10118  10122     1   109.5600471 388.275200
  10104  10118  10123     1   109.5600471 388.275200
  10105  10104  10106     1   109.5600471 388.275200
  10105  10108  10112     1   109.5600471 388.275200
  10105  10117  10120     1   107.2600461 396.643200
  10106  10104  10118     1   109.5600471 388.275200
  10106  10104  10126     1   109.7800468 425.094400
  10107  10105  10108     1   109.5600471 388.275200
  10107  10105  10117     1   110.2600474 425.931200
  10108  10109  10111     1   109.5600471 388.275200
  10108  10116  10119     1   107.2600461 396.643200
  10109  10108  10112     1   109.5600471 388.275200
  10109  10110  10113     1   110.2200475 386.601600
  10109  10115  10121     1   107.2600461 396.643200
  10110  10109  10111     1   109.5600471 388.275200
  10111  10109  10115     1   110.2600474 425.931200
  10112  10108  10116     1   110.2600474 425.931200
  10113  10110  10114     1   109.5800467 425.931200
  10113  10110  10126     1   109.5800467 425.931200
  10118  10124  10125     1   107.2600461 396.643200
  10122  10118  10124     1   110.2600474 425.931200
  10122  10118  10123     1   108.4600466 328.025600
  10123  10118  10124     1   110.2600474 425.931200
  10127  10128  10130     1   109.5600471 388.275200
  10127  10141  10145     1   109.5600471 388.275200
  10127  10141  10146     1   109.5600471 388.275200
  10128  10131  10135     1   109.5600471 388.275200
  10128  10140  10143     1   107.2600461 396.643200
  10128  10127  10129     1   109.5600471 388.275200
  10129  10127  10141     1   109.5600471 388.275200
  10129  10127  10149     1   109.7800468 425.094400
  10130  10128  10131     1   109.5600471 388.275200
  10130  10128  10140     1   110.2600474 425.931200
  10131  10132  10134     1   109.5600471 388.275200
  10131  10139  10142     1   107.2600461 396.643200
  10132  10133  10136     1   110.2200475 386.601600
  10132  10138  10144     1   107.2600461 396.643200
  10132  10131  10135     1   109.5600471 388.275200
  10133  10132  10134     1   109.5600471 388.275200
  10134  10132  10138     1   110.2600474 425.931200
  10135  10131  10139     1   110.2600474 425.931200
  10136  10133  10137     1   109.5800467 425.931200
  10136  10133  10149     1   109.5800467 425.931200
  10141  10147  10148     1   107.2600461 396.643200
  10145  10141  10147     1   110.2600474 425.931200
  10145  10141  10146     1   108.4600466 328.025600
  10146  10141  10147     1   110.2600474 425.931200
  10150  10151  10153     1   109.5600471 388.275200
  10150  10164  10168     1   109.5600471 388.275200
  10150  10164  10169     1   109.5600471 388.275200
  10151  10150  10152     1   109.5600471 388.275200
  10151  10154  10158     1   109.5600471 388.275200
  10151  10163  10166     1   107.2600461 396.643200
  10152  10150  10164     1   109.5600471 388.275200
  10152  10150  10172     1   109.7800468 425.094400
  10153  10151  10154     1   109.5600471 388.275200
  10153  10151  10163     1   110.2600474 425.931200
  10154  10155  10157     1   109.5600471 388.275200
  10154  10162  10165     1   107.2600461 396.643200
  10155  10154  10158     1   109.5600471 388.275200
  10155  10156  10159     1   110.2200475 386.601600
  10155  10161  10167     1   107.2600461 396.643200
  10156  10155  10157     1   109.5600471 388.275200
  10157  10155  10161     1   110.2600474 425.931200
  10158  10154  10162     1   110.2600474 425.931200
  10159  10156  10160     1   109.5800467 425.931200
  10159  10156  10172     1   109.5800467 425.931200
  10164  10170  10171     1   107.2600461 396.643200
  10168  10164  10170     1   110.2600474 425.931200
  10168  10164  10169     1   108.4600466 328.025600
  10169  10164  10170     1   110.2600474 425.931200
  10173  10174  10176     1   109.5600471 388.275200
  10173  10187  10191     1   109.5600471 388.275200
  10173  10187  10192     1   109.5600471 388.275200
  10174  10177  10181     1   109.5600471 388.275200
  10174  10186  10189     1   107.2600461 396.643200
  10174  10173  10175     1   109.5600471 388.275200
  10175  10173  10187     1   109.5600471 388.275200
  10175  10173  10195     1   109.7800468 425.094400
  10176  10174  10177     1   109.5600471 388.275200
  10176  10174  10186     1   110.2600474 425.931200
  10177  10178  10180     1   109.5600471 388.275200
  10177  10185  10188     1   107.2600461 396.643200
  10178  10179  10182     1   110.2200475 386.601600
  10178  10184  10190     1   107.2600461 396.643200
  10178  10177  10181     1   109.5600471 388.275200
  10179  10178  10180     1   109.5600471 388.275200
  10180  10178  10184     1   110.2600474 425.931200
  10181  10177  10185     1   110.2600474 425.931200
  10182  10179  10183     1   109.5800467 425.931200
  10182  10179  10195     1   109.5800467 425.931200
  10187  10193  10194     1   107.2600461 396.643200
  10191  10187  10193     1   110.2600474 425.931200
  10191  10187  10192     1   108.4600466 328.025600
  10192  10187  10193     1   110.2600474 425.931200
  10196  10197  10199     1   109.5600471 388.275200
  10196  10210  10214     1   109.5600471 388.275200
  10196  10210  10215     1   109.5600471 388.275200
  10197  10196  10198     1   109.5600471 388.275200
  10197  10200  10204     1   109.5600471 388.275200
  10197  10209  10212     1   107.2600461 396.643200
  10198  10196  10210     1   109.5600471 388.275200
  10198  10196  10218     1   109.7800468 425.094400
  10199  10197  10200     1   109.5600471 388.275200
  10199  10197  10209     1   110.2600474 425.931200
  10200  10201  10203     1   109.5600471 388.275200
  10200  10208  10211     1   107.2600461 396.643200
  10201  10200  10204     1   109.5600471 388.275200
  10201  10202  10205     1   110.2200475 386.601600
  10201  10207  10213     1   107.2600461 396.643200
  10202  10201  10203     1   109.5600471 388.275200
  10203  10201  10207     1   110.2600474 425.931200
  10204  10200  10208     1   110.2600474 425.931200
  10205  10202  10206     1   109.5800467 425.931200
  10205  10202  10218     1   109.5800467 425.931200
  10210  10216  10217     1   107.2600461 396.643200
  10214  10210  10216     1   110.2600474 425.931200
  10214  10210  10215     1   108.4600466 328.025600
  10215  10210  10216     1   110.2600474 425.931200
  10219  10220  10222     1   109.5600471 388.275200
  10219  10233  10237     1   109.5600471 388.275200
  10219  10233  10238     1   109.5600471 388.275200
  10220  10223  10227     1   109.5600471 388.275200
  10220  10232  10235     1   107.2600461 396.643200
  10220  10219  10221     1   109.5600471 388.275200
  10221  10219  10233     1   109.5600471 388.275200
  10221  10219  10241     1   109.7800468 425.094400
  10222  10220  10223     1   109.5600471 388.275200
  10222  10220  10232     1   110.2600474 425.931200
  10223  10224  10226     1   109.5600471 388.275200
  10223  10231  10234     1   107.2600461 396.643200
  10224  10225  10228     1   110.2200475 386.601600
  10224  10230  10236     1   107.2600461 396.643200
  10224  10223  10227     1   109.5600471 388.275200
  10225  10224  10226     1   109.5600471 388.275200
  10226  10224  10230     1   110.2600474 425.931200
  10227  10223  10231     1   110.2600474 425.931200
  10228  10225  10229     1   109.5800467 425.931200
  10228  10225  10241     1   109.5800467 425.931200
  10233  10239  10240     1   107.2600461 396.643200
  10237  10233  10239     1   110.2600474 425.931200
  10237  10233  10238     1   108.4600466 328.025600
  10238  10233  10239     1   110.2600474 425.931200
  10242  10243  10245     1   109.5600471 388.275200
  10242  10256  10260     1   109.5600471 388.275200
  10242  10256  10261     1   109.5600471 388.275200
  10243  10242  10244     1   109.5600471 388.275200
  10243  10246  10250     1   109.5600471 388.275200
  10243  10255  10258     1   107.2600461 396.643200
  10244  10242  10256     1   109.5600471 388.275200
  10244  10242  10264     1   109.7800468 425.094400
  10245  10243  10246     1   109.5600471 388.275200
  10245  10243  10255     1   110.2600474 425.931200
  10246  10247  10249     1   109.5600471 388.275200
  10246  10254  10257     1   107.2600461 396.643200
  10247  10246  10250     1   109.5600471 388.275200
  10247  10248  10251     1   110.2200475 386.601600
  10247  10253  10259     1   107.2600461 396.643200
  10248  10247  10249     1   109.5600471 388.275200
  10249  10247  10253     1   110.2600474 425.931200
  10250  10246  10254     1   110.2600474 425.931200
  10251  10248  10252     1   109.5800467 425.931200
  10251  10248  10264     1   109.5800467 425.931200
  10256  10262  10263     1   107.2600461 396.643200
  10260  10256  10262     1   110.2600474 425.931200
  10260  10256  10261     1   108.4600466 328.025600
  10261  10256  10262     1   110.2600474 425.931200
  10265  10266  10268     1   109.5600471 388.275200
  10265  10279  10283     1   109.5600471 388.275200
  10265  10279  10284     1   109.5600471 388.275200
  10266  10269  10273     1   109.5600471 388.275200
  10266  10278  10281     1   107.2600461 396.643200
  10266  10265  10267     1   109.5600471 388.275200
  10267  10265  10279     1   109.5600471 388.275200
  10267  10265  10287     1   109.7800468 425.094400
  10268  10266  10269     1   109.5600471 388.275200
  10268  10266  10278     1   110.2600474 425.931200
  10269  10270  10272     1   109.5600471 388.275200
  10269  10277  10280     1   107.2600461 396.643200
  10270  10271  10274     1   110.2200475 386.601600
  10270  10276  10282     1   107.2600461 396.643200
  10270  10269  10273     1   109.5600471 388.275200
  10271  10270  10272     1   109.5600471 388.275200
  10272  10270  10276     1   110.2600474 425.931200
  10273  10269  10277     1   110.2600474 425.931200
  10274  10271  10275     1   109.5800467 425.931200
  10274  10271  10287     1   109.5800467 425.931200
  10279  10285  10286     1   107.2600461 396.643200
  10283  10279  10285     1   110.2600474 425.931200
  10283  10279  10284     1   108.4600466 328.025600
  10284  10279  10285     1   110.2600474 425.931200
  10288  10289  10291     1   109.5600471 388.275200
  10288  10302  10306     1   109.5600471 388.275200
  10288  10302  10307     1   109.5600471 388.275200
  10289  10288  10290     1   109.5600471 388.275200
  10289  10292  10296     1   109.5600471 388.275200
  10289  10301  10304     1   107.2600461 396.643200
  10290  10288  10302     1   109.5600471 388.275200
  10290  10288  10310     1   109.7800468 425.094400
  10291  10289  10292     1   109.5600471 388.275200
  10291  10289  10301     1   110.2600474 425.931200
  10292  10293  10295     1   109.5600471 388.275200
  10292  10300  10303     1   107.2600461 396.643200
  10293  10292  10296     1   109.5600471 388.275200
  10293  10294  10297     1   110.2200475 386.601600
  10293  10299  10305     1   107.2600461 396.643200
  10294  10293  10295     1   109.5600471 388.275200
  10295  10293  10299     1   110.2600474 425.931200
  10296  10292  10300     1   110.2600474 425.931200
  10297  10294  10298     1   109.5800467 425.931200
  10297  10294  10310     1   109.5800467 425.931200
  10302  10308  10309     1   107.2600461 396.643200
  10306  10302  10308     1   110.2600474 425.931200
  10306  10302  10307     1   108.4600466 328.025600
  10307  10302  10308     1   110.2600474 425.931200
  10311  10312  10314     1   109.5600471 388.275200
  10311  10325  10329     1   109.5600471 388.275200
  10311  10325  10330     1   109.5600471 388.275200
  10312  10315  10319     1   109.5600471 388.275200
  10312  10324  10327     1   107.2600461 396.643200
  10312  10311  10313     1   109.5600471 388.275200
  10313  10311  10325     1   109.5600471 388.275200
  10313  10311  10333     1   109.7800468 425.094400
  10314  10312  10315     1   109.5600471 388.275200
  10314  10312  10324     1   110.2600474 425.931200
  10315  10316  10318     1   109.5600471 388.275200
  10315  10323  10326     1   107.2600461 396.643200
  10316  10317  10320     1   110.2200475 386.601600
  10316  10322  10328     1   107.2600461 396.643200
  10316  10315  10319     1   109.5600471 388.275200
  10317  10316  10318     1   109.5600471 388.275200
  10318  10316  10322     1   110.2600474 425.931200
  10319  10315  10323     1   110.2600474 425.931200
  10320  10317  10321     1   109.5800467 425.931200
  10320  10317  10333     1   109.5800467 425.931200
  10325  10331  10332     1   107.2600461 396.643200
  10329  10325  10331     1   110.2600474 425.931200
  10329  10325  10330     1   108.4600466 328.025600
  10330  10325  10331     1   110.2600474 425.931200
  10334  10335  10337     1   109.5600471 388.275200
  10334  10348  10352     1   109.5600471 388.275200
  10334  10348  10353     1   109.5600471 388.275200
  10335  10334  10336     1   109.5600471 388.275200
  10335  10338  10342     1   109.5600471 388.275200
  10335  10347  10350     1   107.2600461 396.643200
  10336  10334  10348     1   109.5600471 388.275200
  10336  10334  10356     1   109.7800468 425.094400
  10337  10335  10338     1   109.5600471 388.275200
  10337  10335  10347     1   110.2600474 425.931200
  10338  10339  10341     1   109.5600471 388.275200
  10338  10346  10349     1   107.2600461 396.643200
  10339  10338  10342     1   109.5600471 388.275200
  10339  10340  10343     1   110.2200475 386.601600
  10339  10345  10351     1   107.2600461 396.643200
  10340  10339  10341     1   109.5600471 388.275200
  10341  10339  10345     1   110.2600474 425.931200
  10342  10338  10346     1   110.2600474 425.931200
  10343  10340  10344     1   109.5800467 425.931200
  10343  10340  10356     1   109.5800467 425.931200
  10348  10354  10355     1   107.2600461 396.643200
  10352  10348  10354     1   110.2600474 425.931200
  10352  10348  10353     1   108.4600466 328.025600
  10353  10348  10354     1   110.2600474 425.931200
  10357  10358  10360     1   109.5600471 388.275200
  10357  10371  10375     1   109.5600471 388.275200
  10357  10371  10376     1   109.5600471 388.275200
  10358  10361  10365     1   109.5600471 388.275200
  10358  10370  10373     1   107.2600461 396.643200
  10358  10357  10359     1   109.5600471 388.275200
  10359  10357  10371     1   109.5600471 388.275200
  10359  10357  10379     1   109.7800468 425.094400
  10360  10358  10361     1   109.5600471 388.275200
  10360  10358  10370     1   110.2600474 425.931200
  10361  10362  10364     1   109.5600471 388.275200
  10361  10369  10372     1   107.2600461 396.643200
  10362  10363  10366     1   110.2200475 386.601600
  10362  10368  10374     1   107.2600461 396.643200
  10362  10361  10365     1   109.5600471 388.275200
  10363  10362  10364     1   109.5600471 388.275200
  10364  10362  10368     1   110.2600474 425.931200
  10365  10361  10369     1   110.2600474 425.931200
  10366  10363  10367     1   109.5800467 425.931200
  10366  10363  10379     1   109.5800467 425.931200
  10371  10377  10378     1   107.2600461 396.643200
  10375  10371  10377     1   110.2600474 425.931200
  10375  10371  10376     1   108.4600466 328.025600
  10376  10371  10377     1   110.2600474 425.931200
  10380  10381  10383     1   109.5600471 388.275200
  10380  10394  10398     1   109.5600471 388.275200
  10380  10394  10399     1   109.5600471 388.275200
  10381  10380  10382     1   109.5600471 388.275200
  10381  10384  10388     1   109.5600471 388.275200
  10381  10393  10396     1   107.2600461 396.643200
  10382  10380  10394     1   109.5600471 388.275200
  10382  10380  10402     1   109.7800468 425.094400
  10383  10381  10384     1   109.5600471 388.275200
  10383  10381  10393     1   110.2600474 425.931200
  10384  10385  10387     1   109.5600471 388.275200
  10384  10392  10395     1   107.2600461 396.643200
  10385  10384  10388     1   109.5600471 388.275200
  10385  10386  10389     1   110.2200475 386.601600
  10385  10391  10397     1   107.2600461 396.643200
  10386  10385  10387     1   109.5600471 388.275200
  10387  10385  10391     1   110.2600474 425.931200
  10388  10384  10392     1   110.2600474 425.931200
  10389  10386  10390     1   109.5800467 425.931200
  10389  10386  10402     1   109.5800467 425.931200
  10394  10400  10401     1   107.2600461 396.643200
  10398  10394  10400     1   110.2600474 425.931200
  10398  10394  10399     1   108.4600466 328.025600
  10399  10394  10400     1   110.2600474 425.931200
  10403  10404  10406     1   109.5600471 388.275200
  10403  10417  10421     1   109.5600471 388.275200
  10403  10417  10422     1   109.5600471 388.275200
  10404  10407  10411     1   109.5600471 388.275200
  10404  10416  10419     1   107.2600461 396.643200
  10404  10403  10405     1   109.5600471 388.275200
  10405  10403  10417     1   109.5600471 388.275200
  10405  10403  10425     1   109.7800468 425.094400
  10406  10404  10407     1   109.5600471 388.275200
  10406  10404  10416     1   110.2600474 425.931200
  10407  10408  10410     1   109.5600471 388.275200
  10407  10415  10418     1   107.2600461 396.643200
  10408  10409  10412     1   110.2200475 386.601600
  10408  10414  10420     1   107.2600461 396.643200
  10408  10407  10411     1   109.5600471 388.275200
  10409  10408  10410     1   109.5600471 388.275200
  10410  10408  10414     1   110.2600474 425.931200
  10411  10407  10415     1   110.2600474 425.931200
  10412  10409  10413     1   109.5800467 425.931200
  10412  10409  10425     1   109.5800467 425.931200
  10417  10423  10424     1   107.2600461 396.643200
  10421  10417  10423     1   110.2600474 425.931200
  10421  10417  10422     1   108.4600466 328.025600
  10422  10417  10423     1   110.2600474 425.931200
  10426  10427  10429     1   109.5600471 388.275200
  10426  10440  10444     1   109.5600471 388.275200
  10426  10440  10445     1   109.5600471 388.275200
  10427  10426  10428     1   109.5600471 388.275200
  10427  10430  10434     1   109.5600471 388.275200
  10427  10439  10442     1   107.2600461 396.643200
  10428  10426  10440     1   109.5600471 388.275200
  10428  10426  10448     1   109.7800468 425.094400
  10429  10427  10430     1   109.5600471 388.275200
  10429  10427  10439     1   110.2600474 425.931200
  10430  10431  10433     1   109.5600471 388.275200
  10430  10438  10441     1   107.2600461 396.643200
  10431  10430  10434     1   109.5600471 388.275200
  10431  10432  10435     1   110.2200475 386.601600
  10431  10437  10443     1   107.2600461 396.643200
  10432  10431  10433     1   109.5600471 388.275200
  10433  10431  10437     1   110.2600474 425.931200
  10434  10430  10438     1   110.2600474 425.931200
  10435  10432  10436     1   109.5800467 425.931200
  10435  10432  10448     1   109.5800467 425.931200
  10440  10446  10447     1   107.2600461 396.643200
  10444  10440  10446     1   110.2600474 425.931200
  10444  10440  10445     1   108.4600466 328.025600
  10445  10440  10446     1   110.2600474 425.931200
  10449  10450  10452     1   109.5600471 388.275200
  10449  10463  10467     1   109.5600471 388.275200
  10449  10463  10468     1   109.5600471 388.275200
  10450  10453  10457     1   109.5600471 388.275200
  10450  10462  10465     1   107.2600461 396.643200
  10450  10449  10451     1   109.5600471 388.275200
  10451  10449  10463     1   109.5600471 388.275200
  10451  10449  10471     1   109.7800468 425.094400
  10452  10450  10453     1   109.5600471 388.275200
  10452  10450  10462     1   110.2600474 425.931200
  10453  10454  10456     1   109.5600471 388.275200
  10453  10461  10464     1   107.2600461 396.643200
  10454  10455  10458     1   110.2200475 386.601600
  10454  10460  10466     1   107.2600461 396.643200
  10454  10453  10457     1   109.5600471 388.275200
  10455  10454  10456     1   109.5600471 388.275200
  10456  10454  10460     1   110.2600474 425.931200
  10457  10453  10461     1   110.2600474 425.931200
  10458  10455  10459     1   109.5800467 425.931200
  10458  10455  10471     1   109.5800467 425.931200
  10463  10469  10470     1   107.2600461 396.643200
  10467  10463  10469     1   110.2600474 425.931200
  10467  10463  10468     1   108.4600466 328.025600
  10468  10463  10469     1   110.2600474 425.931200
  10472  10473  10475     1   109.5600471 388.275200
  10472  10486  10490     1   109.5600471 388.275200
  10472  10486  10491     1   109.5600471 388.275200
  10473  10472  10474     1   109.5600471 388.275200
  10473  10476  10480     1   109.5600471 388.275200
  10473  10485  10488     1   107.2600461 396.643200
  10474  10472  10486     1   109.5600471 388.275200
  10474  10472  10494     1   109.7800468 425.094400
  10475  10473  10476     1   109.5600471 388.275200
  10475  10473  10485     1   110.2600474 425.931200
  10476  10477  10479     1   109.5600471 388.275200
  10476  10484  10487     1   107.2600461 396.643200
  10477  10476  10480     1   109.5600471 388.275200
  10477  10478  10481     1   110.2200475 386.601600
  10477  10483  10489     1   107.2600461 396.643200
  10478  10477  10479     1   109.5600471 388.275200
  10479  10477  10483     1   110.2600474 425.931200
  10480  10476  10484     1   110.2600474 425.931200
  10481  10478  10482     1   109.5800467 425.931200
  10481  10478  10494     1   109.5800467 425.931200
  10486  10492  10493     1   107.2600461 396.643200
  10490  10486  10492     1   110.2600474 425.931200
  10490  10486  10491     1   108.4600466 328.025600
  10491  10486  10492     1   110.2600474 425.931200
  10495  10496  10498     1   109.5600471 388.275200
  10495  10509  10513     1   109.5600471 388.275200
  10495  10509  10514     1   109.5600471 388.275200
  10496  10499  10503     1   109.5600471 388.275200
  10496  10508  10511     1   107.2600461 396.643200
  10496  10495  10497     1   109.5600471 388.275200
  10497  10495  10509     1   109.5600471 388.275200
  10497  10495  10517     1   109.7800468 425.094400
  10498  10496  10499     1   109.5600471 388.275200
  10498  10496  10508     1   110.2600474 425.931200
  10499  10500  10502     1   109.5600471 388.275200
  10499  10507  10510     1   107.2600461 396.643200
  10500  10501  10504     1   110.2200475 386.601600
  10500  10506  10512     1   107.2600461 396.643200
  10500  10499  10503     1   109.5600471 388.275200
  10501  10500  10502     1   109.5600471 388.275200
  10502  10500  10506     1   110.2600474 425.931200
  10503  10499  10507     1   110.2600474 425.931200
  10504  10501  10505     1   109.5800467 425.931200
  10504  10501  10517     1   109.5800467 425.931200
  10509  10515  10516     1   107.2600461 396.643200
  10513  10509  10515     1   110.2600474 425.931200
  10513  10509  10514     1   108.4600466 328.025600
  10514  10509  10515     1   110.2600474 425.931200
  10518  10519  10521     1   109.5600471 388.275200
  10518  10532  10536     1   109.5600471 388.275200
  10518  10532  10537     1   109.5600471 388.275200
  10519  10518  10520     1   109.5600471 388.275200
  10519  10522  10526     1   109.5600471 388.275200
  10519  10531  10534     1   107.2600461 396.643200
  10520  10518  10532     1   109.5600471 388.275200
  10520  10518  10540     1   109.7800468 425.094400
  10521  10519  10522     1   109.5600471 388.275200
  10521  10519  10531     1   110.2600474 425.931200
  10522  10523  10525     1   109.5600471 388.275200
  10522  10530  10533     1   107.2600461 396.643200
  10523  10522  10526     1   109.5600471 388.275200
  10523  10524  10527     1   110.2200475 386.601600
  10523  10529  10535     1   107.2600461 396.643200
  10524  10523  10525     1   109.5600471 388.275200
  10525  10523  10529     1   110.2600474 425.931200
  10526  10522  10530     1   110.2600474 425.931200
  10527  10524  10528     1   109.5800467 425.931200
  10527  10524  10540     1   109.5800467 425.931200
  10532  10538  10539     1   107.2600461 396.643200
  10536  10532  10538     1   110.2600474 425.931200
  10536  10532  10537     1   108.4600466 328.025600
  10537  10532  10538     1   110.2600474 425.931200
  10541  10542  10544     1   109.5600471 388.275200
  10541  10555  10559     1   109.5600471 388.275200
  10541  10555  10560     1   109.5600471 388.275200
  10542  10545  10549     1   109.5600471 388.275200
  10542  10554  10557     1   107.2600461 396.643200
  10542  10541  10543     1   109.5600471 388.275200
  10543  10541  10555     1   109.5600471 388.275200
  10543  10541  10563     1   109.7800468 425.094400
  10544  10542  10545     1   109.5600471 388.275200
  10544  10542  10554     1   110.2600474 425.931200
  10545  10546  10548     1   109.5600471 388.275200
  10545  10553  10556     1   107.2600461 396.643200
  10546  10547  10550     1   110.2200475 386.601600
  10546  10552  10558     1   107.2600461 396.643200
  10546  10545  10549     1   109.5600471 388.275200
  10547  10546  10548     1   109.5600471 388.275200
  10548  10546  10552     1   110.2600474 425.931200
  10549  10545  10553     1   110.2600474 425.931200
  10550  10547  10551     1   109.5800467 425.931200
  10550  10547  10563     1   109.5800467 425.931200
  10555  10561  10562     1   107.2600461 396.643200
  10559  10555  10561     1   110.2600474 425.931200
  10559  10555  10560     1   108.4600466 328.025600
  10560  10555  10561     1   110.2600474 425.931200
  10564  10565  10567     1   109.5600471 388.275200
  10564  10578  10582     1   109.5600471 388.275200
  10564  10578  10583     1   109.5600471 388.275200
  10565  10564  10566     1   109.5600471 388.275200
  10565  10568  10572     1   109.5600471 388.275200
  10565  10577  10580     1   107.2600461 396.643200
  10566  10564  10578     1   109.5600471 388.275200
  10566  10564  10586     1   109.7800468 425.094400
  10567  10565  10568     1   109.5600471 388.275200
  10567  10565  10577     1   110.2600474 425.931200
  10568  10569  10571     1   109.5600471 388.275200
  10568  10576  10579     1   107.2600461 396.643200
  10569  10568  10572     1   109.5600471 388.275200
  10569  10570  10573     1   110.2200475 386.601600
  10569  10575  10581     1   107.2600461 396.643200
  10570  10569  10571     1   109.5600471 388.275200
  10571  10569  10575     1   110.2600474 425.931200
  10572  10568  10576     1   110.2600474 425.931200
  10573  10570  10574     1   109.5800467 425.931200
  10573  10570  10586     1   109.5800467 425.931200
  10578  10584  10585     1   107.2600461 396.643200
  10582  10578  10584     1   110.2600474 425.931200
  10582  10578  10583     1   108.4600466 328.025600
  10583  10578  10584     1   110.2600474 425.931200
  10587  10588  10590     1   109.5600471 388.275200
  10587  10601  10605     1   109.5600471 388.275200
  10587  10601  10606     1   109.5600471 388.275200
  10588  10591  10595     1   109.5600471 388.275200
  10588  10600  10603     1   107.2600461 396.643200
  10588  10587  10589     1   109.5600471 388.275200
  10589  10587  10601     1   109.5600471 388.275200
  10589  10587  10609     1   109.7800468 425.094400
  10590  10588  10591     1   109.5600471 388.275200
  10590  10588  10600     1   110.2600474 425.931200
  10591  10592  10594     1   109.5600471 388.275200
  10591  10599  10602     1   107.2600461 396.643200
  10592  10593  10596     1   110.2200475 386.601600
  10592  10598  10604     1   107.2600461 396.643200
  10592  10591  10595     1   109.5600471 388.275200
  10593  10592  10594     1   109.5600471 388.275200
  10594  10592  10598     1   110.2600474 425.931200
  10595  10591  10599     1   110.2600474 425.931200
  10596  10593  10597     1   109.5800467 425.931200
  10596  10593  10609     1   109.5800467 425.931200
  10601  10607  10608     1   107.2600461 396.643200
  10605  10601  10607     1   110.2600474 425.931200
  10605  10601  10606     1   108.4600466 328.025600
  10606  10601  10607     1   110.2600474 425.931200
  10610  10611  10613     1   109.5600471 388.275200
  10610  10624  10628     1   109.5600471 388.275200
  10610  10624  10629     1   109.5600471 388.275200
  10611  10610  10612     1   109.5600471 388.275200
  10611  10614  10618     1   109.5600471 388.275200
  10611  10623  10626     1   107.2600461 396.643200
  10612  10610  10624     1   109.5600471 388.275200
  10612  10610  10632     1   109.7800468 425.094400
  10613  10611  10614     1   109.5600471 388.275200
  10613  10611  10623     1   110.2600474 425.931200
  10614  10615  10617     1   109.5600471 388.275200
  10614  10622  10625     1   107.2600461 396.643200
  10615  10614  10618     1   109.5600471 388.275200
  10615  10616  10619     1   110.2200475 386.601600
  10615  10621  10627     1   107.2600461 396.643200
  10616  10615  10617     1   109.5600471 388.275200
  10617  10615  10621     1   110.2600474 425.931200
  10618  10614  10622     1   110.2600474 425.931200
  10619  10616  10620     1   109.5800467 425.931200
  10619  10616  10632     1   109.5800467 425.931200
  10624  10630  10631     1   107.2600461 396.643200
  10628  10624  10630     1   110.2600474 425.931200
  10628  10624  10629     1   108.4600466 328.025600
  10629  10624  10630     1   110.2600474 425.931200
  10633  10634  10636     1   109.5600471 388.275200
  10633  10647  10651     1   109.5600471 388.275200
  10633  10647  10652     1   109.5600471 388.275200
  10634  10637  10641     1   109.5600471 388.275200
  10634  10646  10649     1   107.2600461 396.643200
  10634  10633  10635     1   109.5600471 388.275200
  10635  10633  10647     1   109.5600471 388.275200
  10635  10633  10655     1   109.7800468 425.094400
  10636  10634  10637     1   109.5600471 388.275200
  10636  10634  10646     1   110.2600474 425.931200
  10637  10638  10640     1   109.5600471 388.275200
  10637  10645  10648     1   107.2600461 396.643200
  10638  10639  10642     1   110.2200475 386.601600
  10638  10644  10650     1   107.2600461 396.643200
  10638  10637  10641     1   109.5600471 388.275200
  10639  10638  10640     1   109.5600471 388.275200
  10640  10638  10644     1   110.2600474 425.931200
  10641  10637  10645     1   110.2600474 425.931200
  10642  10639  10643     1   109.5800467 425.931200
  10642  10639  10655     1   109.5800467 425.931200
  10647  10653  10654     1   107.2600461 396.643200
  10651  10647  10653     1   110.2600474 425.931200
  10651  10647  10652     1   108.4600466 328.025600
  10652  10647  10653     1   110.2600474 425.931200
  10656  10657  10659     1   109.5600471 388.275200
  10656  10670  10674     1   109.5600471 388.275200
  10656  10670  10675     1   109.5600471 388.275200
  10657  10656  10658     1   109.5600471 388.275200
  10657  10660  10664     1   109.5600471 388.275200
  10657  10669  10672     1   107.2600461 396.643200
  10658  10656  10670     1   109.5600471 388.275200
  10658  10656  10678     1   109.7800468 425.094400
  10659  10657  10660     1   109.5600471 388.275200
  10659  10657  10669     1   110.2600474 425.931200
  10660  10661  10663     1   109.5600471 388.275200
  10660  10668  10671     1   107.2600461 396.643200
  10661  10660  10664     1   109.5600471 388.275200
  10661  10662  10665     1   110.2200475 386.601600
  10661  10667  10673     1   107.2600461 396.643200
  10662  10661  10663     1   109.5600471 388.275200
  10663  10661  10667     1   110.2600474 425.931200
  10664  10660  10668     1   110.2600474 425.931200
  10665  10662  10666     1   109.5800467 425.931200
  10665  10662  10678     1   109.5800467 425.931200
  10670  10676  10677     1   107.2600461 396.643200
  10674  10670  10676     1   110.2600474 425.931200
  10674  10670  10675     1   108.4600466 328.025600
  10675  10670  10676     1   110.2600474 425.931200
  10679  10680  10682     1   109.5600471 388.275200
  10679  10693  10697     1   109.5600471 388.275200
  10679  10693  10698     1   109.5600471 388.275200
  10680  10683  10687     1   109.5600471 388.275200
  10680  10692  10695     1   107.2600461 396.643200
  10680  10679  10681     1   109.5600471 388.275200
  10681  10679  10693     1   109.5600471 388.275200
  10681  10679  10701     1   109.7800468 425.094400
  10682  10680  10683     1   109.5600471 388.275200
  10682  10680  10692     1   110.2600474 425.931200
  10683  10684  10686     1   109.5600471 388.275200
  10683  10691  10694     1   107.2600461 396.643200
  10684  10685  10688     1   110.2200475 386.601600
  10684  10690  10696     1   107.2600461 396.643200
  10684  10683  10687     1   109.5600471 388.275200
  10685  10684  10686     1   109.5600471 388.275200
  10686  10684  10690     1   110.2600474 425.931200
  10687  10683  10691     1   110.2600474 425.931200
  10688  10685  10689     1   109.5800467 425.931200
  10688  10685  10701     1   109.5800467 425.931200
  10693  10699  10700     1   107.2600461 396.643200
  10697  10693  10699     1   110.2600474 425.931200
  10697  10693  10698     1   108.4600466 328.025600
  10698  10693  10699     1   110.2600474 425.931200
  10702  10703  10705     1   109.5600471 388.275200
  10702  10716  10720     1   109.5600471 388.275200
  10702  10716  10721     1   109.5600471 388.275200
  10703  10702  10704     1   109.5600471 388.275200
  10703  10706  10710     1   109.5600471 388.275200
  10703  10715  10718     1   107.2600461 396.643200
  10704  10702  10716     1   109.5600471 388.275200
  10704  10702  10724     1   109.7800468 425.094400
  10705  10703  10706     1   109.5600471 388.275200
  10705  10703  10715     1   110.2600474 425.931200
  10706  10707  10709     1   109.5600471 388.275200
  10706  10714  10717     1   107.2600461 396.643200
  10707  10706  10710     1   109.5600471 388.275200
  10707  10708  10711     1   110.2200475 386.601600
  10707  10713  10719     1   107.2600461 396.643200
  10708  10707  10709     1   109.5600471 388.275200
  10709  10707  10713     1   110.2600474 425.931200
  10710  10706  10714     1   110.2600474 425.931200
  10711  10708  10712     1   109.5800467 425.931200
  10711  10708  10724     1   109.5800467 425.931200
  10716  10722  10723     1   107.2600461 396.643200
  10720  10716  10722     1   110.2600474 425.931200
  10720  10716  10721     1   108.4600466 328.025600
  10721  10716  10722     1   110.2600474 425.931200
  10725  10726  10728     1   109.5600471 388.275200
  10725  10739  10743     1   109.5600471 388.275200
  10725  10739  10744     1   109.5600471 388.275200
  10726  10729  10733     1   109.5600471 388.275200
  10726  10738  10741     1   107.2600461 396.643200
  10726  10725  10727     1   109.5600471 388.275200
  10727  10725  10739     1   109.5600471 388.275200
  10727  10725  10747     1   109.7800468 425.094400
  10728  10726  10729     1   109.5600471 388.275200
  10728  10726  10738     1   110.2600474 425.931200
  10729  10730  10732     1   109.5600471 388.275200
  10729  10737  10740     1   107.2600461 396.643200
  10730  10731  10734     1   110.2200475 386.601600
  10730  10736  10742     1   107.2600461 396.643200
  10730  10729  10733     1   109.5600471 388.275200
  10731  10730  10732     1   109.5600471 388.275200
  10732  10730  10736     1   110.2600474 425.931200
  10733  10729  10737     1   110.2600474 425.931200
  10734  10731  10735     1   109.5800467 425.931200
  10734  10731  10747     1   109.5800467 425.931200
  10739  10745  10746     1   107.2600461 396.643200
  10743  10739  10745     1   110.2600474 425.931200
  10743  10739  10744     1   108.4600466 328.025600
  10744  10739  10745     1   110.2600474 425.931200
  10748  10749  10751     1   109.5600471 388.275200
  10748  10762  10766     1   109.5600471 388.275200
  10748  10762  10767     1   109.5600471 388.275200
  10749  10748  10750     1   109.5600471 388.275200
  10749  10752  10756     1   109.5600471 388.275200
  10749  10761  10764     1   107.2600461 396.643200
  10750  10748  10762     1   109.5600471 388.275200
  10750  10748  10770     1   109.7800468 425.094400
  10751  10749  10752     1   109.5600471 388.275200
  10751  10749  10761     1   110.2600474 425.931200
  10752  10753  10755     1   109.5600471 388.275200
  10752  10760  10763     1   107.2600461 396.643200
  10753  10752  10756     1   109.5600471 388.275200
  10753  10754  10757     1   110.2200475 386.601600
  10753  10759  10765     1   107.2600461 396.643200
  10754  10753  10755     1   109.5600471 388.275200
  10755  10753  10759     1   110.2600474 425.931200
  10756  10752  10760     1   110.2600474 425.931200
  10757  10754  10758     1   109.5800467 425.931200
  10757  10754  10770     1   109.5800467 425.931200
  10762  10768  10769     1   107.2600461 396.643200
  10766  10762  10768     1   110.2600474 425.931200
  10766  10762  10767     1   108.4600466 328.025600
  10767  10762  10768     1   110.2600474 425.931200
  10771  10772  10774     1   109.5600471 388.275200
  10771  10785  10789     1   109.5600471 388.275200
  10771  10785  10790     1   109.5600471 388.275200
  10772  10775  10779     1   109.5600471 388.275200
  10772  10784  10787     1   107.2600461 396.643200
  10772  10771  10773     1   109.5600471 388.275200
  10773  10771  10785     1   109.5600471 388.275200
  10773  10771  10793     1   109.7800468 425.094400
  10774  10772  10775     1   109.5600471 388.275200
  10774  10772  10784     1   110.2600474 425.931200
  10775  10776  10778     1   109.5600471 388.275200
  10775  10783  10786     1   107.2600461 396.643200
  10776  10777  10780     1   110.2200475 386.601600
  10776  10782  10788     1   107.2600461 396.643200
  10776  10775  10779     1   109.5600471 388.275200
  10777  10776  10778     1   109.5600471 388.275200
  10778  10776  10782     1   110.2600474 425.931200
  10779  10775  10783     1   110.2600474 425.931200
  10780  10777  10781     1   109.5800467 425.931200
  10780  10777  10793     1   109.5800467 425.931200
  10785  10791  10792     1   107.2600461 396.643200
  10789  10785  10791     1   110.2600474 425.931200
  10789  10785  10790     1   108.4600466 328.025600
  10790  10785  10791     1   110.2600474 425.931200
  10794  10795  10797     1   109.5600471 388.275200
  10794  10808  10812     1   109.5600471 388.275200
  10794  10808  10813     1   109.5600471 388.275200
  10795  10794  10796     1   109.5600471 388.275200
  10795  10798  10802     1   109.5600471 388.275200
  10795  10807  10810     1   107.2600461 396.643200
  10796  10794  10808     1   109.5600471 388.275200
  10796  10794  10816     1   109.7800468 425.094400
  10797  10795  10798     1   109.5600471 388.275200
  10797  10795  10807     1   110.2600474 425.931200
  10798  10799  10801     1   109.5600471 388.275200
  10798  10806  10809     1   107.2600461 396.643200
  10799  10798  10802     1   109.5600471 388.275200
  10799  10800  10803     1   110.2200475 386.601600
  10799  10805  10811     1   107.2600461 396.643200
  10800  10799  10801     1   109.5600471 388.275200
  10801  10799  10805     1   110.2600474 425.931200
  10802  10798  10806     1   110.2600474 425.931200
  10803  10800  10804     1   109.5800467 425.931200
  10803  10800  10816     1   109.5800467 425.931200
  10808  10814  10815     1   107.2600461 396.643200
  10812  10808  10814     1   110.2600474 425.931200
  10812  10808  10813     1   108.4600466 328.025600
  10813  10808  10814     1   110.2600474 425.931200
  10817  10818  10820     1   109.5600471 388.275200
  10817  10831  10835     1   109.5600471 388.275200
  10817  10831  10836     1   109.5600471 388.275200
  10818  10821  10825     1   109.5600471 388.275200
  10818  10830  10833     1   107.2600461 396.643200
  10818  10817  10819     1   109.5600471 388.275200
  10819  10817  10831     1   109.5600471 388.275200
  10819  10817  10839     1   109.7800468 425.094400
  10820  10818  10821     1   109.5600471 388.275200
  10820  10818  10830     1   110.2600474 425.931200
  10821  10822  10824     1   109.5600471 388.275200
  10821  10829  10832     1   107.2600461 396.643200
  10822  10823  10826     1   110.2200475 386.601600
  10822  10828  10834     1   107.2600461 396.643200
  10822  10821  10825     1   109.5600471 388.275200
  10823  10822  10824     1   109.5600471 388.275200
  10824  10822  10828     1   110.2600474 425.931200
  10825  10821  10829     1   110.2600474 425.931200
  10826  10823  10827     1   109.5800467 425.931200
  10826  10823  10839     1   109.5800467 425.931200
  10831  10837  10838     1   107.2600461 396.643200
  10835  10831  10837     1   110.2600474 425.931200
  10835  10831  10836     1   108.4600466 328.025600
  10836  10831  10837     1   110.2600474 425.931200
  10840  10841  10843     1   109.5600471 388.275200
  10840  10854  10858     1   109.5600471 388.275200
  10840  10854  10859     1   109.5600471 388.275200
  10841  10840  10842     1   109.5600471 388.275200
  10841  10844  10848     1   109.5600471 388.275200
  10841  10853  10856     1   107.2600461 396.643200
  10842  10840  10854     1   109.5600471 388.275200
  10842  10840  10862     1   109.7800468 425.094400
  10843  10841  10844     1   109.5600471 388.275200
  10843  10841  10853     1   110.2600474 425.931200
  10844  10845  10847     1   109.5600471 388.275200
  10844  10852  10855     1   107.2600461 396.643200
  10845  10844  10848     1   109.5600471 388.275200
  10845  10846  10849     1   110.2200475 386.601600
  10845  10851  10857     1   107.2600461 396.643200
  10846  10845  10847     1   109.5600471 388.275200
  10847  10845  10851     1   110.2600474 425.931200
  10848  10844  10852     1   110.2600474 425.931200
  10849  10846  10850     1   109.5800467 425.931200
  10849  10846  10862     1   109.5800467 425.931200
  10854  10860  10861     1   107.2600461 396.643200
  10858  10854  10860     1   110.2600474 425.931200
  10858  10854  10859     1   108.4600466 328.025600
  10859  10854  10860     1   110.2600474 425.931200
  10863  10864  10866     1   109.5600471 388.275200
  10863  10877  10881     1   109.5600471 388.275200
  10863  10877  10882     1   109.5600471 388.275200
  10864  10867  10871     1   109.5600471 388.275200
  10864  10876  10879     1   107.2600461 396.643200
  10864  10863  10865     1   109.5600471 388.275200
  10865  10863  10877     1   109.5600471 388.275200
  10865  10863  10885     1   109.7800468 425.094400
  10866  10864  10867     1   109.5600471 388.275200
  10866  10864  10876     1   110.2600474 425.931200
  10867  10868  10870     1   109.5600471 388.275200
  10867  10875  10878     1   107.2600461 396.643200
  10868  10869  10872     1   110.2200475 386.601600
  10868  10874  10880     1   107.2600461 396.643200
  10868  10867  10871     1   109.5600471 388.275200
  10869  10868  10870     1   109.5600471 388.275200
  10870  10868  10874     1   110.2600474 425.931200
  10871  10867  10875     1   110.2600474 425.931200
  10872  10869  10873     1   109.5800467 425.931200
  10872  10869  10885     1   109.5800467 425.931200
  10877  10883  10884     1   107.2600461 396.643200
  10881  10877  10883     1   110.2600474 425.931200
  10881  10877  10882     1   108.4600466 328.025600
  10882  10877  10883     1   110.2600474 425.931200
  10886  10887  10889     1   109.5600471 388.275200
  10886  10900  10904     1   109.5600471 388.275200
  10886  10900  10905     1   109.5600471 388.275200
  10887  10886  10888     1   109.5600471 388.275200
  10887  10890  10894     1   109.5600471 388.275200
  10887  10899  10902     1   107.2600461 396.643200
  10888  10886  10900     1   109.5600471 388.275200
  10888  10886  10908     1   109.7800468 425.094400
  10889  10887  10890     1   109.5600471 388.275200
  10889  10887  10899     1   110.2600474 425.931200
  10890  10891  10893     1   109.5600471 388.275200
  10890  10898  10901     1   107.2600461 396.643200
  10891  10890  10894     1   109.5600471 388.275200
  10891  10892  10895     1   110.2200475 386.601600
  10891  10897  10903     1   107.2600461 396.643200
  10892  10891  10893     1   109.5600471 388.275200
  10893  10891  10897     1   110.2600474 425.931200
  10894  10890  10898     1   110.2600474 425.931200
  10895  10892  10896     1   109.5800467 425.931200
  10895  10892  10908     1   109.5800467 425.931200
  10900  10906  10907     1   107.2600461 396.643200
  10904  10900  10906     1   110.2600474 425.931200
  10904  10900  10905     1   108.4600466 328.025600
  10905  10900  10906     1   110.2600474 425.931200
  10909  10910  10912     1   109.5600471 388.275200
  10909  10923  10927     1   109.5600471 388.275200
  10909  10923  10928     1   109.5600471 388.275200
  10910  10913  10917     1   109.5600471 388.275200
  10910  10922  10925     1   107.2600461 396.643200
  10910  10909  10911     1   109.5600471 388.275200
  10911  10909  10923     1   109.5600471 388.275200
  10911  10909  10931     1   109.7800468 425.094400
  10912  10910  10913     1   109.5600471 388.275200
  10912  10910  10922     1   110.2600474 425.931200
  10913  10914  10916     1   109.5600471 388.275200
  10913  10921  10924     1   107.2600461 396.643200
  10914  10915  10918     1   110.2200475 386.601600
  10914  10920  10926     1   107.2600461 396.643200
  10914  10913  10917     1   109.5600471 388.275200
  10915  10914  10916     1   109.5600471 388.275200
  10916  10914  10920     1   110.2600474 425.931200
  10917  10913  10921     1   110.2600474 425.931200
  10918  10915  10919     1   109.5800467 425.931200
  10918  10915  10931     1   109.5800467 425.931200
  10923  10929  10930     1   107.2600461 396.643200
  10927  10923  10929     1   110.2600474 425.931200
  10927  10923  10928     1   108.4600466 328.025600
  10928  10923  10929     1   110.2600474 425.931200
  10932  10933  10935     1   109.5600471 388.275200
  10932  10946  10950     1   109.5600471 388.275200
  10932  10946  10951     1   109.5600471 388.275200
  10933  10932  10934     1   109.5600471 388.275200
  10933  10936  10940     1   109.5600471 388.275200
  10933  10945  10948     1   107.2600461 396.643200
  10934  10932  10946     1   109.5600471 388.275200
  10934  10932  10954     1   109.7800468 425.094400
  10935  10933  10936     1   109.5600471 388.275200
  10935  10933  10945     1   110.2600474 425.931200
  10936  10937  10939     1   109.5600471 388.275200
  10936  10944  10947     1   107.2600461 396.643200
  10937  10936  10940     1   109.5600471 388.275200
  10937  10938  10941     1   110.2200475 386.601600
  10937  10943  10949     1   107.2600461 396.643200
  10938  10937  10939     1   109.5600471 388.275200
  10939  10937  10943     1   110.2600474 425.931200
  10940  10936  10944     1   110.2600474 425.931200
  10941  10938  10942     1   109.5800467 425.931200
  10941  10938  10954     1   109.5800467 425.931200
  10946  10952  10953     1   107.2600461 396.643200
  10950  10946  10952     1   110.2600474 425.931200
  10950  10946  10951     1   108.4600466 328.025600
  10951  10946  10952     1   110.2600474 425.931200
  10955  10956  10958     1   109.5600471 388.275200
  10955  10969  10973     1   109.5600471 388.275200
  10955  10969  10974     1   109.5600471 388.275200
  10956  10959  10963     1   109.5600471 388.275200
  10956  10968  10971     1   107.2600461 396.643200
  10956  10955  10957     1   109.5600471 388.275200
  10957  10955  10969     1   109.5600471 388.275200
  10957  10955  10977     1   109.7800468 425.094400
  10958  10956  10959     1   109.5600471 388.275200
  10958  10956  10968     1   110.2600474 425.931200
  10959  10960  10962     1   109.5600471 388.275200
  10959  10967  10970     1   107.2600461 396.643200
  10960  10961  10964     1   110.2200475 386.601600
  10960  10966  10972     1   107.2600461 396.643200
  10960  10959  10963     1   109.5600471 388.275200
  10961  10960  10962     1   109.5600471 388.275200
  10962  10960  10966     1   110.2600474 425.931200
  10963  10959  10967     1   110.2600474 425.931200
  10964  10961  10965     1   109.5800467 425.931200
  10964  10961  10977     1   109.5800467 425.931200
  10969  10975  10976     1   107.2600461 396.643200
  10973  10969  10975     1   110.2600474 425.931200
  10973  10969  10974     1   108.4600466 328.025600
  10974  10969  10975     1   110.2600474 425.931200
  10978  10979  10981     1   109.5600471 388.275200
  10978  10992  10996     1   109.5600471 388.275200
  10978  10992  10997     1   109.5600471 388.275200
  10979  10978  10980     1   109.5600471 388.275200
  10979  10982  10986     1   109.5600471 388.275200
  10979  10991  10994     1   107.2600461 396.643200
  10980  10978  10992     1   109.5600471 388.275200
  10980  10978  11000     1   109.7800468 425.094400
  10981  10979  10982     1   109.5600471 388.275200
  10981  10979  10991     1   110.2600474 425.931200
  10982  10983  10985     1   109.5600471 388.275200
  10982  10990  10993     1   107.2600461 396.643200
  10983  10982  10986     1   109.5600471 388.275200
  10983  10984  10987     1   110.2200475 386.601600
  10983  10989  10995     1   107.2600461 396.643200
  10984  10983  10985     1   109.5600471 388.275200
  10985  10983  10989     1   110.2600474 425.931200
  10986  10982  10990     1   110.2600474 425.931200
  10987  10984  10988     1   109.5800467 425.931200
  10987  10984  11000     1   109.5800467 425.931200
  10992  10998  10999     1   107.2600461 396.643200
  10996  10992  10998     1   110.2600474 425.931200
  10996  10992  10997     1   108.4600466 328.025600
  10997  10992  10998     1   110.2600474 425.931200
  11001  11002  11004     1   109.5600471 388.275200
  11001  11015  11019     1   109.5600471 388.275200
  11001  11015  11020     1   109.5600471 388.275200
  11002  11005  11009     1   109.5600471 388.275200
  11002  11014  11017     1   107.2600461 396.643200
  11002  11001  11003     1   109.5600471 388.275200
  11003  11001  11015     1   109.5600471 388.275200
  11003  11001  11023     1   109.7800468 425.094400
  11004  11002  11005     1   109.5600471 388.275200
  11004  11002  11014     1   110.2600474 425.931200
  11005  11006  11008     1   109.5600471 388.275200
  11005  11013  11016     1   107.2600461 396.643200
  11006  11007  11010     1   110.2200475 386.601600
  11006  11012  11018     1   107.2600461 396.643200
  11006  11005  11009     1   109.5600471 388.275200
  11007  11006  11008     1   109.5600471 388.275200
  11008  11006  11012     1   110.2600474 425.931200
  11009  11005  11013     1   110.2600474 425.931200
  11010  11007  11011     1   109.5800467 425.931200
  11010  11007  11023     1   109.5800467 425.931200
  11015  11021  11022     1   107.2600461 396.643200
  11019  11015  11021     1   110.2600474 425.931200
  11019  11015  11020     1   108.4600466 328.025600
  11020  11015  11021     1   110.2600474 425.931200
  11024  11025  11027     1   109.5600471 388.275200
  11024  11038  11042     1   109.5600471 388.275200
  11024  11038  11043     1   109.5600471 388.275200
  11025  11024  11026     1   109.5600471 388.275200
  11025  11028  11032     1   109.5600471 388.275200
  11025  11037  11040     1   107.2600461 396.643200
  11026  11024  11038     1   109.5600471 388.275200
  11026  11024  11046     1   109.7800468 425.094400
  11027  11025  11028     1   109.5600471 388.275200
  11027  11025  11037     1   110.2600474 425.931200
  11028  11029  11031     1   109.5600471 388.275200
  11028  11036  11039     1   107.2600461 396.643200
  11029  11028  11032     1   109.5600471 388.275200
  11029  11030  11033     1   110.2200475 386.601600
  11029  11035  11041     1   107.2600461 396.643200
  11030  11029  11031     1   109.5600471 388.275200
  11031  11029  11035     1   110.2600474 425.931200
  11032  11028  11036     1   110.2600474 425.931200
  11033  11030  11034     1   109.5800467 425.931200
  11033  11030  11046     1   109.5800467 425.931200
  11038  11044  11045     1   107.2600461 396.643200
  11042  11038  11044     1   110.2600474 425.931200
  11042  11038  11043     1   108.4600466 328.025600
  11043  11038  11044     1   110.2600474 425.931200
  11047  11048  11050     1   109.5600471 388.275200
  11047  11061  11065     1   109.5600471 388.275200
  11047  11061  11066     1   109.5600471 388.275200
  11048  11051  11055     1   109.5600471 388.275200
  11048  11060  11063     1   107.2600461 396.643200
  11048  11047  11049     1   109.5600471 388.275200
  11049  11047  11061     1   109.5600471 388.275200
  11049  11047  11069     1   109.7800468 425.094400
  11050  11048  11051     1   109.5600471 388.275200
  11050  11048  11060     1   110.2600474 425.931200
  11051  11052  11054     1   109.5600471 388.275200
  11051  11059  11062     1   107.2600461 396.643200
  11052  11053  11056     1   110.2200475 386.601600
  11052  11058  11064     1   107.2600461 396.643200
  11052  11051  11055     1   109.5600471 388.275200
  11053  11052  11054     1   109.5600471 388.275200
  11054  11052  11058     1   110.2600474 425.931200
  11055  11051  11059     1   110.2600474 425.931200
  11056  11053  11057     1   109.5800467 425.931200
  11056  11053  11069     1   109.5800467 425.931200
  11061  11067  11068     1   107.2600461 396.643200
  11065  11061  11067     1   110.2600474 425.931200
  11065  11061  11066     1   108.4600466 328.025600
  11066  11061  11067     1   110.2600474 425.931200
  11070  11071  11073     1   109.5600471 388.275200
  11070  11084  11088     1   109.5600471 388.275200
  11070  11084  11089     1   109.5600471 388.275200
  11071  11070  11072     1   109.5600471 388.275200
  11071  11074  11078     1   109.5600471 388.275200
  11071  11083  11086     1   107.2600461 396.643200
  11072  11070  11084     1   109.5600471 388.275200
  11072  11070  11092     1   109.7800468 425.094400
  11073  11071  11074     1   109.5600471 388.275200
  11073  11071  11083     1   110.2600474 425.931200
  11074  11075  11077     1   109.5600471 388.275200
  11074  11082  11085     1   107.2600461 396.643200
  11075  11074  11078     1   109.5600471 388.275200
  11075  11076  11079     1   110.2200475 386.601600
  11075  11081  11087     1   107.2600461 396.643200
  11076  11075  11077     1   109.5600471 388.275200
  11077  11075  11081     1   110.2600474 425.931200
  11078  11074  11082     1   110.2600474 425.931200
  11079  11076  11080     1   109.5800467 425.931200
  11079  11076  11092     1   109.5800467 425.931200
  11084  11090  11091     1   107.2600461 396.643200
  11088  11084  11090     1   110.2600474 425.931200
  11088  11084  11089     1   108.4600466 328.025600
  11089  11084  11090     1   110.2600474 425.931200
  11093  11094  11096     1   109.5600471 388.275200
  11093  11107  11111     1   109.5600471 388.275200
  11093  11107  11112     1   109.5600471 388.275200
  11094  11097  11101     1   109.5600471 388.275200
  11094  11106  11109     1   107.2600461 396.643200
  11094  11093  11095     1   109.5600471 388.275200
  11095  11093  11107     1   109.5600471 388.275200
  11095  11093  11115     1   109.7800468 425.094400
  11096  11094  11097     1   109.5600471 388.275200
  11096  11094  11106     1   110.2600474 425.931200
  11097  11098  11100     1   109.5600471 388.275200
  11097  11105  11108     1   107.2600461 396.643200
  11098  11099  11102     1   110.2200475 386.601600
  11098  11104  11110     1   107.2600461 396.643200
  11098  11097  11101     1   109.5600471 388.275200
  11099  11098  11100     1   109.5600471 388.275200
  11100  11098  11104     1   110.2600474 425.931200
  11101  11097  11105     1   110.2600474 425.931200
  11102  11099  11103     1   109.5800467 425.931200
  11102  11099  11115     1   109.5800467 425.931200
  11107  11113  11114     1   107.2600461 396.643200
  11111  11107  11113     1   110.2600474 425.931200
  11111  11107  11112     1   108.4600466 328.025600
  11112  11107  11113     1   110.2600474 425.931200
  11116  11117  11119     1   109.5600471 388.275200
  11116  11130  11134     1   109.5600471 388.275200
  11116  11130  11135     1   109.5600471 388.275200
  11117  11116  11118     1   109.5600471 388.275200
  11117  11120  11124     1   109.5600471 388.275200
  11117  11129  11132     1   107.2600461 396.643200
  11118  11116  11130     1   109.5600471 388.275200
  11118  11116  11138     1   109.7800468 425.094400
  11119  11117  11120     1   109.5600471 388.275200
  11119  11117  11129     1   110.2600474 425.931200
  11120  11121  11123     1   109.5600471 388.275200
  11120  11128  11131     1   107.2600461 396.643200
  11121  11120  11124     1   109.5600471 388.275200
  11121  11122  11125     1   110.2200475 386.601600
  11121  11127  11133     1   107.2600461 396.643200
  11122  11121  11123     1   109.5600471 388.275200
  11123  11121  11127     1   110.2600474 425.931200
  11124  11120  11128     1   110.2600474 425.931200
  11125  11122  11126     1   109.5800467 425.931200
  11125  11122  11138     1   109.5800467 425.931200
  11130  11136  11137     1   107.2600461 396.643200
  11134  11130  11136     1   110.2600474 425.931200
  11134  11130  11135     1   108.4600466 328.025600
  11135  11130  11136     1   110.2600474 425.931200
  11139  11140  11142     1   109.5600471 388.275200
  11139  11153  11157     1   109.5600471 388.275200
  11139  11153  11158     1   109.5600471 388.275200
  11140  11143  11147     1   109.5600471 388.275200
  11140  11152  11155     1   107.2600461 396.643200
  11140  11139  11141     1   109.5600471 388.275200
  11141  11139  11153     1   109.5600471 388.275200
  11141  11139  11161     1   109.7800468 425.094400
  11142  11140  11143     1   109.5600471 388.275200
  11142  11140  11152     1   110.2600474 425.931200
  11143  11144  11146     1   109.5600471 388.275200
  11143  11151  11154     1   107.2600461 396.643200
  11144  11145  11148     1   110.2200475 386.601600
  11144  11150  11156     1   107.2600461 396.643200
  11144  11143  11147     1   109.5600471 388.275200
  11145  11144  11146     1   109.5600471 388.275200
  11146  11144  11150     1   110.2600474 425.931200
  11147  11143  11151     1   110.2600474 425.931200
  11148  11145  11149     1   109.5800467 425.931200
  11148  11145  11161     1   109.5800467 425.931200
  11153  11159  11160     1   107.2600461 396.643200
  11157  11153  11159     1   110.2600474 425.931200
  11157  11153  11158     1   108.4600466 328.025600
  11158  11153  11159     1   110.2600474 425.931200
  11162  11163  11165     1   109.5600471 388.275200
  11162  11176  11180     1   109.5600471 388.275200
  11162  11176  11181     1   109.5600471 388.275200
  11163  11162  11164     1   109.5600471 388.275200
  11163  11166  11170     1   109.5600471 388.275200
  11163  11175  11178     1   107.2600461 396.643200
  11164  11162  11176     1   109.5600471 388.275200
  11164  11162  11184     1   109.7800468 425.094400
  11165  11163  11166     1   109.5600471 388.275200
  11165  11163  11175     1   110.2600474 425.931200
  11166  11167  11169     1   109.5600471 388.275200
  11166  11174  11177     1   107.2600461 396.643200
  11167  11166  11170     1   109.5600471 388.275200
  11167  11168  11171     1   110.2200475 386.601600
  11167  11173  11179     1   107.2600461 396.643200
  11168  11167  11169     1   109.5600471 388.275200
  11169  11167  11173     1   110.2600474 425.931200
  11170  11166  11174     1   110.2600474 425.931200
  11171  11168  11172     1   109.5800467 425.931200
  11171  11168  11184     1   109.5800467 425.931200
  11176  11182  11183     1   107.2600461 396.643200
  11180  11176  11182     1   110.2600474 425.931200
  11180  11176  11181     1   108.4600466 328.025600
  11181  11176  11182     1   110.2600474 425.931200
  11185  11186  11188     1   109.5600471 388.275200
  11185  11199  11203     1   109.5600471 388.275200
  11185  11199  11204     1   109.5600471 388.275200
  11186  11189  11193     1   109.5600471 388.275200
  11186  11198  11201     1   107.2600461 396.643200
  11186  11185  11187     1   109.5600471 388.275200
  11187  11185  11199     1   109.5600471 388.275200
  11187  11185  11207     1   109.7800468 425.094400
  11188  11186  11189     1   109.5600471 388.275200
  11188  11186  11198     1   110.2600474 425.931200
  11189  11190  11192     1   109.5600471 388.275200
  11189  11197  11200     1   107.2600461 396.643200
  11190  11191  11194     1   110.2200475 386.601600
  11190  11196  11202     1   107.2600461 396.643200
  11190  11189  11193     1   109.5600471 388.275200
  11191  11190  11192     1   109.5600471 388.275200
  11192  11190  11196     1   110.2600474 425.931200
  11193  11189  11197     1   110.2600474 425.931200
  11194  11191  11195     1   109.5800467 425.931200
  11194  11191  11207     1   109.5800467 425.931200
  11199  11205  11206     1   107.2600461 396.643200
  11203  11199  11205     1   110.2600474 425.931200
  11203  11199  11204     1   108.4600466 328.025600
  11204  11199  11205     1   110.2600474 425.931200
  11208  11209  11211     1   109.5600471 388.275200
  11208  11222  11226     1   109.5600471 388.275200
  11208  11222  11227     1   109.5600471 388.275200
  11209  11208  11210     1   109.5600471 388.275200
  11209  11212  11216     1   109.5600471 388.275200
  11209  11221  11224     1   107.2600461 396.643200
  11210  11208  11222     1   109.5600471 388.275200
  11210  11208  11230     1   109.7800468 425.094400
  11211  11209  11212     1   109.5600471 388.275200
  11211  11209  11221     1   110.2600474 425.931200
  11212  11213  11215     1   109.5600471 388.275200
  11212  11220  11223     1   107.2600461 396.643200
  11213  11212  11216     1   109.5600471 388.275200
  11213  11214  11217     1   110.2200475 386.601600
  11213  11219  11225     1   107.2600461 396.643200
  11214  11213  11215     1   109.5600471 388.275200
  11215  11213  11219     1   110.2600474 425.931200
  11216  11212  11220     1   110.2600474 425.931200
  11217  11214  11218     1   109.5800467 425.931200
  11217  11214  11230     1   109.5800467 425.931200
  11222  11228  11229     1   107.2600461 396.643200
  11226  11222  11228     1   110.2600474 425.931200
  11226  11222  11227     1   108.4600466 328.025600
  11227  11222  11228     1   110.2600474 425.931200
  11231  11232  11234     1   109.5600471 388.275200
  11231  11245  11249     1   109.5600471 388.275200
  11231  11245  11250     1   109.5600471 388.275200
  11232  11235  11239     1   109.5600471 388.275200
  11232  11244  11247     1   107.2600461 396.643200
  11232  11231  11233     1   109.5600471 388.275200
  11233  11231  11245     1   109.5600471 388.275200
  11233  11231  11253     1   109.7800468 425.094400
  11234  11232  11235     1   109.5600471 388.275200
  11234  11232  11244     1   110.2600474 425.931200
  11235  11236  11238     1   109.5600471 388.275200
  11235  11243  11246     1   107.2600461 396.643200
  11236  11237  11240     1   110.2200475 386.601600
  11236  11242  11248     1   107.2600461 396.643200
  11236  11235  11239     1   109.5600471 388.275200
  11237  11236  11238     1   109.5600471 388.275200
  11238  11236  11242     1   110.2600474 425.931200
  11239  11235  11243     1   110.2600474 425.931200
  11240  11237  11241     1   109.5800467 425.931200
  11240  11237  11253     1   109.5800467 425.931200
  11245  11251  11252     1   107.2600461 396.643200
  11249  11245  11251     1   110.2600474 425.931200
  11249  11245  11250     1   108.4600466 328.025600
  11250  11245  11251     1   110.2600474 425.931200
  11254  11255  11257     1   109.5600471 388.275200
  11254  11268  11272     1   109.5600471 388.275200
  11254  11268  11273     1   109.5600471 388.275200
  11255  11254  11256     1   109.5600471 388.275200
  11255  11258  11262     1   109.5600471 388.275200
  11255  11267  11270     1   107.2600461 396.643200
  11256  11254  11268     1   109.5600471 388.275200
  11256  11254  11276     1   109.7800468 425.094400
  11257  11255  11258     1   109.5600471 388.275200
  11257  11255  11267     1   110.2600474 425.931200
  11258  11259  11261     1   109.5600471 388.275200
  11258  11266  11269     1   107.2600461 396.643200
  11259  11258  11262     1   109.5600471 388.275200
  11259  11260  11263     1   110.2200475 386.601600
  11259  11265  11271     1   107.2600461 396.643200
  11260  11259  11261     1   109.5600471 388.275200
  11261  11259  11265     1   110.2600474 425.931200
  11262  11258  11266     1   110.2600474 425.931200
  11263  11260  11264     1   109.5800467 425.931200
  11263  11260  11276     1   109.5800467 425.931200
  11268  11274  11275     1   107.2600461 396.643200
  11272  11268  11274     1   110.2600474 425.931200
  11272  11268  11273     1   108.4600466 328.025600
  11273  11268  11274     1   110.2600474 425.931200
  11277  11278  11280     1   109.5600471 388.275200
  11277  11291  11295     1   109.5600471 388.275200
  11277  11291  11296     1   109.5600471 388.275200
  11278  11281  11285     1   109.5600471 388.275200
  11278  11290  11293     1   107.2600461 396.643200
  11278  11277  11279     1   109.5600471 388.275200
  11279  11277  11291     1   109.5600471 388.275200
  11279  11277  11299     1   109.7800468 425.094400
  11280  11278  11281     1   109.5600471 388.275200
  11280  11278  11290     1   110.2600474 425.931200
  11281  11282  11284     1   109.5600471 388.275200
  11281  11289  11292     1   107.2600461 396.643200
  11282  11283  11286     1   110.2200475 386.601600
  11282  11288  11294     1   107.2600461 396.643200
  11282  11281  11285     1   109.5600471 388.275200
  11283  11282  11284     1   109.5600471 388.275200
  11284  11282  11288     1   110.2600474 425.931200
  11285  11281  11289     1   110.2600474 425.931200
  11286  11283  11287     1   109.5800467 425.931200
  11286  11283  11299     1   109.5800467 425.931200
  11291  11297  11298     1   107.2600461 396.643200
  11295  11291  11297     1   110.2600474 425.931200
  11295  11291  11296     1   108.4600466 328.025600
  11296  11291  11297     1   110.2600474 425.931200
  11300  11301  11303     1   109.5600471 388.275200
  11300  11314  11318     1   109.5600471 388.275200
  11300  11314  11319     1   109.5600471 388.275200
  11301  11300  11302     1   109.5600471 388.275200
  11301  11304  11308     1   109.5600471 388.275200
  11301  11313  11316     1   107.2600461 396.643200
  11302  11300  11314     1   109.5600471 388.275200
  11302  11300  11322     1   109.7800468 425.094400
  11303  11301  11304     1   109.5600471 388.275200
  11303  11301  11313     1   110.2600474 425.931200
  11304  11305  11307     1   109.5600471 388.275200
  11304  11312  11315     1   107.2600461 396.643200
  11305  11304  11308     1   109.5600471 388.275200
  11305  11306  11309     1   110.2200475 386.601600
  11305  11311  11317     1   107.2600461 396.643200
  11306  11305  11307     1   109.5600471 388.275200
  11307  11305  11311     1   110.2600474 425.931200
  11308  11304  11312     1   110.2600474 425.931200
  11309  11306  11310     1   109.5800467 425.931200
  11309  11306  11322     1   109.5800467 425.931200
  11314  11320  11321     1   107.2600461 396.643200
  11318  11314  11320     1   110.2600474 425.931200
  11318  11314  11319     1   108.4600466 328.025600
  11319  11314  11320     1   110.2600474 425.931200
  11323  11324  11326     1   109.5600471 388.275200
  11323  11337  11341     1   109.5600471 388.275200
  11323  11337  11342     1   109.5600471 388.275200
  11324  11327  11331     1   109.5600471 388.275200
  11324  11336  11339     1   107.2600461 396.643200
  11324  11323  11325     1   109.5600471 388.275200
  11325  11323  11337     1   109.5600471 388.275200
  11325  11323  11345     1   109.7800468 425.094400
  11326  11324  11327     1   109.5600471 388.275200
  11326  11324  11336     1   110.2600474 425.931200
  11327  11328  11330     1   109.5600471 388.275200
  11327  11335  11338     1   107.2600461 396.643200
  11328  11329  11332     1   110.2200475 386.601600
  11328  11334  11340     1   107.2600461 396.643200
  11328  11327  11331     1   109.5600471 388.275200
  11329  11328  11330     1   109.5600471 388.275200
  11330  11328  11334     1   110.2600474 425.931200
  11331  11327  11335     1   110.2600474 425.931200
  11332  11329  11333     1   109.5800467 425.931200
  11332  11329  11345     1   109.5800467 425.931200
  11337  11343  11344     1   107.2600461 396.643200
  11341  11337  11343     1   110.2600474 425.931200
  11341  11337  11342     1   108.4600466 328.025600
  11342  11337  11343     1   110.2600474 425.931200
  11346  11347  11349     1   109.5600471 388.275200
  11346  11360  11364     1   109.5600471 388.275200
  11346  11360  11365     1   109.5600471 388.275200
  11347  11346  11348     1   109.5600471 388.275200
  11347  11350  11354     1   109.5600471 388.275200
  11347  11359  11362     1   107.2600461 396.643200
  11348  11346  11360     1   109.5600471 388.275200
  11348  11346  11368     1   109.7800468 425.094400
  11349  11347  11350     1   109.5600471 388.275200
  11349  11347  11359     1   110.2600474 425.931200
  11350  11351  11353     1   109.5600471 388.275200
  11350  11358  11361     1   107.2600461 396.643200
  11351  11350  11354     1   109.5600471 388.275200
  11351  11352  11355     1   110.2200475 386.601600
  11351  11357  11363     1   107.2600461 396.643200
  11352  11351  11353     1   109.5600471 388.275200
  11353  11351  11357     1   110.2600474 425.931200
  11354  11350  11358     1   110.2600474 425.931200
  11355  11352  11356     1   109.5800467 425.931200
  11355  11352  11368     1   109.5800467 425.931200
  11360  11366  11367     1   107.2600461 396.643200
  11364  11360  11366     1   110.2600474 425.931200
  11364  11360  11365     1   108.4600466 328.025600
  11365  11360  11366     1   110.2600474 425.931200
  11369  11370  11372     1   109.5600471 388.275200
  11369  11383  11387     1   109.5600471 388.275200
  11369  11383  11388     1   109.5600471 388.275200
  11370  11373  11377     1   109.5600471 388.275200
  11370  11382  11385     1   107.2600461 396.643200
  11370  11369  11371     1   109.5600471 388.275200
  11371  11369  11383     1   109.5600471 388.275200
  11371  11369  11391     1   109.7800468 425.094400
  11372  11370  11373     1   109.5600471 388.275200
  11372  11370  11382     1   110.2600474 425.931200
  11373  11374  11376     1   109.5600471 388.275200
  11373  11381  11384     1   107.2600461 396.643200
  11374  11375  11378     1   110.2200475 386.601600
  11374  11380  11386     1   107.2600461 396.643200
  11374  11373  11377     1   109.5600471 388.275200
  11375  11374  11376     1   109.5600471 388.275200
  11376  11374  11380     1   110.2600474 425.931200
  11377  11373  11381     1   110.2600474 425.931200
  11378  11375  11379     1   109.5800467 425.931200
  11378  11375  11391     1   109.5800467 425.931200
  11383  11389  11390     1   107.2600461 396.643200
  11387  11383  11389     1   110.2600474 425.931200
  11387  11383  11388     1   108.4600466 328.025600
  11388  11383  11389     1   110.2600474 425.931200
  11392  11393  11395     1   109.5600471 388.275200
  11392  11406  11410     1   109.5600471 388.275200
  11392  11406  11411     1   109.5600471 388.275200
  11393  11392  11394     1   109.5600471 388.275200
  11393  11396  11400     1   109.5600471 388.275200
  11393  11405  11408     1   107.2600461 396.643200
  11394  11392  11406     1   109.5600471 388.275200
  11394  11392  11414     1   109.7800468 425.094400
  11395  11393  11396     1   109.5600471 388.275200
  11395  11393  11405     1   110.2600474 425.931200
  11396  11397  11399     1   109.5600471 388.275200
  11396  11404  11407     1   107.2600461 396.643200
  11397  11396  11400     1   109.5600471 388.275200
  11397  11398  11401     1   110.2200475 386.601600
  11397  11403  11409     1   107.2600461 396.643200
  11398  11397  11399     1   109.5600471 388.275200
  11399  11397  11403     1   110.2600474 425.931200
  11400  11396  11404     1   110.2600474 425.931200
  11401  11398  11402     1   109.5800467 425.931200
  11401  11398  11414     1   109.5800467 425.931200
  11406  11412  11413     1   107.2600461 396.643200
  11410  11406  11412     1   110.2600474 425.931200
  11410  11406  11411     1   108.4600466 328.025600
  11411  11406  11412     1   110.2600474 425.931200
  11415  11416  11418     1   109.5600471 388.275200
  11415  11429  11433     1   109.5600471 388.275200
  11415  11429  11434     1   109.5600471 388.275200
  11416  11419  11423     1   109.5600471 388.275200
  11416  11428  11431     1   107.2600461 396.643200
  11416  11415  11417     1   109.5600471 388.275200
  11417  11415  11429     1   109.5600471 388.275200
  11417  11415  11437     1   109.7800468 425.094400
  11418  11416  11419     1   109.5600471 388.275200
  11418  11416  11428     1   110.2600474 425.931200
  11419  11420  11422     1   109.5600471 388.275200
  11419  11427  11430     1   107.2600461 396.643200
  11420  11421  11424     1   110.2200475 386.601600
  11420  11426  11432     1   107.2600461 396.643200
  11420  11419  11423     1   109.5600471 388.275200
  11421  11420  11422     1   109.5600471 388.275200
  11422  11420  11426     1   110.2600474 425.931200
  11423  11419  11427     1   110.2600474 425.931200
  11424  11421  11425     1   109.5800467 425.931200
  11424  11421  11437     1   109.5800467 425.931200
  11429  11435  11436     1   107.2600461 396.643200
  11433  11429  11435     1   110.2600474 425.931200
  11433  11429  11434     1   108.4600466 328.025600
  11434  11429  11435     1   110.2600474 425.931200
  11438  11439  11441     1   109.5600471 388.275200
  11438  11452  11456     1   109.5600471 388.275200
  11438  11452  11457     1   109.5600471 388.275200
  11439  11438  11440     1   109.5600471 388.275200
  11439  11442  11446     1   109.5600471 388.275200
  11439  11451  11454     1   107.2600461 396.643200
  11440  11438  11452     1   109.5600471 388.275200
  11440  11438  11460     1   109.7800468 425.094400
  11441  11439  11442     1   109.5600471 388.275200
  11441  11439  11451     1   110.2600474 425.931200
  11442  11443  11445     1   109.5600471 388.275200
  11442  11450  11453     1   107.2600461 396.643200
  11443  11442  11446     1   109.5600471 388.275200
  11443  11444  11447     1   110.2200475 386.601600
  11443  11449  11455     1   107.2600461 396.643200
  11444  11443  11445     1   109.5600471 388.275200
  11445  11443  11449     1   110.2600474 425.931200
  11446  11442  11450     1   110.2600474 425.931200
  11447  11444  11448     1   109.5800467 425.931200
  11447  11444  11460     1   109.5800467 425.931200
  11452  11458  11459     1   107.2600461 396.643200
  11456  11452  11458     1   110.2600474 425.931200
  11456  11452  11457     1   108.4600466 328.025600
  11457  11452  11458     1   110.2600474 425.931200
  11461  11462  11464     1   109.5600471 388.275200
  11461  11475  11479     1   109.5600471 388.275200
  11461  11475  11480     1   109.5600471 388.275200
  11462  11465  11469     1   109.5600471 388.275200
  11462  11474  11477     1   107.2600461 396.643200
  11462  11461  11463     1   109.5600471 388.275200
  11463  11461  11475     1   109.5600471 388.275200
  11463  11461  11483     1   109.7800468 425.094400
  11464  11462  11465     1   109.5600471 388.275200
  11464  11462  11474     1   110.2600474 425.931200
  11465  11466  11468     1   109.5600471 388.275200
  11465  11473  11476     1   107.2600461 396.643200
  11466  11467  11470     1   110.2200475 386.601600
  11466  11472  11478     1   107.2600461 396.643200
  11466  11465  11469     1   109.5600471 388.275200
  11467  11466  11468     1   109.5600471 388.275200
  11468  11466  11472     1   110.2600474 425.931200
  11469  11465  11473     1   110.2600474 425.931200
  11470  11467  11471     1   109.5800467 425.931200
  11470  11467  11483     1   109.5800467 425.931200
  11475  11481  11482     1   107.2600461 396.643200
  11479  11475  11481     1   110.2600474 425.931200
  11479  11475  11480     1   108.4600466 328.025600
  11480  11475  11481     1   110.2600474 425.931200
  11484  11485  11487     1   109.5600471 388.275200
  11484  11498  11502     1   109.5600471 388.275200
  11484  11498  11503     1   109.5600471 388.275200
  11485  11484  11486     1   109.5600471 388.275200
  11485  11488  11492     1   109.5600471 388.275200
  11485  11497  11500     1   107.2600461 396.643200
  11486  11484  11498     1   109.5600471 388.275200
  11486  11484  11506     1   109.7800468 425.094400
  11487  11485  11488     1   109.5600471 388.275200
  11487  11485  11497     1   110.2600474 425.931200
  11488  11489  11491     1   109.5600471 388.275200
  11488  11496  11499     1   107.2600461 396.643200
  11489  11488  11492     1   109.5600471 388.275200
  11489  11490  11493     1   110.2200475 386.601600
  11489  11495  11501     1   107.2600461 396.643200
  11490  11489  11491     1   109.5600471 388.275200
  11491  11489  11495     1   110.2600474 425.931200
  11492  11488  11496     1   110.2600474 425.931200
  11493  11490  11494     1   109.5800467 425.931200
  11493  11490  11506     1   109.5800467 425.931200
  11498  11504  11505     1   107.2600461 396.643200
  11502  11498  11504     1   110.2600474 425.931200
  11502  11498  11503     1   108.4600466 328.025600
  11503  11498  11504     1   110.2600474 425.931200
  11507  11508  11510     1   109.5600471 388.275200
  11507  11521  11525     1   109.5600471 388.275200
  11507  11521  11526     1   109.5600471 388.275200
  11508  11511  11515     1   109.5600471 388.275200
  11508  11520  11523     1   107.2600461 396.643200
  11508  11507  11509     1   109.5600471 388.275200
  11509  11507  11521     1   109.5600471 388.275200
  11509  11507  11529     1   109.7800468 425.094400
  11510  11508  11511     1   109.5600471 388.275200
  11510  11508  11520     1   110.2600474 425.931200
  11511  11512  11514     1   109.5600471 388.275200
  11511  11519  11522     1   107.2600461 396.643200
  11512  11513  11516     1   110.2200475 386.601600
  11512  11518  11524     1   107.2600461 396.643200
  11512  11511  11515     1   109.5600471 388.275200
  11513  11512  11514     1   109.5600471 388.275200
  11514  11512  11518     1   110.2600474 425.931200
  11515  11511  11519     1   110.2600474 425.931200
  11516  11513  11517     1   109.5800467 425.931200
  11516  11513  11529     1   109.5800467 425.931200
  11521  11527  11528     1   107.2600461 396.643200
  11525  11521  11527     1   110.2600474 425.931200
  11525  11521  11526     1   108.4600466 328.025600
  11526  11521  11527     1   110.2600474 425.931200
  11530  11531  11533     1   109.5600471 388.275200
  11530  11544  11548     1   109.5600471 388.275200
  11530  11544  11549     1   109.5600471 388.275200
  11531  11530  11532     1   109.5600471 388.275200
  11531  11534  11538     1   109.5600471 388.275200
  11531  11543  11546     1   107.2600461 396.643200
  11532  11530  11544     1   109.5600471 388.275200
  11532  11530  11552     1   109.7800468 425.094400
  11533  11531  11534     1   109.5600471 388.275200
  11533  11531  11543     1   110.2600474 425.931200
  11534  11535  11537     1   109.5600471 388.275200
  11534  11542  11545     1   107.2600461 396.643200
  11535  11534  11538     1   109.5600471 388.275200
  11535  11536  11539     1   110.2200475 386.601600
  11535  11541  11547     1   107.2600461 396.643200
  11536  11535  11537     1   109.5600471 388.275200
  11537  11535  11541     1   110.2600474 425.931200
  11538  11534  11542     1   110.2600474 425.931200
  11539  11536  11540     1   109.5800467 425.931200
  11539  11536  11552     1   109.5800467 425.931200
  11544  11550  11551     1   107.2600461 396.643200
  11548  11544  11550     1   110.2600474 425.931200
  11548  11544  11549     1   108.4600466 328.025600
  11549  11544  11550     1   110.2600474 425.931200
  11553  11554  11556     1   109.5600471 388.275200
  11553  11567  11571     1   109.5600471 388.275200
  11553  11567  11572     1   109.5600471 388.275200
  11554  11557  11561     1   109.5600471 388.275200
  11554  11566  11569     1   107.2600461 396.643200
  11554  11553  11555     1   109.5600471 388.275200
  11555  11553  11567     1   109.5600471 388.275200
  11555  11553  11575     1   109.7800468 425.094400
  11556  11554  11557     1   109.5600471 388.275200
  11556  11554  11566     1   110.2600474 425.931200
  11557  11558  11560     1   109.5600471 388.275200
  11557  11565  11568     1   107.2600461 396.643200
  11558  11559  11562     1   110.2200475 386.601600
  11558  11564  11570     1   107.2600461 396.643200
  11558  11557  11561     1   109.5600471 388.275200
  11559  11558  11560     1   109.5600471 388.275200
  11560  11558  11564     1   110.2600474 425.931200
  11561  11557  11565     1   110.2600474 425.931200
  11562  11559  11563     1   109.5800467 425.931200
  11562  11559  11575     1   109.5800467 425.931200
  11567  11573  11574     1   107.2600461 396.643200
  11571  11567  11573     1   110.2600474 425.931200
  11571  11567  11572     1   108.4600466 328.025600
  11572  11567  11573     1   110.2600474 425.931200
  11576  11577  11579     1   109.5600471 388.275200
  11576  11590  11594     1   109.5600471 388.275200
  11576  11590  11595     1   109.5600471 388.275200
  11577  11576  11578     1   109.5600471 388.275200
  11577  11580  11584     1   109.5600471 388.275200
  11577  11589  11592     1   107.2600461 396.643200
  11578  11576  11590     1   109.5600471 388.275200
  11578  11576  11598     1   109.7800468 425.094400
  11579  11577  11580     1   109.5600471 388.275200
  11579  11577  11589     1   110.2600474 425.931200
  11580  11581  11583     1   109.5600471 388.275200
  11580  11588  11591     1   107.2600461 396.643200
  11581  11580  11584     1   109.5600471 388.275200
  11581  11582  11585     1   110.2200475 386.601600
  11581  11587  11593     1   107.2600461 396.643200
  11582  11581  11583     1   109.5600471 388.275200
  11583  11581  11587     1   110.2600474 425.931200
  11584  11580  11588     1   110.2600474 425.931200
  11585  11582  11586     1   109.5800467 425.931200
  11585  11582  11598     1   109.5800467 425.931200
  11590  11596  11597     1   107.2600461 396.643200
  11594  11590  11596     1   110.2600474 425.931200
  11594  11590  11595     1   108.4600466 328.025600
  11595  11590  11596     1   110.2600474 425.931200
  11599  11600  11602     1   109.5600471 388.275200
  11599  11613  11617     1   109.5600471 388.275200
  11599  11613  11618     1   109.5600471 388.275200
  11600  11603  11607     1   109.5600471 388.275200
  11600  11612  11615     1   107.2600461 396.643200
  11600  11599  11601     1   109.5600471 388.275200
  11601  11599  11613     1   109.5600471 388.275200
  11601  11599  11621     1   109.7800468 425.094400
  11602  11600  11603     1   109.5600471 388.275200
  11602  11600  11612     1   110.2600474 425.931200
  11603  11604  11606     1   109.5600471 388.275200
  11603  11611  11614     1   107.2600461 396.643200
  11604  11605  11608     1   110.2200475 386.601600
  11604  11610  11616     1   107.2600461 396.643200
  11604  11603  11607     1   109.5600471 388.275200
  11605  11604  11606     1   109.5600471 388.275200
  11606  11604  11610     1   110.2600474 425.931200
  11607  11603  11611     1   110.2600474 425.931200
  11608  11605  11609     1   109.5800467 425.931200
  11608  11605  11621     1   109.5800467 425.931200
  11613  11619  11620     1   107.2600461 396.643200
  11617  11613  11619     1   110.2600474 425.931200
  11617  11613  11618     1   108.4600466 328.025600
  11618  11613  11619     1   110.2600474 425.931200
  11622  11623  11625     1   109.5600471 388.275200
  11622  11636  11640     1   109.5600471 388.275200
  11622  11636  11641     1   109.5600471 388.275200
  11623  11622  11624     1   109.5600471 388.275200
  11623  11626  11630     1   109.5600471 388.275200
  11623  11635  11638     1   107.2600461 396.643200
  11624  11622  11636     1   109.5600471 388.275200
  11624  11622  11644     1   109.7800468 425.094400
  11625  11623  11626     1   109.5600471 388.275200
  11625  11623  11635     1   110.2600474 425.931200
  11626  11627  11629     1   109.5600471 388.275200
  11626  11634  11637     1   107.2600461 396.643200
  11627  11626  11630     1   109.5600471 388.275200
  11627  11628  11631     1   110.2200475 386.601600
  11627  11633  11639     1   107.2600461 396.643200
  11628  11627  11629     1   109.5600471 388.275200
  11629  11627  11633     1   110.2600474 425.931200
  11630  11626  11634     1   110.2600474 425.931200
  11631  11628  11632     1   109.5800467 425.931200
  11631  11628  11644     1   109.5800467 425.931200
  11636  11642  11643     1   107.2600461 396.643200
  11640  11636  11642     1   110.2600474 425.931200
  11640  11636  11641     1   108.4600466 328.025600
  11641  11636  11642     1   110.2600474 425.931200
  11645  11646  11648     1   109.5600471 388.275200
  11645  11659  11663     1   109.5600471 388.275200
  11645  11659  11664     1   109.5600471 388.275200
  11646  11649  11653     1   109.5600471 388.275200
  11646  11658  11661     1   107.2600461 396.643200
  11646  11645  11647     1   109.5600471 388.275200
  11647  11645  11659     1   109.5600471 388.275200
  11647  11645  11667     1   109.7800468 425.094400
  11648  11646  11649     1   109.5600471 388.275200
  11648  11646  11658     1   110.2600474 425.931200
  11649  11650  11652     1   109.5600471 388.275200
  11649  11657  11660     1   107.2600461 396.643200
  11650  11651  11654     1   110.2200475 386.601600
  11650  11656  11662     1   107.2600461 396.643200
  11650  11649  11653     1   109.5600471 388.275200
  11651  11650  11652     1   109.5600471 388.275200
  11652  11650  11656     1   110.2600474 425.931200
  11653  11649  11657     1   110.2600474 425.931200
  11654  11651  11655     1   109.5800467 425.931200
  11654  11651  11667     1   109.5800467 425.931200
  11659  11665  11666     1   107.2600461 396.643200
  11663  11659  11665     1   110.2600474 425.931200
  11663  11659  11664     1   108.4600466 328.025600
  11664  11659  11665     1   110.2600474 425.931200
  11668  11669  11671     1   109.5600471 388.275200
  11668  11682  11686     1   109.5600471 388.275200
  11668  11682  11687     1   109.5600471 388.275200
  11669  11668  11670     1   109.5600471 388.275200
  11669  11672  11676     1   109.5600471 388.275200
  11669  11681  11684     1   107.2600461 396.643200
  11670  11668  11682     1   109.5600471 388.275200
  11670  11668  11690     1   109.7800468 425.094400
  11671  11669  11672     1   109.5600471 388.275200
  11671  11669  11681     1   110.2600474 425.931200
  11672  11673  11675     1   109.5600471 388.275200
  11672  11680  11683     1   107.2600461 396.643200
  11673  11672  11676     1   109.5600471 388.275200
  11673  11674  11677     1   110.2200475 386.601600
  11673  11679  11685     1   107.2600461 396.643200
  11674  11673  11675     1   109.5600471 388.275200
  11675  11673  11679     1   110.2600474 425.931200
  11676  11672  11680     1   110.2600474 425.931200
  11677  11674  11678     1   109.5800467 425.931200
  11677  11674  11690     1   109.5800467 425.931200
  11682  11688  11689     1   107.2600461 396.643200
  11686  11682  11688     1   110.2600474 425.931200
  11686  11682  11687     1   108.4600466 328.025600
  11687  11682  11688     1   110.2600474 425.931200
  11691  11692  11694     1   109.5600471 388.275200
  11691  11705  11709     1   109.5600471 388.275200
  11691  11705  11710     1   109.5600471 388.275200
  11692  11695  11699     1   109.5600471 388.275200
  11692  11704  11707     1   107.2600461 396.643200
  11692  11691  11693     1   109.5600471 388.275200
  11693  11691  11705     1   109.5600471 388.275200
  11693  11691  11713     1   109.7800468 425.094400
  11694  11692  11695     1   109.5600471 388.275200
  11694  11692  11704     1   110.2600474 425.931200
  11695  11696  11698     1   109.5600471 388.275200
  11695  11703  11706     1   107.2600461 396.643200
  11696  11697  11700     1   110.2200475 386.601600
  11696  11702  11708     1   107.2600461 396.643200
  11696  11695  11699     1   109.5600471 388.275200
  11697  11696  11698     1   109.5600471 388.275200
  11698  11696  11702     1   110.2600474 425.931200
  11699  11695  11703     1   110.2600474 425.931200
  11700  11697  11701     1   109.5800467 425.931200
  11700  11697  11713     1   109.5800467 425.931200
  11705  11711  11712     1   107.2600461 396.643200
  11709  11705  11711     1   110.2600474 425.931200
  11709  11705  11710     1   108.4600466 328.025600
  11710  11705  11711     1   110.2600474 425.931200
  11714  11715  11717     1   109.5600471 388.275200
  11714  11728  11732     1   109.5600471 388.275200
  11714  11728  11733     1   109.5600471 388.275200
  11715  11714  11716     1   109.5600471 388.275200
  11715  11718  11722     1   109.5600471 388.275200
  11715  11727  11730     1   107.2600461 396.643200
  11716  11714  11728     1   109.5600471 388.275200
  11716  11714  11736     1   109.7800468 425.094400
  11717  11715  11718     1   109.5600471 388.275200
  11717  11715  11727     1   110.2600474 425.931200
  11718  11719  11721     1   109.5600471 388.275200
  11718  11726  11729     1   107.2600461 396.643200
  11719  11718  11722     1   109.5600471 388.275200
  11719  11720  11723     1   110.2200475 386.601600
  11719  11725  11731     1   107.2600461 396.643200
  11720  11719  11721     1   109.5600471 388.275200
  11721  11719  11725     1   110.2600474 425.931200
  11722  11718  11726     1   110.2600474 425.931200
  11723  11720  11724     1   109.5800467 425.931200
  11723  11720  11736     1   109.5800467 425.931200
  11728  11734  11735     1   107.2600461 396.643200
  11732  11728  11734     1   110.2600474 425.931200
  11732  11728  11733     1   108.4600466 328.025600
  11733  11728  11734     1   110.2600474 425.931200
  11737  11738  11740     1   109.5600471 388.275200
  11737  11751  11755     1   109.5600471 388.275200
  11737  11751  11756     1   109.5600471 388.275200
  11738  11741  11745     1   109.5600471 388.275200
  11738  11750  11753     1   107.2600461 396.643200
  11738  11737  11739     1   109.5600471 388.275200
  11739  11737  11751     1   109.5600471 388.275200
  11739  11737  11759     1   109.7800468 425.094400
  11740  11738  11741     1   109.5600471 388.275200
  11740  11738  11750     1   110.2600474 425.931200
  11741  11742  11744     1   109.5600471 388.275200
  11741  11749  11752     1   107.2600461 396.643200
  11742  11743  11746     1   110.2200475 386.601600
  11742  11748  11754     1   107.2600461 396.643200
  11742  11741  11745     1   109.5600471 388.275200
  11743  11742  11744     1   109.5600471 388.275200
  11744  11742  11748     1   110.2600474 425.931200
  11745  11741  11749     1   110.2600474 425.931200
  11746  11743  11747     1   109.5800467 425.931200
  11746  11743  11759     1   109.5800467 425.931200
  11751  11757  11758     1   107.2600461 396.643200
  11755  11751  11757     1   110.2600474 425.931200
  11755  11751  11756     1   108.4600466 328.025600
  11756  11751  11757     1   110.2600474 425.931200
  11760  11761  11763     1   109.5600471 388.275200
  11760  11774  11778     1   109.5600471 388.275200
  11760  11774  11779     1   109.5600471 388.275200
  11761  11760  11762     1   109.5600471 388.275200
  11761  11764  11768     1   109.5600471 388.275200
  11761  11773  11776     1   107.2600461 396.643200
  11762  11760  11774     1   109.5600471 388.275200
  11762  11760  11782     1   109.7800468 425.094400
  11763  11761  11764     1   109.5600471 388.275200
  11763  11761  11773     1   110.2600474 425.931200
  11764  11765  11767     1   109.5600471 388.275200
  11764  11772  11775     1   107.2600461 396.643200
  11765  11764  11768     1   109.5600471 388.275200
  11765  11766  11769     1   110.2200475 386.601600
  11765  11771  11777     1   107.2600461 396.643200
  11766  11765  11767     1   109.5600471 388.275200
  11767  11765  11771     1   110.2600474 425.931200
  11768  11764  11772     1   110.2600474 425.931200
  11769  11766  11770     1   109.5800467 425.931200
  11769  11766  11782     1   109.5800467 425.931200
  11774  11780  11781     1   107.2600461 396.643200
  11778  11774  11780     1   110.2600474 425.931200
  11778  11774  11779     1   108.4600466 328.025600
  11779  11774  11780     1   110.2600474 425.931200
  11783  11784  11786     1   109.5600471 388.275200
  11783  11797  11801     1   109.5600471 388.275200
  11783  11797  11802     1   109.5600471 388.275200
  11784  11787  11791     1   109.5600471 388.275200
  11784  11796  11799     1   107.2600461 396.643200
  11784  11783  11785     1   109.5600471 388.275200
  11785  11783  11797     1   109.5600471 388.275200
  11785  11783  11805     1   109.7800468 425.094400
  11786  11784  11787     1   109.5600471 388.275200
  11786  11784  11796     1   110.2600474 425.931200
  11787  11788  11790     1   109.5600471 388.275200
  11787  11795  11798     1   107.2600461 396.643200
  11788  11789  11792     1   110.2200475 386.601600
  11788  11794  11800     1   107.2600461 396.643200
  11788  11787  11791     1   109.5600471 388.275200
  11789  11788  11790     1   109.5600471 388.275200
  11790  11788  11794     1   110.2600474 425.931200
  11791  11787  11795     1   110.2600474 425.931200
  11792  11789  11793     1   109.5800467 425.931200
  11792  11789  11805     1   109.5800467 425.931200
  11797  11803  11804     1   107.2600461 396.643200
  11801  11797  11803     1   110.2600474 425.931200
  11801  11797  11802     1   108.4600466 328.025600
  11802  11797  11803     1   110.2600474 425.931200
  11806  11807  11809     1   109.5600471 388.275200
  11806  11820  11824     1   109.5600471 388.275200
  11806  11820  11825     1   109.5600471 388.275200
  11807  11806  11808     1   109.5600471 388.275200
  11807  11810  11814     1   109.5600471 388.275200
  11807  11819  11822     1   107.2600461 396.643200
  11808  11806  11820     1   109.5600471 388.275200
  11808  11806  11828     1   109.7800468 425.094400
  11809  11807  11810     1   109.5600471 388.275200
  11809  11807  11819     1   110.2600474 425.931200
  11810  11811  11813     1   109.5600471 388.275200
  11810  11818  11821     1   107.2600461 396.643200
  11811  11810  11814     1   109.5600471 388.275200
  11811  11812  11815     1   110.2200475 386.601600
  11811  11817  11823     1   107.2600461 396.643200
  11812  11811  11813     1   109.5600471 388.275200
  11813  11811  11817     1   110.2600474 425.931200
  11814  11810  11818     1   110.2600474 425.931200
  11815  11812  11816     1   109.5800467 425.931200
  11815  11812  11828     1   109.5800467 425.931200
  11820  11826  11827     1   107.2600461 396.643200
  11824  11820  11826     1   110.2600474 425.931200
  11824  11820  11825     1   108.4600466 328.025600
  11825  11820  11826     1   110.2600474 425.931200
  11829  11830  11832     1   109.5600471 388.275200
  11829  11843  11847     1   109.5600471 388.275200
  11829  11843  11848     1   109.5600471 388.275200
  11830  11833  11837     1   109.5600471 388.275200
  11830  11842  11845     1   107.2600461 396.643200
  11830  11829  11831     1   109.5600471 388.275200
  11831  11829  11843     1   109.5600471 388.275200
  11831  11829  11851     1   109.7800468 425.094400
  11832  11830  11833     1   109.5600471 388.275200
  11832  11830  11842     1   110.2600474 425.931200
  11833  11834  11836     1   109.5600471 388.275200
  11833  11841  11844     1   107.2600461 396.643200
  11834  11835  11838     1   110.2200475 386.601600
  11834  11840  11846     1   107.2600461 396.643200
  11834  11833  11837     1   109.5600471 388.275200
  11835  11834  11836     1   109.5600471 388.275200
  11836  11834  11840     1   110.2600474 425.931200
  11837  11833  11841     1   110.2600474 425.931200
  11838  11835  11839     1   109.5800467 425.931200
  11838  11835  11851     1   109.5800467 425.931200
  11843  11849  11850     1   107.2600461 396.643200
  11847  11843  11849     1   110.2600474 425.931200
  11847  11843  11848     1   108.4600466 328.025600
  11848  11843  11849     1   110.2600474 425.931200
  11852  11853  11855     1   109.5600471 388.275200
  11852  11866  11870     1   109.5600471 388.275200
  11852  11866  11871     1   109.5600471 388.275200
  11853  11852  11854     1   109.5600471 388.275200
  11853  11856  11860     1   109.5600471 388.275200
  11853  11865  11868     1   107.2600461 396.643200
  11854  11852  11866     1   109.5600471 388.275200
  11854  11852  11874     1   109.7800468 425.094400
  11855  11853  11856     1   109.5600471 388.275200
  11855  11853  11865     1   110.2600474 425.931200
  11856  11857  11859     1   109.5600471 388.275200
  11856  11864  11867     1   107.2600461 396.643200
  11857  11856  11860     1   109.5600471 388.275200
  11857  11858  11861     1   110.2200475 386.601600
  11857  11863  11869     1   107.2600461 396.643200
  11858  11857  11859     1   109.5600471 388.275200
  11859  11857  11863     1   110.2600474 425.931200
  11860  11856  11864     1   110.2600474 425.931200
  11861  11858  11862     1   109.5800467 425.931200
  11861  11858  11874     1   109.5800467 425.931200
  11866  11872  11873     1   107.2600461 396.643200
  11870  11866  11872     1   110.2600474 425.931200
  11870  11866  11871     1   108.4600466 328.025600
  11871  11866  11872     1   110.2600474 425.931200
  11875  11876  11878     1   109.5600471 388.275200
  11875  11889  11893     1   109.5600471 388.275200
  11875  11889  11894     1   109.5600471 388.275200
  11876  11879  11883     1   109.5600471 388.275200
  11876  11888  11891     1   107.2600461 396.643200
  11876  11875  11877     1   109.5600471 388.275200
  11877  11875  11889     1   109.5600471 388.275200
  11877  11875  11897     1   109.7800468 425.094400
  11878  11876  11879     1   109.5600471 388.275200
  11878  11876  11888     1   110.2600474 425.931200
  11879  11880  11882     1   109.5600471 388.275200
  11879  11887  11890     1   107.2600461 396.643200
  11880  11881  11884     1   110.2200475 386.601600
  11880  11886  11892     1   107.2600461 396.643200
  11880  11879  11883     1   109.5600471 388.275200
  11881  11880  11882     1   109.5600471 388.275200
  11882  11880  11886     1   110.2600474 425.931200
  11883  11879  11887     1   110.2600474 425.931200
  11884  11881  11885     1   109.5800467 425.931200
  11884  11881  11897     1   109.5800467 425.931200
  11889  11895  11896     1   107.2600461 396.643200
  11893  11889  11895     1   110.2600474 425.931200
  11893  11889  11894     1   108.4600466 328.025600
  11894  11889  11895     1   110.2600474 425.931200
  11898  11899  11901     1   109.5600471 388.275200
  11898  11912  11916     1   109.5600471 388.275200
  11898  11912  11917     1   109.5600471 388.275200
  11899  11898  11900     1   109.5600471 388.275200
  11899  11902  11906     1   109.5600471 388.275200
  11899  11911  11914     1   107.2600461 396.643200
  11900  11898  11912     1   109.5600471 388.275200
  11900  11898  11920     1   109.7800468 425.094400
  11901  11899  11902     1   109.5600471 388.275200
  11901  11899  11911     1   110.2600474 425.931200
  11902  11903  11905     1   109.5600471 388.275200
  11902  11910  11913     1   107.2600461 396.643200
  11903  11902  11906     1   109.5600471 388.275200
  11903  11904  11907     1   110.2200475 386.601600
  11903  11909  11915     1   107.2600461 396.643200
  11904  11903  11905     1   109.5600471 388.275200
  11905  11903  11909     1   110.2600474 425.931200
  11906  11902  11910     1   110.2600474 425.931200
  11907  11904  11908     1   109.5800467 425.931200
  11907  11904  11920     1   109.5800467 425.931200
  11912  11918  11919     1   107.2600461 396.643200
  11916  11912  11918     1   110.2600474 425.931200
  11916  11912  11917     1   108.4600466 328.025600
  11917  11912  11918     1   110.2600474 425.931200
  11921  11922  11924     1   109.5600471 388.275200
  11921  11935  11939     1   109.5600471 388.275200
  11921  11935  11940     1   109.5600471 388.275200
  11922  11925  11929     1   109.5600471 388.275200
  11922  11934  11937     1   107.2600461 396.643200
  11922  11921  11923     1   109.5600471 388.275200
  11923  11921  11935     1   109.5600471 388.275200
  11923  11921  11943     1   109.7800468 425.094400
  11924  11922  11925     1   109.5600471 388.275200
  11924  11922  11934     1   110.2600474 425.931200
  11925  11926  11928     1   109.5600471 388.275200
  11925  11933  11936     1   107.2600461 396.643200
  11926  11927  11930     1   110.2200475 386.601600
  11926  11932  11938     1   107.2600461 396.643200
  11926  11925  11929     1   109.5600471 388.275200
  11927  11926  11928     1   109.5600471 388.275200
  11928  11926  11932     1   110.2600474 425.931200
  11929  11925  11933     1   110.2600474 425.931200
  11930  11927  11931     1   109.5800467 425.931200
  11930  11927  11943     1   109.5800467 425.931200
  11935  11941  11942     1   107.2600461 396.643200
  11939  11935  11941     1   110.2600474 425.931200
  11939  11935  11940     1   108.4600466 328.025600
  11940  11935  11941     1   110.2600474 425.931200
  11944  11945  11947     1   109.5600471 388.275200
  11944  11958  11962     1   109.5600471 388.275200
  11944  11958  11963     1   109.5600471 388.275200
  11945  11944  11946     1   109.5600471 388.275200
  11945  11948  11952     1   109.5600471 388.275200
  11945  11957  11960     1   107.2600461 396.643200
  11946  11944  11958     1   109.5600471 388.275200
  11946  11944  11966     1   109.7800468 425.094400
  11947  11945  11948     1   109.5600471 388.275200
  11947  11945  11957     1   110.2600474 425.931200
  11948  11949  11951     1   109.5600471 388.275200
  11948  11956  11959     1   107.2600461 396.643200
  11949  11948  11952     1   109.5600471 388.275200
  11949  11950  11953     1   110.2200475 386.601600
  11949  11955  11961     1   107.2600461 396.643200
  11950  11949  11951     1   109.5600471 388.275200
  11951  11949  11955     1   110.2600474 425.931200
  11952  11948  11956     1   110.2600474 425.931200
  11953  11950  11954     1   109.5800467 425.931200
  11953  11950  11966     1   109.5800467 425.931200
  11958  11964  11965     1   107.2600461 396.643200
  11962  11958  11964     1   110.2600474 425.931200
  11962  11958  11963     1   108.4600466 328.025600
  11963  11958  11964     1   110.2600474 425.931200
  11967  11968  11970     1   109.5600471 388.275200
  11967  11981  11985     1   109.5600471 388.275200
  11967  11981  11986     1   109.5600471 388.275200
  11968  11971  11975     1   109.5600471 388.275200
  11968  11980  11983     1   107.2600461 396.643200
  11968  11967  11969     1   109.5600471 388.275200
  11969  11967  11981     1   109.5600471 388.275200
  11969  11967  11989     1   109.7800468 425.094400
  11970  11968  11971     1   109.5600471 388.275200
  11970  11968  11980     1   110.2600474 425.931200
  11971  11972  11974     1   109.5600471 388.275200
  11971  11979  11982     1   107.2600461 396.643200
  11972  11973  11976     1   110.2200475 386.601600
  11972  11978  11984     1   107.2600461 396.643200
  11972  11971  11975     1   109.5600471 388.275200
  11973  11972  11974     1   109.5600471 388.275200
  11974  11972  11978     1   110.2600474 425.931200
  11975  11971  11979     1   110.2600474 425.931200
  11976  11973  11977     1   109.5800467 425.931200
  11976  11973  11989     1   109.5800467 425.931200
  11981  11987  11988     1   107.2600461 396.643200
  11985  11981  11987     1   110.2600474 425.931200
  11985  11981  11986     1   108.4600466 328.025600
  11986  11981  11987     1   110.2600474 425.931200
  11990  11991  11993     1   109.5600471 388.275200
  11990  12004  12008     1   109.5600471 388.275200
  11990  12004  12009     1   109.5600471 388.275200
  11991  11990  11992     1   109.5600471 388.275200
  11991  11994  11998     1   109.5600471 388.275200
  11991  12003  12006     1   107.2600461 396.643200
  11992  11990  12004     1   109.5600471 388.275200
  11992  11990  12012     1   109.7800468 425.094400
  11993  11991  11994     1   109.5600471 388.275200
  11993  11991  12003     1   110.2600474 425.931200
  11994  11995  11997     1   109.5600471 388.275200
  11994  12002  12005     1   107.2600461 396.643200
  11995  11994  11998     1   109.5600471 388.275200
  11995  11996  11999     1   110.2200475 386.601600
  11995  12001  12007     1   107.2600461 396.643200
  11996  11995  11997     1   109.5600471 388.275200
  11997  11995  12001     1   110.2600474 425.931200
  11998  11994  12002     1   110.2600474 425.931200
  11999  11996  12000     1   109.5800467 425.931200
  11999  11996  12012     1   109.5800467 425.931200
  12004  12010  12011     1   107.2600461 396.643200
  12008  12004  12010     1   110.2600474 425.931200
  12008  12004  12009     1   108.4600466 328.025600
  12009  12004  12010     1   110.2600474 425.931200
  12013  12014  12016     1   109.5600471 388.275200
  12013  12027  12031     1   109.5600471 388.275200
  12013  12027  12032     1   109.5600471 388.275200
  12014  12017  12021     1   109.5600471 388.275200
  12014  12026  12029     1   107.2600461 396.643200
  12014  12013  12015     1   109.5600471 388.275200
  12015  12013  12027     1   109.5600471 388.275200
  12015  12013  12035     1   109.7800468 425.094400
  12016  12014  12017     1   109.5600471 388.275200
  12016  12014  12026     1   110.2600474 425.931200
  12017  12018  12020     1   109.5600471 388.275200
  12017  12025  12028     1   107.2600461 396.643200
  12018  12019  12022     1   110.2200475 386.601600
  12018  12024  12030     1   107.2600461 396.643200
  12018  12017  12021     1   109.5600471 388.275200
  12019  12018  12020     1   109.5600471 388.275200
  12020  12018  12024     1   110.2600474 425.931200
  12021  12017  12025     1   110.2600474 425.931200
  12022  12019  12023     1   109.5800467 425.931200
  12022  12019  12035     1   109.5800467 425.931200
  12027  12033  12034     1   107.2600461 396.643200
  12031  12027  12033     1   110.2600474 425.931200
  12031  12027  12032     1   108.4600466 328.025600
  12032  12027  12033     1   110.2600474 425.931200
  12036  12037  12039     1   109.5600471 388.275200
  12036  12050  12054     1   109.5600471 388.275200
  12036  12050  12055     1   109.5600471 388.275200
  12037  12036  12038     1   109.5600471 388.275200
  12037  12040  12044     1   109.5600471 388.275200
  12037  12049  12052     1   107.2600461 396.643200
  12038  12036  12050     1   109.5600471 388.275200
  12038  12036  12058     1   109.7800468 425.094400
  12039  12037  12040     1   109.5600471 388.275200
  12039  12037  12049     1   110.2600474 425.931200
  12040  12041  12043     1   109.5600471 388.275200
  12040  12048  12051     1   107.2600461 396.643200
  12041  12040  12044     1   109.5600471 388.275200
  12041  12042  12045     1   110.2200475 386.601600
  12041  12047  12053     1   107.2600461 396.643200
  12042  12041  12043     1   109.5600471 388.275200
  12043  12041  12047     1   110.2600474 425.931200
  12044  12040  12048     1   110.2600474 425.931200
  12045  12042  12046     1   109.5800467 425.931200
  12045  12042  12058     1   109.5800467 425.931200
  12050  12056  12057     1   107.2600461 396.643200
  12054  12050  12056     1   110.2600474 425.931200
  12054  12050  12055     1   108.4600466 328.025600
  12055  12050  12056     1   110.2600474 425.931200
  12059  12060  12062     1   109.5600471 388.275200
  12059  12073  12077     1   109.5600471 388.275200
  12059  12073  12078     1   109.5600471 388.275200
  12060  12063  12067     1   109.5600471 388.275200
  12060  12072  12075     1   107.2600461 396.643200
  12060  12059  12061     1   109.5600471 388.275200
  12061  12059  12073     1   109.5600471 388.275200
  12061  12059  12081     1   109.7800468 425.094400
  12062  12060  12063     1   109.5600471 388.275200
  12062  12060  12072     1   110.2600474 425.931200
  12063  12064  12066     1   109.5600471 388.275200
  12063  12071  12074     1   107.2600461 396.643200
  12064  12065  12068     1   110.2200475 386.601600
  12064  12070  12076     1   107.2600461 396.643200
  12064  12063  12067     1   109.5600471 388.275200
  12065  12064  12066     1   109.5600471 388.275200
  12066  12064  12070     1   110.2600474 425.931200
  12067  12063  12071     1   110.2600474 425.931200
  12068  12065  12069     1   109.5800467 425.931200
  12068  12065  12081     1   109.5800467 425.931200
  12073  12079  12080     1   107.2600461 396.643200
  12077  12073  12079     1   110.2600474 425.931200
  12077  12073  12078     1   108.4600466 328.025600
  12078  12073  12079     1   110.2600474 425.931200
  12082  12083  12085     1   109.5600471 388.275200
  12082  12096  12100     1   109.5600471 388.275200
  12082  12096  12101     1   109.5600471 388.275200
  12083  12082  12084     1   109.5600471 388.275200
  12083  12086  12090     1   109.5600471 388.275200
  12083  12095  12098     1   107.2600461 396.643200
  12084  12082  12096     1   109.5600471 388.275200
  12084  12082  12104     1   109.7800468 425.094400
  12085  12083  12086     1   109.5600471 388.275200
  12085  12083  12095     1   110.2600474 425.931200
  12086  12087  12089     1   109.5600471 388.275200
  12086  12094  12097     1   107.2600461 396.643200
  12087  12086  12090     1   109.5600471 388.275200
  12087  12088  12091     1   110.2200475 386.601600
  12087  12093  12099     1   107.2600461 396.643200
  12088  12087  12089     1   109.5600471 388.275200
  12089  12087  12093     1   110.2600474 425.931200
  12090  12086  12094     1   110.2600474 425.931200
  12091  12088  12092     1   109.5800467 425.931200
  12091  12088  12104     1   109.5800467 425.931200
  12096  12102  12103     1   107.2600461 396.643200
  12100  12096  12102     1   110.2600474 425.931200
  12100  12096  12101     1   108.4600466 328.025600
  12101  12096  12102     1   110.2600474 425.931200
  12105  12106  12108     1   109.5600471 388.275200
  12105  12119  12123     1   109.5600471 388.275200
  12105  12119  12124     1   109.5600471 388.275200
  12106  12109  12113     1   109.5600471 388.275200
  12106  12118  12121     1   107.2600461 396.643200
  12106  12105  12107     1   109.5600471 388.275200
  12107  12105  12119     1   109.5600471 388.275200
  12107  12105  12127     1   109.7800468 425.094400
  12108  12106  12109     1   109.5600471 388.275200
  12108  12106  12118     1   110.2600474 425.931200
  12109  12110  12112     1   109.5600471 388.275200
  12109  12117  12120     1   107.2600461 396.643200
  12110  12111  12114     1   110.2200475 386.601600
  12110  12116  12122     1   107.2600461 396.643200
  12110  12109  12113     1   109.5600471 388.275200
  12111  12110  12112     1   109.5600471 388.275200
  12112  12110  12116     1   110.2600474 425.931200
  12113  12109  12117     1   110.2600474 425.931200
  12114  12111  12115     1   109.5800467 425.931200
  12114  12111  12127     1   109.5800467 425.931200
  12119  12125  12126     1   107.2600461 396.643200
  12123  12119  12125     1   110.2600474 425.931200
  12123  12119  12124     1   108.4600466 328.025600
  12124  12119  12125     1   110.2600474 425.931200
  12128  12129  12131     1   109.5600471 388.275200
  12128  12142  12146     1   109.5600471 388.275200
  12128  12142  12147     1   109.5600471 388.275200
  12129  12128  12130     1   109.5600471 388.275200
  12129  12132  12136     1   109.5600471 388.275200
  12129  12141  12144     1   107.2600461 396.643200
  12130  12128  12142     1   109.5600471 388.275200
  12130  12128  12150     1   109.7800468 425.094400
  12131  12129  12132     1   109.5600471 388.275200
  12131  12129  12141     1   110.2600474 425.931200
  12132  12133  12135     1   109.5600471 388.275200
  12132  12140  12143     1   107.2600461 396.643200
  12133  12132  12136     1   109.5600471 388.275200
  12133  12134  12137     1   110.2200475 386.601600
  12133  12139  12145     1   107.2600461 396.643200
  12134  12133  12135     1   109.5600471 388.275200
  12135  12133  12139     1   110.2600474 425.931200
  12136  12132  12140     1   110.2600474 425.931200
  12137  12134  12138     1   109.5800467 425.931200
  12137  12134  12150     1   109.5800467 425.931200
  12142  12148  12149     1   107.2600461 396.643200
  12146  12142  12148     1   110.2600474 425.931200
  12146  12142  12147     1   108.4600466 328.025600
  12147  12142  12148     1   110.2600474 425.931200
  12151  12152  12154     1   109.5600471 388.275200
  12151  12165  12169     1   109.5600471 388.275200
  12151  12165  12170     1   109.5600471 388.275200
  12152  12155  12159     1   109.5600471 388.275200
  12152  12164  12167     1   107.2600461 396.643200
  12152  12151  12153     1   109.5600471 388.275200
  12153  12151  12165     1   109.5600471 388.275200
  12153  12151  12173     1   109.7800468 425.094400
  12154  12152  12155     1   109.5600471 388.275200
  12154  12152  12164     1   110.2600474 425.931200
  12155  12156  12158     1   109.5600471 388.275200
  12155  12163  12166     1   107.2600461 396.643200
  12156  12157  12160     1   110.2200475 386.601600
  12156  12162  12168     1   107.2600461 396.643200
  12156  12155  12159     1   109.5600471 388.275200
  12157  12156  12158     1   109.5600471 388.275200
  12158  12156  12162     1   110.2600474 425.931200
  12159  12155  12163     1   110.2600474 425.931200
  12160  12157  12161     1   109.5800467 425.931200
  12160  12157  12173     1   109.5800467 425.931200
  12165  12171  12172     1   107.2600461 396.643200
  12169  12165  12171     1   110.2600474 425.931200
  12169  12165  12170     1   108.4600466 328.025600
  12170  12165  12171     1   110.2600474 425.931200
  12174  12175  12177     1   109.5600471 388.275200
  12174  12188  12192     1   109.5600471 388.275200
  12174  12188  12193     1   109.5600471 388.275200
  12175  12174  12176     1   109.5600471 388.275200
  12175  12178  12182     1   109.5600471 388.275200
  12175  12187  12190     1   107.2600461 396.643200
  12176  12174  12188     1   109.5600471 388.275200
  12176  12174  12196     1   109.7800468 425.094400
  12177  12175  12178     1   109.5600471 388.275200
  12177  12175  12187     1   110.2600474 425.931200
  12178  12179  12181     1   109.5600471 388.275200
  12178  12186  12189     1   107.2600461 396.643200
  12179  12178  12182     1   109.5600471 388.275200
  12179  12180  12183     1   110.2200475 386.601600
  12179  12185  12191     1   107.2600461 396.643200
  12180  12179  12181     1   109.5600471 388.275200
  12181  12179  12185     1   110.2600474 425.931200
  12182  12178  12186     1   110.2600474 425.931200
  12183  12180  12184     1   109.5800467 425.931200
  12183  12180  12196     1   109.5800467 425.931200
  12188  12194  12195     1   107.2600461 396.643200
  12192  12188  12194     1   110.2600474 425.931200
  12192  12188  12193     1   108.4600466 328.025600
  12193  12188  12194     1   110.2600474 425.931200
  12197  12198  12200     1   109.5600471 388.275200
  12197  12211  12215     1   109.5600471 388.275200
  12197  12211  12216     1   109.5600471 388.275200
  12198  12201  12205     1   109.5600471 388.275200
  12198  12210  12213     1   107.2600461 396.643200
  12198  12197  12199     1   109.5600471 388.275200
  12199  12197  12211     1   109.5600471 388.275200
  12199  12197  12219     1   109.7800468 425.094400
  12200  12198  12201     1   109.5600471 388.275200
  12200  12198  12210     1   110.2600474 425.931200
  12201  12202  12204     1   109.5600471 388.275200
  12201  12209  12212     1   107.2600461 396.643200
  12202  12203  12206     1   110.2200475 386.601600
  12202  12208  12214     1   107.2600461 396.643200
  12202  12201  12205     1   109.5600471 388.275200
  12203  12202  12204     1   109.5600471 388.275200
  12204  12202  12208     1   110.2600474 425.931200
  12205  12201  12209     1   110.2600474 425.931200
  12206  12203  12207     1   109.5800467 425.931200
  12206  12203  12219     1   109.5800467 425.931200
  12211  12217  12218     1   107.2600461 396.643200
  12215  12211  12217     1   110.2600474 425.931200
  12215  12211  12216     1   108.4600466 328.025600
  12216  12211  12217     1   110.2600474 425.931200
  12220  12221  12223     1   109.5600471 388.275200
  12220  12234  12238     1   109.5600471 388.275200
  12220  12234  12239     1   109.5600471 388.275200
  12221  12220  12222     1   109.5600471 388.275200
  12221  12224  12228     1   109.5600471 388.275200
  12221  12233  12236     1   107.2600461 396.643200
  12222  12220  12234     1   109.5600471 388.275200
  12222  12220  12242     1   109.7800468 425.094400
  12223  12221  12224     1   109.5600471 388.275200
  12223  12221  12233     1   110.2600474 425.931200
  12224  12225  12227     1   109.5600471 388.275200
  12224  12232  12235     1   107.2600461 396.643200
  12225  12224  12228     1   109.5600471 388.275200
  12225  12226  12229     1   110.2200475 386.601600
  12225  12231  12237     1   107.2600461 396.643200
  12226  12225  12227     1   109.5600471 388.275200
  12227  12225  12231     1   110.2600474 425.931200
  12228  12224  12232     1   110.2600474 425.931200
  12229  12226  12230     1   109.5800467 425.931200
  12229  12226  12242     1   109.5800467 425.931200
  12234  12240  12241     1   107.2600461 396.643200
  12238  12234  12240     1   110.2600474 425.931200
  12238  12234  12239     1   108.4600466 328.025600
  12239  12234  12240     1   110.2600474 425.931200
  12243  12244  12246     1   109.5600471 388.275200
  12243  12257  12261     1   109.5600471 388.275200
  12243  12257  12262     1   109.5600471 388.275200
  12244  12247  12251     1   109.5600471 388.275200
  12244  12256  12259     1   107.2600461 396.643200
  12244  12243  12245     1   109.5600471 388.275200
  12245  12243  12257     1   109.5600471 388.275200
  12245  12243  12265     1   109.7800468 425.094400
  12246  12244  12247     1   109.5600471 388.275200
  12246  12244  12256     1   110.2600474 425.931200
  12247  12248  12250     1   109.5600471 388.275200
  12247  12255  12258     1   107.2600461 396.643200
  12248  12249  12252     1   110.2200475 386.601600
  12248  12254  12260     1   107.2600461 396.643200
  12248  12247  12251     1   109.5600471 388.275200
  12249  12248  12250     1   109.5600471 388.275200
  12250  12248  12254     1   110.2600474 425.931200
  12251  12247  12255     1   110.2600474 425.931200
  12252  12249  12253     1   109.5800467 425.931200
  12252  12249  12265     1   109.5800467 425.931200
  12257  12263  12264     1   107.2600461 396.643200
  12261  12257  12263     1   110.2600474 425.931200
  12261  12257  12262     1   108.4600466 328.025600
  12262  12257  12263     1   110.2600474 425.931200
  12266  12267  12269     1   109.5600471 388.275200
  12266  12280  12284     1   109.5600471 388.275200
  12266  12280  12285     1   109.5600471 388.275200
  12267  12266  12268     1   109.5600471 388.275200
  12267  12270  12274     1   109.5600471 388.275200
  12267  12279  12282     1   107.2600461 396.643200
  12268  12266  12280     1   109.5600471 388.275200
  12268  12266  12288     1   109.7800468 425.094400
  12269  12267  12270     1   109.5600471 388.275200
  12269  12267  12279     1   110.2600474 425.931200
  12270  12271  12273     1   109.5600471 388.275200
  12270  12278  12281     1   107.2600461 396.643200
  12271  12270  12274     1   109.5600471 388.275200
  12271  12272  12275     1   110.2200475 386.601600
  12271  12277  12283     1   107.2600461 396.643200
  12272  12271  12273     1   109.5600471 388.275200
  12273  12271  12277     1   110.2600474 425.931200
  12274  12270  12278     1   110.2600474 425.931200
  12275  12272  12276     1   109.5800467 425.931200
  12275  12272  12288     1   109.5800467 425.931200
  12280  12286  12287     1   107.2600461 396.643200
  12284  12280  12286     1   110.2600474 425.931200
  12284  12280  12285     1   108.4600466 328.025600
  12285  12280  12286     1   110.2600474 425.931200
  12289  12290  12292     1   109.5600471 388.275200
  12289  12303  12307     1   109.5600471 388.275200
  12289  12303  12308     1   109.5600471 388.275200
  12290  12293  12297     1   109.5600471 388.275200
  12290  12302  12305     1   107.2600461 396.643200
  12290  12289  12291     1   109.5600471 388.275200
  12291  12289  12303     1   109.5600471 388.275200
  12291  12289  12311     1   109.7800468 425.094400
  12292  12290  12293     1   109.5600471 388.275200
  12292  12290  12302     1   110.2600474 425.931200
  12293  12294  12296     1   109.5600471 388.275200
  12293  12301  12304     1   107.2600461 396.643200
  12294  12295  12298     1   110.2200475 386.601600
  12294  12300  12306     1   107.2600461 396.643200
  12294  12293  12297     1   109.5600471 388.275200
  12295  12294  12296     1   109.5600471 388.275200
  12296  12294  12300     1   110.2600474 425.931200
  12297  12293  12301     1   110.2600474 425.931200
  12298  12295  12299     1   109.5800467 425.931200
  12298  12295  12311     1   109.5800467 425.931200
  12303  12309  12310     1   107.2600461 396.643200
  12307  12303  12309     1   110.2600474 425.931200
  12307  12303  12308     1   108.4600466 328.025600
  12308  12303  12309     1   110.2600474 425.931200
  12312  12313  12315     1   109.5600471 388.275200
  12312  12326  12330     1   109.5600471 388.275200
  12312  12326  12331     1   109.5600471 388.275200
  12313  12312  12314     1   109.5600471 388.275200
  12313  12316  12320     1   109.5600471 388.275200
  12313  12325  12328     1   107.2600461 396.643200
  12314  12312  12326     1   109.5600471 388.275200
  12314  12312  12334     1   109.7800468 425.094400
  12315  12313  12316     1   109.5600471 388.275200
  12315  12313  12325     1   110.2600474 425.931200
  12316  12317  12319     1   109.5600471 388.275200
  12316  12324  12327     1   107.2600461 396.643200
  12317  12316  12320     1   109.5600471 388.275200
  12317  12318  12321     1   110.2200475 386.601600
  12317  12323  12329     1   107.2600461 396.643200
  12318  12317  12319     1   109.5600471 388.275200
  12319  12317  12323     1   110.2600474 425.931200
  12320  12316  12324     1   110.2600474 425.931200
  12321  12318  12322     1   109.5800467 425.931200
  12321  12318  12334     1   109.5800467 425.931200
  12326  12332  12333     1   107.2600461 396.643200
  12330  12326  12332     1   110.2600474 425.931200
  12330  12326  12331     1   108.4600466 328.025600
  12331  12326  12332     1   110.2600474 425.931200
  12335  12336  12338     1   109.5600471 388.275200
  12335  12349  12353     1   109.5600471 388.275200
  12335  12349  12354     1   109.5600471 388.275200
  12336  12339  12343     1   109.5600471 388.275200
  12336  12348  12351     1   107.2600461 396.643200
  12336  12335  12337     1   109.5600471 388.275200
  12337  12335  12349     1   109.5600471 388.275200
  12337  12335  12357     1   109.7800468 425.094400
  12338  12336  12339     1   109.5600471 388.275200
  12338  12336  12348     1   110.2600474 425.931200
  12339  12340  12342     1   109.5600471 388.275200
  12339  12347  12350     1   107.2600461 396.643200
  12340  12341  12344     1   110.2200475 386.601600
  12340  12346  12352     1   107.2600461 396.643200
  12340  12339  12343     1   109.5600471 388.275200
  12341  12340  12342     1   109.5600471 388.275200
  12342  12340  12346     1   110.2600474 425.931200
  12343  12339  12347     1   110.2600474 425.931200
  12344  12341  12345     1   109.5800467 425.931200
  12344  12341  12357     1   109.5800467 425.931200
  12349  12355  12356     1   107.2600461 396.643200
  12353  12349  12355     1   110.2600474 425.931200
  12353  12349  12354     1   108.4600466 328.025600
  12354  12349  12355     1   110.2600474 425.931200
  12358  12359  12361     1   109.5600471 388.275200
  12358  12372  12376     1   109.5600471 388.275200
  12358  12372  12377     1   109.5600471 388.275200
  12359  12358  12360     1   109.5600471 388.275200
  12359  12362  12366     1   109.5600471 388.275200
  12359  12371  12374     1   107.2600461 396.643200
  12360  12358  12372     1   109.5600471 388.275200
  12360  12358  12380     1   109.7800468 425.094400
  12361  12359  12362     1   109.5600471 388.275200
  12361  12359  12371     1   110.2600474 425.931200
  12362  12363  12365     1   109.5600471 388.275200
  12362  12370  12373     1   107.2600461 396.643200
  12363  12362  12366     1   109.5600471 388.275200
  12363  12364  12367     1   110.2200475 386.601600
  12363  12369  12375     1   107.2600461 396.643200
  12364  12363  12365     1   109.5600471 388.275200
  12365  12363  12369     1   110.2600474 425.931200
  12366  12362  12370     1   110.2600474 425.931200
  12367  12364  12368     1   109.5800467 425.931200
  12367  12364  12380     1   109.5800467 425.931200
  12372  12378  12379     1   107.2600461 396.643200
  12376  12372  12378     1   110.2600474 425.931200
  12376  12372  12377     1   108.4600466 328.025600
  12377  12372  12378     1   110.2600474 425.931200
  12381  12382  12384     1   109.5600471 388.275200
  12381  12395  12399     1   109.5600471 388.275200
  12381  12395  12400     1   109.5600471 388.275200
  12382  12385  12389     1   109.5600471 388.275200
  12382  12394  12397     1   107.2600461 396.643200
  12382  12381  12383     1   109.5600471 388.275200
  12383  12381  12395     1   109.5600471 388.275200
  12383  12381  12403     1   109.7800468 425.094400
  12384  12382  12385     1   109.5600471 388.275200
  12384  12382  12394     1   110.2600474 425.931200
  12385  12386  12388     1   109.5600471 388.275200
  12385  12393  12396     1   107.2600461 396.643200
  12386  12387  12390     1   110.2200475 386.601600
  12386  12392  12398     1   107.2600461 396.643200
  12386  12385  12389     1   109.5600471 388.275200
  12387  12386  12388     1   109.5600471 388.275200
  12388  12386  12392     1   110.2600474 425.931200
  12389  12385  12393     1   110.2600474 425.931200
  12390  12387  12391     1   109.5800467 425.931200
  12390  12387  12403     1   109.5800467 425.931200
  12395  12401  12402     1   107.2600461 396.643200
  12399  12395  12401     1   110.2600474 425.931200
  12399  12395  12400     1   108.4600466 328.025600
  12400  12395  12401     1   110.2600474 425.931200
  12404  12405  12407     1   109.5600471 388.275200
  12404  12418  12422     1   109.5600471 388.275200
  12404  12418  12423     1   109.5600471 388.275200
  12405  12404  12406     1   109.5600471 388.275200
  12405  12408  12412     1   109.5600471 388.275200
  12405  12417  12420     1   107.2600461 396.643200
  12406  12404  12418     1   109.5600471 388.275200
  12406  12404  12426     1   109.7800468 425.094400
  12407  12405  12408     1   109.5600471 388.275200
  12407  12405  12417     1   110.2600474 425.931200
  12408  12409  12411     1   109.5600471 388.275200
  12408  12416  12419     1   107.2600461 396.643200
  12409  12408  12412     1   109.5600471 388.275200
  12409  12410  12413     1   110.2200475 386.601600
  12409  12415  12421     1   107.2600461 396.643200
  12410  12409  12411     1   109.5600471 388.275200
  12411  12409  12415     1   110.2600474 425.931200
  12412  12408  12416     1   110.2600474 425.931200
  12413  12410  12414     1   109.5800467 425.931200
  12413  12410  12426     1   109.5800467 425.931200
  12418  12424  12425     1   107.2600461 396.643200
  12422  12418  12424     1   110.2600474 425.931200
  12422  12418  12423     1   108.4600466 328.025600
  12423  12418  12424     1   110.2600474 425.931200
  12427  12428  12430     1   109.5600471 388.275200
  12427  12441  12445     1   109.5600471 388.275200
  12427  12441  12446     1   109.5600471 388.275200
  12428  12431  12435     1   109.5600471 388.275200
  12428  12440  12443     1   107.2600461 396.643200
  12428  12427  12429     1   109.5600471 388.275200
  12429  12427  12441     1   109.5600471 388.275200
  12429  12427  12449     1   109.7800468 425.094400
  12430  12428  12431     1   109.5600471 388.275200
  12430  12428  12440     1   110.2600474 425.931200
  12431  12432  12434     1   109.5600471 388.275200
  12431  12439  12442     1   107.2600461 396.643200
  12432  12433  12436     1   110.2200475 386.601600
  12432  12438  12444     1   107.2600461 396.643200
  12432  12431  12435     1   109.5600471 388.275200
  12433  12432  12434     1   109.5600471 388.275200
  12434  12432  12438     1   110.2600474 425.931200
  12435  12431  12439     1   110.2600474 425.931200
  12436  12433  12437     1   109.5800467 425.931200
  12436  12433  12449     1   109.5800467 425.931200
  12441  12447  12448     1   107.2600461 396.643200
  12445  12441  12447     1   110.2600474 425.931200
  12445  12441  12446     1   108.4600466 328.025600
  12446  12441  12447     1   110.2600474 425.931200
  12450  12451  12453     1   109.5600471 388.275200
  12450  12464  12468     1   109.5600471 388.275200
  12450  12464  12469     1   109.5600471 388.275200
  12451  12450  12452     1   109.5600471 388.275200
  12451  12454  12458     1   109.5600471 388.275200
  12451  12463  12466     1   107.2600461 396.643200
  12452  12450  12464     1   109.5600471 388.275200
  12452  12450  12472     1   109.7800468 425.094400
  12453  12451  12454     1   109.5600471 388.275200
  12453  12451  12463     1   110.2600474 425.931200
  12454  12455  12457     1   109.5600471 388.275200
  12454  12462  12465     1   107.2600461 396.643200
  12455  12454  12458     1   109.5600471 388.275200
  12455  12456  12459     1   110.2200475 386.601600
  12455  12461  12467     1   107.2600461 396.643200
  12456  12455  12457     1   109.5600471 388.275200
  12457  12455  12461     1   110.2600474 425.931200
  12458  12454  12462     1   110.2600474 425.931200
  12459  12456  12460     1   109.5800467 425.931200
  12459  12456  12472     1   109.5800467 425.931200
  12464  12470  12471     1   107.2600461 396.643200
  12468  12464  12470     1   110.2600474 425.931200
  12468  12464  12469     1   108.4600466 328.025600
  12469  12464  12470     1   110.2600474 425.931200
  12473  12474  12476     1   109.5600471 388.275200
  12473  12487  12491     1   109.5600471 388.275200
  12473  12487  12492     1   109.5600471 388.275200
  12474  12477  12481     1   109.5600471 388.275200
  12474  12486  12489     1   107.2600461 396.643200
  12474  12473  12475     1   109.5600471 388.275200
  12475  12473  12487     1   109.5600471 388.275200
  12475  12473  12495     1   109.7800468 425.094400
  12476  12474  12477     1   109.5600471 388.275200
  12476  12474  12486     1   110.2600474 425.931200
  12477  12478  12480     1   109.5600471 388.275200
  12477  12485  12488     1   107.2600461 396.643200
  12478  12479  12482     1   110.2200475 386.601600
  12478  12484  12490     1   107.2600461 396.643200
  12478  12477  12481     1   109.5600471 388.275200
  12479  12478  12480     1   109.5600471 388.275200
  12480  12478  12484     1   110.2600474 425.931200
  12481  12477  12485     1   110.2600474 425.931200
  12482  12479  12483     1   109.5800467 425.931200
  12482  12479  12495     1   109.5800467 425.931200
  12487  12493  12494     1   107.2600461 396.643200
  12491  12487  12493     1   110.2600474 425.931200
  12491  12487  12492     1   108.4600466 328.025600
  12492  12487  12493     1   110.2600474 425.931200
  12496  12497  12499     1   109.5600471 388.275200
  12496  12510  12514     1   109.5600471 388.275200
  12496  12510  12515     1   109.5600471 388.275200
  12497  12496  12498     1   109.5600471 388.275200
  12497  12500  12504     1   109.5600471 388.275200
  12497  12509  12512     1   107.2600461 396.643200
  12498  12496  12510     1   109.5600471 388.275200
  12498  12496  12518     1   109.7800468 425.094400
  12499  12497  12500     1   109.5600471 388.275200
  12499  12497  12509     1   110.2600474 425.931200
  12500  12501  12503     1   109.5600471 388.275200
  12500  12508  12511     1   107.2600461 396.643200
  12501  12500  12504     1   109.5600471 388.275200
  12501  12502  12505     1   110.2200475 386.601600
  12501  12507  12513     1   107.2600461 396.643200
  12502  12501  12503     1   109.5600471 388.275200
  12503  12501  12507     1   110.2600474 425.931200
  12504  12500  12508     1   110.2600474 425.931200
  12505  12502  12506     1   109.5800467 425.931200
  12505  12502  12518     1   109.5800467 425.931200
  12510  12516  12517     1   107.2600461 396.643200
  12514  12510  12516     1   110.2600474 425.931200
  12514  12510  12515     1   108.4600466 328.025600
  12515  12510  12516     1   110.2600474 425.931200
  12519  12520  12522     1   109.5600471 388.275200
  12519  12533  12537     1   109.5600471 388.275200
  12519  12533  12538     1   109.5600471 388.275200
  12520  12523  12527     1   109.5600471 388.275200
  12520  12532  12535     1   107.2600461 396.643200
  12520  12519  12521     1   109.5600471 388.275200
  12521  12519  12533     1   109.5600471 388.275200
  12521  12519  12541     1   109.7800468 425.094400
  12522  12520  12523     1   109.5600471 388.275200
  12522  12520  12532     1   110.2600474 425.931200
  12523  12524  12526     1   109.5600471 388.275200
  12523  12531  12534     1   107.2600461 396.643200
  12524  12525  12528     1   110.2200475 386.601600
  12524  12530  12536     1   107.2600461 396.643200
  12524  12523  12527     1   109.5600471 388.275200
  12525  12524  12526     1   109.5600471 388.275200
  12526  12524  12530     1   110.2600474 425.931200
  12527  12523  12531     1   110.2600474 425.931200
  12528  12525  12529     1   109.5800467 425.931200
  12528  12525  12541     1   109.5800467 425.931200
  12533  12539  12540     1   107.2600461 396.643200
  12537  12533  12539     1   110.2600474 425.931200
  12537  12533  12538     1   108.4600466 328.025600
  12538  12533  12539     1   110.2600474 425.931200
  12542  12543  12545     1   109.5600471 388.275200
  12542  12556  12560     1   109.5600471 388.275200
  12542  12556  12561     1   109.5600471 388.275200
  12543  12542  12544     1   109.5600471 388.275200
  12543  12546  12550     1   109.5600471 388.275200
  12543  12555  12558     1   107.2600461 396.643200
  12544  12542  12556     1   109.5600471 388.275200
  12544  12542  12564     1   109.7800468 425.094400
  12545  12543  12546     1   109.5600471 388.275200
  12545  12543  12555     1   110.2600474 425.931200
  12546  12547  12549     1   109.5600471 388.275200
  12546  12554  12557     1   107.2600461 396.643200
  12547  12546  12550     1   109.5600471 388.275200
  12547  12548  12551     1   110.2200475 386.601600
  12547  12553  12559     1   107.2600461 396.643200
  12548  12547  12549     1   109.5600471 388.275200
  12549  12547  12553     1   110.2600474 425.931200
  12550  12546  12554     1   110.2600474 425.931200
  12551  12548  12552     1   109.5800467 425.931200
  12551  12548  12564     1   109.5800467 425.931200
  12556  12562  12563     1   107.2600461 396.643200
  12560  12556  12562     1   110.2600474 425.931200
  12560  12556  12561     1   108.4600466 328.025600
  12561  12556  12562     1   110.2600474 425.931200
  12565  12566  12568     1   109.5600471 388.275200
  12565  12579  12583     1   109.5600471 388.275200
  12565  12579  12584     1   109.5600471 388.275200
  12566  12569  12573     1   109.5600471 388.275200
  12566  12578  12581     1   107.2600461 396.643200
  12566  12565  12567     1   109.5600471 388.275200
  12567  12565  12579     1   109.5600471 388.275200
  12567  12565  12587     1   109.7800468 425.094400
  12568  12566  12569     1   109.5600471 388.275200
  12568  12566  12578     1   110.2600474 425.931200
  12569  12570  12572     1   109.5600471 388.275200
  12569  12577  12580     1   107.2600461 396.643200
  12570  12571  12574     1   110.2200475 386.601600
  12570  12576  12582     1   107.2600461 396.643200
  12570  12569  12573     1   109.5600471 388.275200
  12571  12570  12572     1   109.5600471 388.275200
  12572  12570  12576     1   110.2600474 425.931200
  12573  12569  12577     1   110.2600474 425.931200
  12574  12571  12575     1   109.5800467 425.931200
  12574  12571  12587     1   109.5800467 425.931200
  12579  12585  12586     1   107.2600461 396.643200
  12583  12579  12585     1   110.2600474 425.931200
  12583  12579  12584     1   108.4600466 328.025600
  12584  12579  12585     1   110.2600474 425.931200
  12588  12589  12591     1   109.5600471 388.275200
  12588  12602  12606     1   109.5600471 388.275200
  12588  12602  12607     1   109.5600471 388.275200
  12589  12588  12590     1   109.5600471 388.275200
  12589  12592  12596     1   109.5600471 388.275200
  12589  12601  12604     1   107.2600461 396.643200
  12590  12588  12602     1   109.5600471 388.275200
  12590  12588  12610     1   109.7800468 425.094400
  12591  12589  12592     1   109.5600471 388.275200
  12591  12589  12601     1   110.2600474 425.931200
  12592  12593  12595     1   109.5600471 388.275200
  12592  12600  12603     1   107.2600461 396.643200
  12593  12592  12596     1   109.5600471 388.275200
  12593  12594  12597     1   110.2200475 386.601600
  12593  12599  12605     1   107.2600461 396.643200
  12594  12593  12595     1   109.5600471 388.275200
  12595  12593  12599     1   110.2600474 425.931200
  12596  12592  12600     1   110.2600474 425.931200
  12597  12594  12598     1   109.5800467 425.931200
  12597  12594  12610     1   109.5800467 425.931200
  12602  12608  12609     1   107.2600461 396.643200
  12606  12602  12608     1   110.2600474 425.931200
  12606  12602  12607     1   108.4600466 328.025600
  12607  12602  12608     1   110.2600474 425.931200
  12611  12612  12614     1   109.5600471 388.275200
  12611  12625  12629     1   109.5600471 388.275200
  12611  12625  12630     1   109.5600471 388.275200
  12612  12615  12619     1   109.5600471 388.275200
  12612  12624  12627     1   107.2600461 396.643200
  12612  12611  12613     1   109.5600471 388.275200
  12613  12611  12625     1   109.5600471 388.275200
  12613  12611  12633     1   109.7800468 425.094400
  12614  12612  12615     1   109.5600471 388.275200
  12614  12612  12624     1   110.2600474 425.931200
  12615  12616  12618     1   109.5600471 388.275200
  12615  12623  12626     1   107.2600461 396.643200
  12616  12617  12620     1   110.2200475 386.601600
  12616  12622  12628     1   107.2600461 396.643200
  12616  12615  12619     1   109.5600471 388.275200
  12617  12616  12618     1   109.5600471 388.275200
  12618  12616  12622     1   110.2600474 425.931200
  12619  12615  12623     1   110.2600474 425.931200
  12620  12617  12621     1   109.5800467 425.931200
  12620  12617  12633     1   109.5800467 425.931200
  12625  12631  12632     1   107.2600461 396.643200
  12629  12625  12631     1   110.2600474 425.931200
  12629  12625  12630     1   108.4600466 328.025600
  12630  12625  12631     1   110.2600474 425.931200
  12634  12635  12637     1   109.5600471 388.275200
  12634  12648  12652     1   109.5600471 388.275200
  12634  12648  12653     1   109.5600471 388.275200
  12635  12634  12636     1   109.5600471 388.275200
  12635  12638  12642     1   109.5600471 388.275200
  12635  12647  12650     1   107.2600461 396.643200
  12636  12634  12648     1   109.5600471 388.275200
  12636  12634  12656     1   109.7800468 425.094400
  12637  12635  12638     1   109.5600471 388.275200
  12637  12635  12647     1   110.2600474 425.931200
  12638  12639  12641     1   109.5600471 388.275200
  12638  12646  12649     1   107.2600461 396.643200
  12639  12638  12642     1   109.5600471 388.275200
  12639  12640  12643     1   110.2200475 386.601600
  12639  12645  12651     1   107.2600461 396.643200
  12640  12639  12641     1   109.5600471 388.275200
  12641  12639  12645     1   110.2600474 425.931200
  12642  12638  12646     1   110.2600474 425.931200
  12643  12640  12644     1   109.5800467 425.931200
  12643  12640  12656     1   109.5800467 425.931200
  12648  12654  12655     1   107.2600461 396.643200
  12652  12648  12654     1   110.2600474 425.931200
  12652  12648  12653     1   108.4600466 328.025600
  12653  12648  12654     1   110.2600474 425.931200
  12657  12658  12660     1   109.5600471 388.275200
  12657  12671  12675     1   109.5600471 388.275200
  12657  12671  12676     1   109.5600471 388.275200
  12658  12661  12665     1   109.5600471 388.275200
  12658  12670  12673     1   107.2600461 396.643200
  12658  12657  12659     1   109.5600471 388.275200
  12659  12657  12671     1   109.5600471 388.275200
  12659  12657  12679     1   109.7800468 425.094400
  12660  12658  12661     1   109.5600471 388.275200
  12660  12658  12670     1   110.2600474 425.931200
  12661  12662  12664     1   109.5600471 388.275200
  12661  12669  12672     1   107.2600461 396.643200
  12662  12663  12666     1   110.2200475 386.601600
  12662  12668  12674     1   107.2600461 396.643200
  12662  12661  12665     1   109.5600471 388.275200
  12663  12662  12664     1   109.5600471 388.275200
  12664  12662  12668     1   110.2600474 425.931200
  12665  12661  12669     1   110.2600474 425.931200
  12666  12663  12667     1   109.5800467 425.931200
  12666  12663  12679     1   109.5800467 425.931200
  12671  12677  12678     1   107.2600461 396.643200
  12675  12671  12677     1   110.2600474 425.931200
  12675  12671  12676     1   108.4600466 328.025600
  12676  12671  12677     1   110.2600474 425.931200
  12680  12681  12683     1   109.5600471 388.275200
  12680  12694  12698     1   109.5600471 388.275200
  12680  12694  12699     1   109.5600471 388.275200
  12681  12680  12682     1   109.5600471 388.275200
  12681  12684  12688     1   109.5600471 388.275200
  12681  12693  12696     1   107.2600461 396.643200
  12682  12680  12694     1   109.5600471 388.275200
  12682  12680  12702     1   109.7800468 425.094400
  12683  12681  12684     1   109.5600471 388.275200
  12683  12681  12693     1   110.2600474 425.931200
  12684  12685  12687     1   109.5600471 388.275200
  12684  12692  12695     1   107.2600461 396.643200
  12685  12684  12688     1   109.5600471 388.275200
  12685  12686  12689     1   110.2200475 386.601600
  12685  12691  12697     1   107.2600461 396.643200
  12686  12685  12687     1   109.5600471 388.275200
  12687  12685  12691     1   110.2600474 425.931200
  12688  12684  12692     1   110.2600474 425.931200
  12689  12686  12690     1   109.5800467 425.931200
  12689  12686  12702     1   109.5800467 425.931200
  12694  12700  12701     1   107.2600461 396.643200
  12698  12694  12700     1   110.2600474 425.931200
  12698  12694  12699     1   108.4600466 328.025600
  12699  12694  12700     1   110.2600474 425.931200
  12703  12704  12706     1   109.5600471 388.275200
  12703  12717  12721     1   109.5600471 388.275200
  12703  12717  12722     1   109.5600471 388.275200
  12704  12707  12711     1   109.5600471 388.275200
  12704  12716  12719     1   107.2600461 396.643200
  12704  12703  12705     1   109.5600471 388.275200
  12705  12703  12717     1   109.5600471 388.275200
  12705  12703  12725     1   109.7800468 425.094400
  12706  12704  12707     1   109.5600471 388.275200
  12706  12704  12716     1   110.2600474 425.931200
  12707  12708  12710     1   109.5600471 388.275200
  12707  12715  12718     1   107.2600461 396.643200
  12708  12709  12712     1   110.2200475 386.601600
  12708  12714  12720     1   107.2600461 396.643200
  12708  12707  12711     1   109.5600471 388.275200
  12709  12708  12710     1   109.5600471 388.275200
  12710  12708  12714     1   110.2600474 425.931200
  12711  12707  12715     1   110.2600474 425.931200
  12712  12709  12713     1   109.5800467 425.931200
  12712  12709  12725     1   109.5800467 425.931200
  12717  12723  12724     1   107.2600461 396.643200
  12721  12717  12723     1   110.2600474 425.931200
  12721  12717  12722     1   108.4600466 328.025600
  12722  12717  12723     1   110.2600474 425.931200
  12726  12727  12729     1   109.5600471 388.275200
  12726  12740  12744     1   109.5600471 388.275200
  12726  12740  12745     1   109.5600471 388.275200
  12727  12726  12728     1   109.5600471 388.275200
  12727  12730  12734     1   109.5600471 388.275200
  12727  12739  12742     1   107.2600461 396.643200
  12728  12726  12740     1   109.5600471 388.275200
  12728  12726  12748     1   109.7800468 425.094400
  12729  12727  12730     1   109.5600471 388.275200
  12729  12727  12739     1   110.2600474 425.931200
  12730  12731  12733     1   109.5600471 388.275200
  12730  12738  12741     1   107.2600461 396.643200
  12731  12730  12734     1   109.5600471 388.275200
  12731  12732  12735     1   110.2200475 386.601600
  12731  12737  12743     1   107.2600461 396.643200
  12732  12731  12733     1   109.5600471 388.275200
  12733  12731  12737     1   110.2600474 425.931200
  12734  12730  12738     1   110.2600474 425.931200
  12735  12732  12736     1   109.5800467 425.931200
  12735  12732  12748     1   109.5800467 425.931200
  12740  12746  12747     1   107.2600461 396.643200
  12744  12740  12746     1   110.2600474 425.931200
  12744  12740  12745     1   108.4600466 328.025600
  12745  12740  12746     1   110.2600474 425.931200
  12749  12750  12752     1   109.5600471 388.275200
  12749  12763  12767     1   109.5600471 388.275200
  12749  12763  12768     1   109.5600471 388.275200
  12750  12753  12757     1   109.5600471 388.275200
  12750  12762  12765     1   107.2600461 396.643200
  12750  12749  12751     1   109.5600471 388.275200
  12751  12749  12763     1   109.5600471 388.275200
  12751  12749  12771     1   109.7800468 425.094400
  12752  12750  12753     1   109.5600471 388.275200
  12752  12750  12762     1   110.2600474 425.931200
  12753  12754  12756     1   109.5600471 388.275200
  12753  12761  12764     1   107.2600461 396.643200
  12754  12755  12758     1   110.2200475 386.601600
  12754  12760  12766     1   107.2600461 396.643200
  12754  12753  12757     1   109.5600471 388.275200
  12755  12754  12756     1   109.5600471 388.275200
  12756  12754  12760     1   110.2600474 425.931200
  12757  12753  12761     1   110.2600474 425.931200
  12758  12755  12759     1   109.5800467 425.931200
  12758  12755  12771     1   109.5800467 425.931200
  12763  12769  12770     1   107.2600461 396.643200
  12767  12763  12769     1   110.2600474 425.931200
  12767  12763  12768     1   108.4600466 328.025600
  12768  12763  12769     1   110.2600474 425.931200
  12772  12773  12775     1   109.5600471 388.275200
  12772  12786  12790     1   109.5600471 388.275200
  12772  12786  12791     1   109.5600471 388.275200
  12773  12772  12774     1   109.5600471 388.275200
  12773  12776  12780     1   109.5600471 388.275200
  12773  12785  12788     1   107.2600461 396.643200
  12774  12772  12786     1   109.5600471 388.275200
  12774  12772  12794     1   109.7800468 425.094400
  12775  12773  12776     1   109.5600471 388.275200
  12775  12773  12785     1   110.2600474 425.931200
  12776  12777  12779     1   109.5600471 388.275200
  12776  12784  12787     1   107.2600461 396.643200
  12777  12776  12780     1   109.5600471 388.275200
  12777  12778  12781     1   110.2200475 386.601600
  12777  12783  12789     1   107.2600461 396.643200
  12778  12777  12779     1   109.5600471 388.275200
  12779  12777  12783     1   110.2600474 425.931200
  12780  12776  12784     1   110.2600474 425.931200
  12781  12778  12782     1   109.5800467 425.931200
  12781  12778  12794     1   109.5800467 425.931200
  12786  12792  12793     1   107.2600461 396.643200
  12790  12786  12792     1   110.2600474 425.931200
  12790  12786  12791     1   108.4600466 328.025600
  12791  12786  12792     1   110.2600474 425.931200
  12795  12796  12798     1   109.5600471 388.275200
  12795  12809  12813     1   109.5600471 388.275200
  12795  12809  12814     1   109.5600471 388.275200
  12796  12799  12803     1   109.5600471 388.275200
  12796  12808  12811     1   107.2600461 396.643200
  12796  12795  12797     1   109.5600471 388.275200
  12797  12795  12809     1   109.5600471 388.275200
  12797  12795  12817     1   109.7800468 425.094400
  12798  12796  12799     1   109.5600471 388.275200
  12798  12796  12808     1   110.2600474 425.931200
  12799  12800  12802     1   109.5600471 388.275200
  12799  12807  12810     1   107.2600461 396.643200
  12800  12801  12804     1   110.2200475 386.601600
  12800  12806  12812     1   107.2600461 396.643200
  12800  12799  12803     1   109.5600471 388.275200
  12801  12800  12802     1   109.5600471 388.275200
  12802  12800  12806     1   110.2600474 425.931200
  12803  12799  12807     1   110.2600474 425.931200
  12804  12801  12805     1   109.5800467 425.931200
  12804  12801  12817     1   109.5800467 425.931200
  12809  12815  12816     1   107.2600461 396.643200
  12813  12809  12815     1   110.2600474 425.931200
  12813  12809  12814     1   108.4600466 328.025600
  12814  12809  12815     1   110.2600474 425.931200
  12818  12819  12821     1   109.5600471 388.275200
  12818  12832  12836     1   109.5600471 388.275200
  12818  12832  12837     1   109.5600471 388.275200
  12819  12818  12820     1   109.5600471 388.275200
  12819  12822  12826     1   109.5600471 388.275200
  12819  12831  12834     1   107.2600461 396.643200
  12820  12818  12832     1   109.5600471 388.275200
  12820  12818  12840     1   109.7800468 425.094400
  12821  12819  12822     1   109.5600471 388.275200
  12821  12819  12831     1   110.2600474 425.931200
  12822  12823  12825     1   109.5600471 388.275200
  12822  12830  12833     1   107.2600461 396.643200
  12823  12822  12826     1   109.5600471 388.275200
  12823  12824  12827     1   110.2200475 386.601600
  12823  12829  12835     1   107.2600461 396.643200
  12824  12823  12825     1   109.5600471 388.275200
  12825  12823  12829     1   110.2600474 425.931200
  12826  12822  12830     1   110.2600474 425.931200
  12827  12824  12828     1   109.5800467 425.931200
  12827  12824  12840     1   109.5800467 425.931200
  12832  12838  12839     1   107.2600461 396.643200
  12836  12832  12838     1   110.2600474 425.931200
  12836  12832  12837     1   108.4600466 328.025600
  12837  12832  12838     1   110.2600474 425.931200
  12841  12842  12844     1   109.5600471 388.275200
  12841  12855  12859     1   109.5600471 388.275200
  12841  12855  12860     1   109.5600471 388.275200
  12842  12845  12849     1   109.5600471 388.275200
  12842  12854  12857     1   107.2600461 396.643200
  12842  12841  12843     1   109.5600471 388.275200
  12843  12841  12855     1   109.5600471 388.275200
  12843  12841  12863     1   109.7800468 425.094400
  12844  12842  12845     1   109.5600471 388.275200
  12844  12842  12854     1   110.2600474 425.931200
  12845  12846  12848     1   109.5600471 388.275200
  12845  12853  12856     1   107.2600461 396.643200
  12846  12847  12850     1   110.2200475 386.601600
  12846  12852  12858     1   107.2600461 396.643200
  12846  12845  12849     1   109.5600471 388.275200
  12847  12846  12848     1   109.5600471 388.275200
  12848  12846  12852     1   110.2600474 425.931200
  12849  12845  12853     1   110.2600474 425.931200
  12850  12847  12851     1   109.5800467 425.931200
  12850  12847  12863     1   109.5800467 425.931200
  12855  12861  12862     1   107.2600461 396.643200
  12859  12855  12861     1   110.2600474 425.931200
  12859  12855  12860     1   108.4600466 328.025600
  12860  12855  12861     1   110.2600474 425.931200
  12864  12865  12867     1   109.5600471 388.275200
  12864  12878  12882     1   109.5600471 388.275200
  12864  12878  12883     1   109.5600471 388.275200
  12865  12864  12866     1   109.5600471 388.275200
  12865  12868  12872     1   109.5600471 388.275200
  12865  12877  12880     1   107.2600461 396.643200
  12866  12864  12878     1   109.5600471 388.275200
  12866  12864  12886     1   109.7800468 425.094400
  12867  12865  12868     1   109.5600471 388.275200
  12867  12865  12877     1   110.2600474 425.931200
  12868  12869  12871     1   109.5600471 388.275200
  12868  12876  12879     1   107.2600461 396.643200
  12869  12868  12872     1   109.5600471 388.275200
  12869  12870  12873     1   110.2200475 386.601600
  12869  12875  12881     1   107.2600461 396.643200
  12870  12869  12871     1   109.5600471 388.275200
  12871  12869  12875     1   110.2600474 425.931200
  12872  12868  12876     1   110.2600474 425.931200
  12873  12870  12874     1   109.5800467 425.931200
  12873  12870  12886     1   109.5800467 425.931200
  12878  12884  12885     1   107.2600461 396.643200
  12882  12878  12884     1   110.2600474 425.931200
  12882  12878  12883     1   108.4600466 328.025600
  12883  12878  12884     1   110.2600474 425.931200
  12887  12888  12890     1   109.5600471 388.275200
  12887  12901  12905     1   109.5600471 388.275200
  12887  12901  12906     1   109.5600471 388.275200
  12888  12891  12895     1   109.5600471 388.275200
  12888  12900  12903     1   107.2600461 396.643200
  12888  12887  12889     1   109.5600471 388.275200
  12889  12887  12901     1   109.5600471 388.275200
  12889  12887  12909     1   109.7800468 425.094400
  12890  12888  12891     1   109.5600471 388.275200
  12890  12888  12900     1   110.2600474 425.931200
  12891  12892  12894     1   109.5600471 388.275200
  12891  12899  12902     1   107.2600461 396.643200
  12892  12893  12896     1   110.2200475 386.601600
  12892  12898  12904     1   107.2600461 396.643200
  12892  12891  12895     1   109.5600471 388.275200
  12893  12892  12894     1   109.5600471 388.275200
  12894  12892  12898     1   110.2600474 425.931200
  12895  12891  12899     1   110.2600474 425.931200
  12896  12893  12897     1   109.5800467 425.931200
  12896  12893  12909     1   109.5800467 425.931200
  12901  12907  12908     1   107.2600461 396.643200
  12905  12901  12907     1   110.2600474 425.931200
  12905  12901  12906     1   108.4600466 328.025600
  12906  12901  12907     1   110.2600474 425.931200
  12910  12911  12913     1   109.5600471 388.275200
  12910  12924  12928     1   109.5600471 388.275200
  12910  12924  12929     1   109.5600471 388.275200
  12911  12910  12912     1   109.5600471 388.275200
  12911  12914  12918     1   109.5600471 388.275200
  12911  12923  12926     1   107.2600461 396.643200
  12912  12910  12924     1   109.5600471 388.275200
  12912  12910  12932     1   109.7800468 425.094400
  12913  12911  12914     1   109.5600471 388.275200
  12913  12911  12923     1   110.2600474 425.931200
  12914  12915  12917     1   109.5600471 388.275200
  12914  12922  12925     1   107.2600461 396.643200
  12915  12914  12918     1   109.5600471 388.275200
  12915  12916  12919     1   110.2200475 386.601600
  12915  12921  12927     1   107.2600461 396.643200
  12916  12915  12917     1   109.5600471 388.275200
  12917  12915  12921     1   110.2600474 425.931200
  12918  12914  12922     1   110.2600474 425.931200
  12919  12916  12920     1   109.5800467 425.931200
  12919  12916  12932     1   109.5800467 425.931200
  12924  12930  12931     1   107.2600461 396.643200
  12928  12924  12930     1   110.2600474 425.931200
  12928  12924  12929     1   108.4600466 328.025600
  12929  12924  12930     1   110.2600474 425.931200
  12933  12934  12936     1   109.5600471 388.275200
  12933  12947  12951     1   109.5600471 388.275200
  12933  12947  12952     1   109.5600471 388.275200
  12934  12937  12941     1   109.5600471 388.275200
  12934  12946  12949     1   107.2600461 396.643200
  12934  12933  12935     1   109.5600471 388.275200
  12935  12933  12947     1   109.5600471 388.275200
  12935  12933  12955     1   109.7800468 425.094400
  12936  12934  12937     1   109.5600471 388.275200
  12936  12934  12946     1   110.2600474 425.931200
  12937  12938  12940     1   109.5600471 388.275200
  12937  12945  12948     1   107.2600461 396.643200
  12938  12939  12942     1   110.2200475 386.601600
  12938  12944  12950     1   107.2600461 396.643200
  12938  12937  12941     1   109.5600471 388.275200
  12939  12938  12940     1   109.5600471 388.275200
  12940  12938  12944     1   110.2600474 425.931200
  12941  12937  12945     1   110.2600474 425.931200
  12942  12939  12943     1   109.5800467 425.931200
  12942  12939  12955     1   109.5800467 425.931200
  12947  12953  12954     1   107.2600461 396.643200
  12951  12947  12953     1   110.2600474 425.931200
  12951  12947  12952     1   108.4600466 328.025600
  12952  12947  12953     1   110.2600474 425.931200
  12956  12957  12959     1   109.5600471 388.275200
  12956  12970  12974     1   109.5600471 388.275200
  12956  12970  12975     1   109.5600471 388.275200
  12957  12956  12958     1   109.5600471 388.275200
  12957  12960  12964     1   109.5600471 388.275200
  12957  12969  12972     1   107.2600461 396.643200
  12958  12956  12970     1   109.5600471 388.275200
  12958  12956  12978     1   109.7800468 425.094400
  12959  12957  12960     1   109.5600471 388.275200
  12959  12957  12969     1   110.2600474 425.931200
  12960  12961  12963     1   109.5600471 388.275200
  12960  12968  12971     1   107.2600461 396.643200
  12961  12960  12964     1   109.5600471 388.275200
  12961  12962  12965     1   110.2200475 386.601600
  12961  12967  12973     1   107.2600461 396.643200
  12962  12961  12963     1   109.5600471 388.275200
  12963  12961  12967     1   110.2600474 425.931200
  12964  12960  12968     1   110.2600474 425.931200
  12965  12962  12966     1   109.5800467 425.931200
  12965  12962  12978     1   109.5800467 425.931200
  12970  12976  12977     1   107.2600461 396.643200
  12974  12970  12976     1   110.2600474 425.931200
  12974  12970  12975     1   108.4600466 328.025600
  12975  12970  12976     1   110.2600474 425.931200
  12979  12980  12982     1   109.5600471 388.275200
  12979  12993  12997     1   109.5600471 388.275200
  12979  12993  12998     1   109.5600471 388.275200
  12980  12983  12987     1   109.5600471 388.275200
  12980  12992  12995     1   107.2600461 396.643200
  12980  12979  12981     1   109.5600471 388.275200
  12981  12979  12993     1   109.5600471 388.275200
  12981  12979  13001     1   109.7800468 425.094400
  12982  12980  12983     1   109.5600471 388.275200
  12982  12980  12992     1   110.2600474 425.931200
  12983  12984  12986     1   109.5600471 388.275200
  12983  12991  12994     1   107.2600461 396.643200
  12984  12985  12988     1   110.2200475 386.601600
  12984  12990  12996     1   107.2600461 396.643200
  12984  12983  12987     1   109.5600471 388.275200
  12985  12984  12986     1   109.5600471 388.275200
  12986  12984  12990     1   110.2600474 425.931200
  12987  12983  12991     1   110.2600474 425.931200
  12988  12985  12989     1   109.5800467 425.931200
  12988  12985  13001     1   109.5800467 425.931200
  12993  12999  13000     1   107.2600461 396.643200
  12997  12993  12999     1   110.2600474 425.931200
  12997  12993  12998     1   108.4600466 328.025600
  12998  12993  12999     1   110.2600474 425.931200
  13002  13003  13005     1   109.5600471 388.275200
  13002  13016  13020     1   109.5600471 388.275200
  13002  13016  13021     1   109.5600471 388.275200
  13003  13002  13004     1   109.5600471 388.275200
  13003  13006  13010     1   109.5600471 388.275200
  13003  13015  13018     1   107.2600461 396.643200
  13004  13002  13016     1   109.5600471 388.275200
  13004  13002  13024     1   109.7800468 425.094400
  13005  13003  13006     1   109.5600471 388.275200
  13005  13003  13015     1   110.2600474 425.931200
  13006  13007  13009     1   109.5600471 388.275200
  13006  13014  13017     1   107.2600461 396.643200
  13007  13006  13010     1   109.5600471 388.275200
  13007  13008  13011     1   110.2200475 386.601600
  13007  13013  13019     1   107.2600461 396.643200
  13008  13007  13009     1   109.5600471 388.275200
  13009  13007  13013     1   110.2600474 425.931200
  13010  13006  13014     1   110.2600474 425.931200
  13011  13008  13012     1   109.5800467 425.931200
  13011  13008  13024     1   109.5800467 425.931200
  13016  13022  13023     1   107.2600461 396.643200
  13020  13016  13022     1   110.2600474 425.931200
  13020  13016  13021     1   108.4600466 328.025600
  13021  13016  13022     1   110.2600474 425.931200
  13025  13026  13028     1   109.5600471 388.275200
  13025  13039  13043     1   109.5600471 388.275200
  13025  13039  13044     1   109.5600471 388.275200
  13026  13029  13033     1   109.5600471 388.275200
  13026  13038  13041     1   107.2600461 396.643200
  13026  13025  13027     1   109.5600471 388.275200
  13027  13025  13039     1   109.5600471 388.275200
  13027  13025  13047     1   109.7800468 425.094400
  13028  13026  13029     1   109.5600471 388.275200
  13028  13026  13038     1   110.2600474 425.931200
  13029  13030  13032     1   109.5600471 388.275200
  13029  13037  13040     1   107.2600461 396.643200
  13030  13031  13034     1   110.2200475 386.601600
  13030  13036  13042     1   107.2600461 396.643200
  13030  13029  13033     1   109.5600471 388.275200
  13031  13030  13032     1   109.5600471 388.275200
  13032  13030  13036     1   110.2600474 425.931200
  13033  13029  13037     1   110.2600474 425.931200
  13034  13031  13035     1   109.5800467 425.931200
  13034  13031  13047     1   109.5800467 425.931200
  13039  13045  13046     1   107.2600461 396.643200
  13043  13039  13045     1   110.2600474 425.931200
  13043  13039  13044     1   108.4600466 328.025600
  13044  13039  13045     1   110.2600474 425.931200
  13048  13049  13051     1   109.5600471 388.275200
  13048  13062  13066     1   109.5600471 388.275200
  13048  13062  13067     1   109.5600471 388.275200
  13049  13048  13050     1   109.5600471 388.275200
  13049  13052  13056     1   109.5600471 388.275200
  13049  13061  13064     1   107.2600461 396.643200
  13050  13048  13062     1   109.5600471 388.275200
  13050  13048  13070     1   109.7800468 425.094400
  13051  13049  13052     1   109.5600471 388.275200
  13051  13049  13061     1   110.2600474 425.931200
  13052  13053  13055     1   109.5600471 388.275200
  13052  13060  13063     1   107.2600461 396.643200
  13053  13052  13056     1   109.5600471 388.275200
  13053  13054  13057     1   110.2200475 386.601600
  13053  13059  13065     1   107.2600461 396.643200
  13054  13053  13055     1   109.5600471 388.275200
  13055  13053  13059     1   110.2600474 425.931200
  13056  13052  13060     1   110.2600474 425.931200
  13057  13054  13058     1   109.5800467 425.931200
  13057  13054  13070     1   109.5800467 425.931200
  13062  13068  13069     1   107.2600461 396.643200
  13066  13062  13068     1   110.2600474 425.931200
  13066  13062  13067     1   108.4600466 328.025600
  13067  13062  13068     1   110.2600474 425.931200
  13071  13072  13074     1   109.5600471 388.275200
  13071  13085  13089     1   109.5600471 388.275200
  13071  13085  13090     1   109.5600471 388.275200
  13072  13075  13079     1   109.5600471 388.275200
  13072  13084  13087     1   107.2600461 396.643200
  13072  13071  13073     1   109.5600471 388.275200
  13073  13071  13085     1   109.5600471 388.275200
  13073  13071  13093     1   109.7800468 425.094400
  13074  13072  13075     1   109.5600471 388.275200
  13074  13072  13084     1   110.2600474 425.931200
  13075  13076  13078     1   109.5600471 388.275200
  13075  13083  13086     1   107.2600461 396.643200
  13076  13077  13080     1   110.2200475 386.601600
  13076  13082  13088     1   107.2600461 396.643200
  13076  13075  13079     1   109.5600471 388.275200
  13077  13076  13078     1   109.5600471 388.275200
  13078  13076  13082     1   110.2600474 425.931200
  13079  13075  13083     1   110.2600474 425.931200
  13080  13077  13081     1   109.5800467 425.931200
  13080  13077  13093     1   109.5800467 425.931200
  13085  13091  13092     1   107.2600461 396.643200
  13089  13085  13091     1   110.2600474 425.931200
  13089  13085  13090     1   108.4600466 328.025600
  13090  13085  13091     1   110.2600474 425.931200
  13094  13095  13097     1   109.5600471 388.275200
  13094  13108  13112     1   109.5600471 388.275200
  13094  13108  13113     1   109.5600471 388.275200
  13095  13094  13096     1   109.5600471 388.275200
  13095  13098  13102     1   109.5600471 388.275200
  13095  13107  13110     1   107.2600461 396.643200
  13096  13094  13108     1   109.5600471 388.275200
  13096  13094  13116     1   109.7800468 425.094400
  13097  13095  13098     1   109.5600471 388.275200
  13097  13095  13107     1   110.2600474 425.931200
  13098  13099  13101     1   109.5600471 388.275200
  13098  13106  13109     1   107.2600461 396.643200
  13099  13098  13102     1   109.5600471 388.275200
  13099  13100  13103     1   110.2200475 386.601600
  13099  13105  13111     1   107.2600461 396.643200
  13100  13099  13101     1   109.5600471 388.275200
  13101  13099  13105     1   110.2600474 425.931200
  13102  13098  13106     1   110.2600474 425.931200
  13103  13100  13104     1   109.5800467 425.931200
  13103  13100  13116     1   109.5800467 425.931200
  13108  13114  13115     1   107.2600461 396.643200
  13112  13108  13114     1   110.2600474 425.931200
  13112  13108  13113     1   108.4600466 328.025600
  13113  13108  13114     1   110.2600474 425.931200
  13117  13118  13120     1   109.5600471 388.275200
  13117  13131  13135     1   109.5600471 388.275200
  13117  13131  13136     1   109.5600471 388.275200
  13118  13121  13125     1   109.5600471 388.275200
  13118  13130  13133     1   107.2600461 396.643200
  13118  13117  13119     1   109.5600471 388.275200
  13119  13117  13131     1   109.5600471 388.275200
  13119  13117  13139     1   109.7800468 425.094400
  13120  13118  13121     1   109.5600471 388.275200
  13120  13118  13130     1   110.2600474 425.931200
  13121  13122  13124     1   109.5600471 388.275200
  13121  13129  13132     1   107.2600461 396.643200
  13122  13123  13126     1   110.2200475 386.601600
  13122  13128  13134     1   107.2600461 396.643200
  13122  13121  13125     1   109.5600471 388.275200
  13123  13122  13124     1   109.5600471 388.275200
  13124  13122  13128     1   110.2600474 425.931200
  13125  13121  13129     1   110.2600474 425.931200
  13126  13123  13127     1   109.5800467 425.931200
  13126  13123  13139     1   109.5800467 425.931200
  13131  13137  13138     1   107.2600461 396.643200
  13135  13131  13137     1   110.2600474 425.931200
  13135  13131  13136     1   108.4600466 328.025600
  13136  13131  13137     1   110.2600474 425.931200
  13140  13141  13143     1   109.5600471 388.275200
  13140  13154  13158     1   109.5600471 388.275200
  13140  13154  13159     1   109.5600471 388.275200
  13141  13140  13142     1   109.5600471 388.275200
  13141  13144  13148     1   109.5600471 388.275200
  13141  13153  13156     1   107.2600461 396.643200
  13142  13140  13154     1   109.5600471 388.275200
  13142  13140  13162     1   109.7800468 425.094400
  13143  13141  13144     1   109.5600471 388.275200
  13143  13141  13153     1   110.2600474 425.931200
  13144  13145  13147     1   109.5600471 388.275200
  13144  13152  13155     1   107.2600461 396.643200
  13145  13144  13148     1   109.5600471 388.275200
  13145  13146  13149     1   110.2200475 386.601600
  13145  13151  13157     1   107.2600461 396.643200
  13146  13145  13147     1   109.5600471 388.275200
  13147  13145  13151     1   110.2600474 425.931200
  13148  13144  13152     1   110.2600474 425.931200
  13149  13146  13150     1   109.5800467 425.931200
  13149  13146  13162     1   109.5800467 425.931200
  13154  13160  13161     1   107.2600461 396.643200
  13158  13154  13160     1   110.2600474 425.931200
  13158  13154  13159     1   108.4600466 328.025600
  13159  13154  13160     1   110.2600474 425.931200
  13163  13164  13166     1   109.5600471 388.275200
  13163  13177  13181     1   109.5600471 388.275200
  13163  13177  13182     1   109.5600471 388.275200
  13164  13167  13171     1   109.5600471 388.275200
  13164  13176  13179     1   107.2600461 396.643200
  13164  13163  13165     1   109.5600471 388.275200
  13165  13163  13177     1   109.5600471 388.275200
  13165  13163  13185     1   109.7800468 425.094400
  13166  13164  13167     1   109.5600471 388.275200
  13166  13164  13176     1   110.2600474 425.931200
  13167  13168  13170     1   109.5600471 388.275200
  13167  13175  13178     1   107.2600461 396.643200
  13168  13169  13172     1   110.2200475 386.601600
  13168  13174  13180     1   107.2600461 396.643200
  13168  13167  13171     1   109.5600471 388.275200
  13169  13168  13170     1   109.5600471 388.275200
  13170  13168  13174     1   110.2600474 425.931200
  13171  13167  13175     1   110.2600474 425.931200
  13172  13169  13173     1   109.5800467 425.931200
  13172  13169  13185     1   109.5800467 425.931200
  13177  13183  13184     1   107.2600461 396.643200
  13181  13177  13183     1   110.2600474 425.931200
  13181  13177  13182     1   108.4600466 328.025600
  13182  13177  13183     1   110.2600474 425.931200
  13186  13187  13189     1   109.5600471 388.275200
  13186  13200  13204     1   109.5600471 388.275200
  13186  13200  13205     1   109.5600471 388.275200
  13187  13186  13188     1   109.5600471 388.275200
  13187  13190  13194     1   109.5600471 388.275200
  13187  13199  13202     1   107.2600461 396.643200
  13188  13186  13200     1   109.5600471 388.275200
  13188  13186  13208     1   109.7800468 425.094400
  13189  13187  13190     1   109.5600471 388.275200
  13189  13187  13199     1   110.2600474 425.931200
  13190  13191  13193     1   109.5600471 388.275200
  13190  13198  13201     1   107.2600461 396.643200
  13191  13190  13194     1   109.5600471 388.275200
  13191  13192  13195     1   110.2200475 386.601600
  13191  13197  13203     1   107.2600461 396.643200
  13192  13191  13193     1   109.5600471 388.275200
  13193  13191  13197     1   110.2600474 425.931200
  13194  13190  13198     1   110.2600474 425.931200
  13195  13192  13196     1   109.5800467 425.931200
  13195  13192  13208     1   109.5800467 425.931200
  13200  13206  13207     1   107.2600461 396.643200
  13204  13200  13206     1   110.2600474 425.931200
  13204  13200  13205     1   108.4600466 328.025600
  13205  13200  13206     1   110.2600474 425.931200
  13209  13210  13212     1   109.5600471 388.275200
  13209  13223  13227     1   109.5600471 388.275200
  13209  13223  13228     1   109.5600471 388.275200
  13210  13213  13217     1   109.5600471 388.275200
  13210  13222  13225     1   107.2600461 396.643200
  13210  13209  13211     1   109.5600471 388.275200
  13211  13209  13223     1   109.5600471 388.275200
  13211  13209  13231     1   109.7800468 425.094400
  13212  13210  13213     1   109.5600471 388.275200
  13212  13210  13222     1   110.2600474 425.931200
  13213  13214  13216     1   109.5600471 388.275200
  13213  13221  13224     1   107.2600461 396.643200
  13214  13215  13218     1   110.2200475 386.601600
  13214  13220  13226     1   107.2600461 396.643200
  13214  13213  13217     1   109.5600471 388.275200
  13215  13214  13216     1   109.5600471 388.275200
  13216  13214  13220     1   110.2600474 425.931200
  13217  13213  13221     1   110.2600474 425.931200
  13218  13215  13219     1   109.5800467 425.931200
  13218  13215  13231     1   109.5800467 425.931200
  13223  13229  13230     1   107.2600461 396.643200
  13227  13223  13229     1   110.2600474 425.931200
  13227  13223  13228     1   108.4600466 328.025600
  13228  13223  13229     1   110.2600474 425.931200
  13232  13233  13235     1   109.5600471 388.275200
  13232  13246  13250     1   109.5600471 388.275200
  13232  13246  13251     1   109.5600471 388.275200
  13233  13232  13234     1   109.5600471 388.275200
  13233  13236  13240     1   109.5600471 388.275200
  13233  13245  13248     1   107.2600461 396.643200
  13234  13232  13246     1   109.5600471 388.275200
  13234  13232  13254     1   109.7800468 425.094400
  13235  13233  13236     1   109.5600471 388.275200
  13235  13233  13245     1   110.2600474 425.931200
  13236  13237  13239     1   109.5600471 388.275200
  13236  13244  13247     1   107.2600461 396.643200
  13237  13236  13240     1   109.5600471 388.275200
  13237  13238  13241     1   110.2200475 386.601600
  13237  13243  13249     1   107.2600461 396.643200
  13238  13237  13239     1   109.5600471 388.275200
  13239  13237  13243     1   110.2600474 425.931200
  13240  13236  13244     1   110.2600474 425.931200
  13241  13238  13242     1   109.5800467 425.931200
  13241  13238  13254     1   109.5800467 425.931200
  13246  13252  13253     1   107.2600461 396.643200
  13250  13246  13252     1   110.2600474 425.931200
  13250  13246  13251     1   108.4600466 328.025600
  13251  13246  13252     1   110.2600474 425.931200
  13255  13256  13258     1   109.5600471 388.275200
  13255  13269  13273     1   109.5600471 388.275200
  13255  13269  13274     1   109.5600471 388.275200
  13256  13259  13263     1   109.5600471 388.275200
  13256  13268  13271     1   107.2600461 396.643200
  13256  13255  13257     1   109.5600471 388.275200
  13257  13255  13269     1   109.5600471 388.275200
  13257  13255  13277     1   109.7800468 425.094400
  13258  13256  13259     1   109.5600471 388.275200
  13258  13256  13268     1   110.2600474 425.931200
  13259  13260  13262     1   109.5600471 388.275200
  13259  13267  13270     1   107.2600461 396.643200
  13260  13261  13264     1   110.2200475 386.601600
  13260  13266  13272     1   107.2600461 396.643200
  13260  13259  13263     1   109.5600471 388.275200
  13261  13260  13262     1   109.5600471 388.275200
  13262  13260  13266     1   110.2600474 425.931200
  13263  13259  13267     1   110.2600474 425.931200
  13264  13261  13265     1   109.5800467 425.931200
  13264  13261  13277     1   109.5800467 425.931200
  13269  13275  13276     1   107.2600461 396.643200
  13273  13269  13275     1   110.2600474 425.931200
  13273  13269  13274     1   108.4600466 328.025600
  13274  13269  13275     1   110.2600474 425.931200
  13278  13279  13281     1   109.5600471 388.275200
  13278  13292  13296     1   109.5600471 388.275200
  13278  13292  13297     1   109.5600471 388.275200
  13279  13278  13280     1   109.5600471 388.275200
  13279  13282  13286     1   109.5600471 388.275200
  13279  13291  13294     1   107.2600461 396.643200
  13280  13278  13292     1   109.5600471 388.275200
  13280  13278  13300     1   109.7800468 425.094400
  13281  13279  13282     1   109.5600471 388.275200
  13281  13279  13291     1   110.2600474 425.931200
  13282  13283  13285     1   109.5600471 388.275200
  13282  13290  13293     1   107.2600461 396.643200
  13283  13282  13286     1   109.5600471 388.275200
  13283  13284  13287     1   110.2200475 386.601600
  13283  13289  13295     1   107.2600461 396.643200
  13284  13283  13285     1   109.5600471 388.275200
  13285  13283  13289     1   110.2600474 425.931200
  13286  13282  13290     1   110.2600474 425.931200
  13287  13284  13288     1   109.5800467 425.931200
  13287  13284  13300     1   109.5800467 425.931200
  13292  13298  13299     1   107.2600461 396.643200
  13296  13292  13298     1   110.2600474 425.931200
  13296  13292  13297     1   108.4600466 328.025600
  13297  13292  13298     1   110.2600474 425.931200
  13301  13302  13304     1   109.5600471 388.275200
  13301  13315  13319     1   109.5600471 388.275200
  13301  13315  13320     1   109.5600471 388.275200
  13302  13305  13309     1   109.5600471 388.275200
  13302  13314  13317     1   107.2600461 396.643200
  13302  13301  13303     1   109.5600471 388.275200
  13303  13301  13315     1   109.5600471 388.275200
  13303  13301  13323     1   109.7800468 425.094400
  13304  13302  13305     1   109.5600471 388.275200
  13304  13302  13314     1   110.2600474 425.931200
  13305  13306  13308     1   109.5600471 388.275200
  13305  13313  13316     1   107.2600461 396.643200
  13306  13307  13310     1   110.2200475 386.601600
  13306  13312  13318     1   107.2600461 396.643200
  13306  13305  13309     1   109.5600471 388.275200
  13307  13306  13308     1   109.5600471 388.275200
  13308  13306  13312     1   110.2600474 425.931200
  13309  13305  13313     1   110.2600474 425.931200
  13310  13307  13311     1   109.5800467 425.931200
  13310  13307  13323     1   109.5800467 425.931200
  13315  13321  13322     1   107.2600461 396.643200
  13319  13315  13321     1   110.2600474 425.931200
  13319  13315  13320     1   108.4600466 328.025600
  13320  13315  13321     1   110.2600474 425.931200
  13324  13325  13327     1   109.5600471 388.275200
  13324  13338  13342     1   109.5600471 388.275200
  13324  13338  13343     1   109.5600471 388.275200
  13325  13324  13326     1   109.5600471 388.275200
  13325  13328  13332     1   109.5600471 388.275200
  13325  13337  13340     1   107.2600461 396.643200
  13326  13324  13338     1   109.5600471 388.275200
  13326  13324  13346     1   109.7800468 425.094400
  13327  13325  13328     1   109.5600471 388.275200
  13327  13325  13337     1   110.2600474 425.931200
  13328  13329  13331     1   109.5600471 388.275200
  13328  13336  13339     1   107.2600461 396.643200
  13329  13328  13332     1   109.5600471 388.275200
  13329  13330  13333     1   110.2200475 386.601600
  13329  13335  13341     1   107.2600461 396.643200
  13330  13329  13331     1   109.5600471 388.275200
  13331  13329  13335     1   110.2600474 425.931200
  13332  13328  13336     1   110.2600474 425.931200
  13333  13330  13334     1   109.5800467 425.931200
  13333  13330  13346     1   109.5800467 425.931200
  13338  13344  13345     1   107.2600461 396.643200
  13342  13338  13344     1   110.2600474 425.931200
  13342  13338  13343     1   108.4600466 328.025600
  13343  13338  13344     1   110.2600474 425.931200
  13347  13348  13350     1   109.5600471 388.275200
  13347  13361  13365     1   109.5600471 388.275200
  13347  13361  13366     1   109.5600471 388.275200
  13348  13351  13355     1   109.5600471 388.275200
  13348  13360  13363     1   107.2600461 396.643200
  13348  13347  13349     1   109.5600471 388.275200
  13349  13347  13361     1   109.5600471 388.275200
  13349  13347  13369     1   109.7800468 425.094400
  13350  13348  13351     1   109.5600471 388.275200
  13350  13348  13360     1   110.2600474 425.931200
  13351  13352  13354     1   109.5600471 388.275200
  13351  13359  13362     1   107.2600461 396.643200
  13352  13353  13356     1   110.2200475 386.601600
  13352  13358  13364     1   107.2600461 396.643200
  13352  13351  13355     1   109.5600471 388.275200
  13353  13352  13354     1   109.5600471 388.275200
  13354  13352  13358     1   110.2600474 425.931200
  13355  13351  13359     1   110.2600474 425.931200
  13356  13353  13357     1   109.5800467 425.931200
  13356  13353  13369     1   109.5800467 425.931200
  13361  13367  13368     1   107.2600461 396.643200
  13365  13361  13367     1   110.2600474 425.931200
  13365  13361  13366     1   108.4600466 328.025600
  13366  13361  13367     1   110.2600474 425.931200
  13370  13371  13373     1   109.5600471 388.275200
  13370  13384  13388     1   109.5600471 388.275200
  13370  13384  13389     1   109.5600471 388.275200
  13371  13370  13372     1   109.5600471 388.275200
  13371  13374  13378     1   109.5600471 388.275200
  13371  13383  13386     1   107.2600461 396.643200
  13372  13370  13384     1   109.5600471 388.275200
  13372  13370  13392     1   109.7800468 425.094400
  13373  13371  13374     1   109.5600471 388.275200
  13373  13371  13383     1   110.2600474 425.931200
  13374  13375  13377     1   109.5600471 388.275200
  13374  13382  13385     1   107.2600461 396.643200
  13375  13374  13378     1   109.5600471 388.275200
  13375  13376  13379     1   110.2200475 386.601600
  13375  13381  13387     1   107.2600461 396.643200
  13376  13375  13377     1   109.5600471 388.275200
  13377  13375  13381     1   110.2600474 425.931200
  13378  13374  13382     1   110.2600474 425.931200
  13379  13376  13380     1   109.5800467 425.931200
  13379  13376  13392     1   109.5800467 425.931200
  13384  13390  13391     1   107.2600461 396.643200
  13388  13384  13390     1   110.2600474 425.931200
  13388  13384  13389     1   108.4600466 328.025600
  13389  13384  13390     1   110.2600474 425.931200
  13393  13394  13396     1   109.5600471 388.275200
  13393  13407  13411     1   109.5600471 388.275200
  13393  13407  13412     1   109.5600471 388.275200
  13394  13397  13401     1   109.5600471 388.275200
  13394  13406  13409     1   107.2600461 396.643200
  13394  13393  13395     1   109.5600471 388.275200
  13395  13393  13407     1   109.5600471 388.275200
  13395  13393  13415     1   109.7800468 425.094400
  13396  13394  13397     1   109.5600471 388.275200
  13396  13394  13406     1   110.2600474 425.931200
  13397  13398  13400     1   109.5600471 388.275200
  13397  13405  13408     1   107.2600461 396.643200
  13398  13399  13402     1   110.2200475 386.601600
  13398  13404  13410     1   107.2600461 396.643200
  13398  13397  13401     1   109.5600471 388.275200
  13399  13398  13400     1   109.5600471 388.275200
  13400  13398  13404     1   110.2600474 425.931200
  13401  13397  13405     1   110.2600474 425.931200
  13402  13399  13403     1   109.5800467 425.931200
  13402  13399  13415     1   109.5800467 425.931200
  13407  13413  13414     1   107.2600461 396.643200
  13411  13407  13413     1   110.2600474 425.931200
  13411  13407  13412     1   108.4600466 328.025600
  13412  13407  13413     1   110.2600474 425.931200
  13416  13417  13419     1   109.5600471 388.275200
  13416  13430  13434     1   109.5600471 388.275200
  13416  13430  13435     1   109.5600471 388.275200
  13417  13416  13418     1   109.5600471 388.275200
  13417  13420  13424     1   109.5600471 388.275200
  13417  13429  13432     1   107.2600461 396.643200
  13418  13416  13430     1   109.5600471 388.275200
  13418  13416  13438     1   109.7800468 425.094400
  13419  13417  13420     1   109.5600471 388.275200
  13419  13417  13429     1   110.2600474 425.931200
  13420  13421  13423     1   109.5600471 388.275200
  13420  13428  13431     1   107.2600461 396.643200
  13421  13420  13424     1   109.5600471 388.275200
  13421  13422  13425     1   110.2200475 386.601600
  13421  13427  13433     1   107.2600461 396.643200
  13422  13421  13423     1   109.5600471 388.275200
  13423  13421  13427     1   110.2600474 425.931200
  13424  13420  13428     1   110.2600474 425.931200
  13425  13422  13426     1   109.5800467 425.931200
  13425  13422  13438     1   109.5800467 425.931200
  13430  13436  13437     1   107.2600461 396.643200
  13434  13430  13436     1   110.2600474 425.931200
  13434  13430  13435     1   108.4600466 328.025600
  13435  13430  13436     1   110.2600474 425.931200
  13439  13440  13442     1   109.5600471 388.275200
  13439  13453  13457     1   109.5600471 388.275200
  13439  13453  13458     1   109.5600471 388.275200
  13440  13443  13447     1   109.5600471 388.275200
  13440  13452  13455     1   107.2600461 396.643200
  13440  13439  13441     1   109.5600471 388.275200
  13441  13439  13453     1   109.5600471 388.275200
  13441  13439  13461     1   109.7800468 425.094400
  13442  13440  13443     1   109.5600471 388.275200
  13442  13440  13452     1   110.2600474 425.931200
  13443  13444  13446     1   109.5600471 388.275200
  13443  13451  13454     1   107.2600461 396.643200
  13444  13445  13448     1   110.2200475 386.601600
  13444  13450  13456     1   107.2600461 396.643200
  13444  13443  13447     1   109.5600471 388.275200
  13445  13444  13446     1   109.5600471 388.275200
  13446  13444  13450     1   110.2600474 425.931200
  13447  13443  13451     1   110.2600474 425.931200
  13448  13445  13449     1   109.5800467 425.931200
  13448  13445  13461     1   109.5800467 425.931200
  13453  13459  13460     1   107.2600461 396.643200
  13457  13453  13459     1   110.2600474 425.931200
  13457  13453  13458     1   108.4600466 328.025600
  13458  13453  13459     1   110.2600474 425.931200
  13462  13463  13465     1   109.5600471 388.275200
  13462  13476  13480     1   109.5600471 388.275200
  13462  13476  13481     1   109.5600471 388.275200
  13463  13462  13464     1   109.5600471 388.275200
  13463  13466  13470     1   109.5600471 388.275200
  13463  13475  13478     1   107.2600461 396.643200
  13464  13462  13476     1   109.5600471 388.275200
  13464  13462  13484     1   109.7800468 425.094400
  13465  13463  13466     1   109.5600471 388.275200
  13465  13463  13475     1   110.2600474 425.931200
  13466  13467  13469     1   109.5600471 388.275200
  13466  13474  13477     1   107.2600461 396.643200
  13467  13466  13470     1   109.5600471 388.275200
  13467  13468  13471     1   110.2200475 386.601600
  13467  13473  13479     1   107.2600461 396.643200
  13468  13467  13469     1   109.5600471 388.275200
  13469  13467  13473     1   110.2600474 425.931200
  13470  13466  13474     1   110.2600474 425.931200
  13471  13468  13472     1   109.5800467 425.931200
  13471  13468  13484     1   109.5800467 425.931200
  13476  13482  13483     1   107.2600461 396.643200
  13480  13476  13482     1   110.2600474 425.931200
  13480  13476  13481     1   108.4600466 328.025600
  13481  13476  13482     1   110.2600474 425.931200
  13485  13486  13488     1   109.5600471 388.275200
  13485  13499  13503     1   109.5600471 388.275200
  13485  13499  13504     1   109.5600471 388.275200
  13486  13489  13493     1   109.5600471 388.275200
  13486  13498  13501     1   107.2600461 396.643200
  13486  13485  13487     1   109.5600471 388.275200
  13487  13485  13499     1   109.5600471 388.275200
  13487  13485  13507     1   109.7800468 425.094400
  13488  13486  13489     1   109.5600471 388.275200
  13488  13486  13498     1   110.2600474 425.931200
  13489  13490  13492     1   109.5600471 388.275200
  13489  13497  13500     1   107.2600461 396.643200
  13490  13491  13494     1   110.2200475 386.601600
  13490  13496  13502     1   107.2600461 396.643200
  13490  13489  13493     1   109.5600471 388.275200
  13491  13490  13492     1   109.5600471 388.275200
  13492  13490  13496     1   110.2600474 425.931200
  13493  13489  13497     1   110.2600474 425.931200
  13494  13491  13495     1   109.5800467 425.931200
  13494  13491  13507     1   109.5800467 425.931200
  13499  13505  13506     1   107.2600461 396.643200
  13503  13499  13505     1   110.2600474 425.931200
  13503  13499  13504     1   108.4600466 328.025600
  13504  13499  13505     1   110.2600474 425.931200

[ dihedrals ]
;    ai     aj     ak     al funct         c0         c1         c2         c3         c4         c5
      1      2      8     14     1  0.0000000  0.6508444  3
      1      5     11     17     1  0.0000000  0.6508444  3
      2      1      5     11     1  180.0000771  0.4184000  2
      2      1      5     11     1  0.0000000  1.6024720  3
      2      8     14     20     1  0.0000000  0.6508444  3
      5      1      2      8     1  180.0000771  0.4184000  2
      5      1      2      8     1  0.0000000  1.6024720  3
      5     11     17     21     1  0.0000000  0.6508444  3
      8     14     20     28     1  0.0000000  0.6508444  3
      8     14     20     31     1  0.0000000  0.6508444  3
     11     17     21     22     1  0.0000000  0.6508444  3
     11     17     21     25     1  0.0000000  0.6508444  3
     14     20     28     40     1  0.0000000  0.6508444  3
     14     20     31     43     1  0.0000000  0.6508444  3
     17     21     22     34     1  0.0000000  0.6508444  3
     17     21     25     37     1  0.0000000  0.6508444  3
     20     28     40     49     1  0.0000000  0.6508444  3
     20     31     43     46     1  0.0000000  0.6508444  3
     21     22     34     55     1  0.0000000  0.6508444  3
     21     25     37     52     1  0.0000000  0.6508444  3
     22     21     25     37     1  0.0000000  0.6508444  3
     22     34     55    178     1  0.0000000  0.6508444  3
     25     21     22     34     1  0.0000000  0.6508444  3
     25     37     52    148     1  0.0000000  0.6508444  3
     28     20     31     43     1  0.0000000  0.6508444  3
     28     40     49    118     1  0.0000000  0.6508444  3
     31     20     28     40     1  0.0000000  0.6508444  3
     31     43     46     88     1  0.0000000  0.6508444  3
     34     55    178    169     1  180.0000771  0.4184000  2
     34     55    178    169     1  0.0000000  1.6024720  3
     37     52    148    139     1  180.0000771  0.4184000  2
     37     52    148    139     1  0.0000000  1.6024720  3
     40     49    118    109     1  180.0000771  0.4184000  2
     40     49    118    109     1  0.0000000  1.6024720  3
     43     46     88     79     1  180.0000771  0.4184000  2
     43     46     88     79     1  0.0000000  1.6024720  3
     46     88     79     70     1  180.0000771  0.4184000  2
     46     88     79     70     1  0.0000000  1.6024720  3
     49    118    109    100     1  180.0000771  0.4184000  2
     49    118    109    100     1  0.0000000  1.6024720  3
     52    148    139    130     1  180.0000771  0.4184000  2
     52    148    139    130     1  0.0000000  1.6024720  3
     55    178    169    160     1  180.0000771  0.4184000  2
     55    178    169    160     1  0.0000000  1.6024720  3
     60     61     73     85     1  0.0000000  0.6508444  3
     60     64     76     82     1  0.0000000  0.6508444  3
     60     67     70     79     1  0.0000000  0.6508444  3
     61     60     64     76     1  0.0000000  0.6508444  3
     61     60     67     70     1  0.0000000  0.6508444  3
     61     73     85    238     1  0.0000000  0.6508444  3
     64     60     61     73     1  0.0000000  0.6508444  3
     64     60     67     70     1  0.0000000  0.6508444  3
     64     76     82    208     1  0.0000000  0.6508444  3
     67     60     61     73     1  0.0000000  0.6508444  3
     67     60     64     76     1  0.0000000  0.6508444  3
     67     70     79     88     1  0.0000000  0.6508444  3
     73     85    238    229     1  180.0000771  0.4184000  2
     73     85    238    229     1  0.0000000  1.6024720  3
     76     82    208    199     1  180.0000771  0.4184000  2
     76     82    208    199     1  0.0000000  1.6024720  3
     82    208    199    190     1  180.0000771  0.4184000  2
     82    208    199    190     1  0.0000000  1.6024720  3
     85    238    229    220     1  180.0000771  0.4184000  2
     85    238    229    220     1  0.0000000  1.6024720  3
     90     91    103    115     1  0.0000000  0.6508444  3
     90     94    106    112     1  0.0000000  0.6508444  3
     90     97    100    109     1  0.0000000  0.6508444  3
     91     90     94    106     1  0.0000000  0.6508444  3
     91     90     97    100     1  0.0000000  0.6508444  3
     91    103    115    298     1  0.0000000  0.6508444  3
     94     90     91    103     1  0.0000000  0.6508444  3
     94     90     97    100     1  0.0000000  0.6508444  3
     94    106    112    268     1  0.0000000  0.6508444  3
     97     90     91    103     1  0.0000000  0.6508444  3
     97     90     94    106     1  0.0000000  0.6508444  3
     97    100    109    118     1  0.0000000  0.6508444  3
    103    115    298    289     1  180.0000771  0.4184000  2
    103    115    298    289     1  0.0000000  1.6024720  3
    106    112    268    259     1  180.0000771  0.4184000  2
    106    112    268    259     1  0.0000000  1.6024720  3
    112    268    259    250     1  180.0000771  0.4184000  2
    112    268    259    250     1  0.0000000  1.6024720  3
    115    298    289    280     1  180.0000771  0.4184000  2
    115    298    289    280     1  0.0000000  1.6024720  3
    120    121    133    145     1  0.0000000  0.6508444  3
    120    124    136    142     1  0.0000000  0.6508444  3
    120    127    130    139     1  0.0000000  0.6508444  3
    121    120    124    136     1  0.0000000  0.6508444  3
    121    120    127    130     1  0.0000000  0.6508444  3
    121    133    145    358     1  0.0000000  0.6508444  3
    124    120    121    133     1  0.0000000  0.6508444  3
    124    120    127    130     1  0.0000000  0.6508444  3
    124    136    142    328     1  0.0000000  0.6508444  3
    127    120    121    133     1  0.0000000  0.6508444  3
    127    120    124    136     1  0.0000000  0.6508444  3
    127    130    139    148     1  0.0000000  0.6508444  3
    133    145    358    349     1  180.0000771  0.4184000  2
    133    145    358    349     1  0.0000000  1.6024720  3
    136    142    328    319     1  180.0000771  0.4184000  2
    136    142    328    319     1  0.0000000  1.6024720  3
    142    328    319    310     1  180.0000771  0.4184000  2
    142    328    319    310     1  0.0000000  1.6024720  3
    145    358    349    340     1  180.0000771  0.4184000  2
    145    358    349    340     1  0.0000000  1.6024720  3
    150    151    163    175     1  0.0000000  0.6508444  3
    150    154    166    172     1  0.0000000  0.6508444  3
    150    157    160    169     1  0.0000000  0.6508444  3
    151    150    154    166     1  0.0000000  0.6508444  3
    151    150    157    160     1  0.0000000  0.6508444  3
    151    163    175    418     1  0.0000000  0.6508444  3
    154    150    151    163     1  0.0000000  0.6508444  3
    154    150    157    160     1  0.0000000  0.6508444  3
    154    166    172    388     1  0.0000000  0.6508444  3
    157    150    151    163     1  0.0000000  0.6508444  3
    157    150    154    166     1  0.0000000  0.6508444  3
    157    160    169    178     1  0.0000000  0.6508444  3
    163    175    418    409     1  180.0000771  0.4184000  2
    163    175    418    409     1  0.0000000  1.6024720  3
    166    172    388    379     1  180.0000771  0.4184000  2
    166    172    388    379     1  0.0000000  1.6024720  3
    172    388    379    370     1  180.0000771  0.4184000  2
    172    388    379    370     1  0.0000000  1.6024720  3
    175    418    409    400     1  180.0000771  0.4184000  2
    175    418    409    400     1  0.0000000  1.6024720  3
    180    181    193    205     1  0.0000000  0.6508444  3
    180    184    196    202     1  0.0000000  0.6508444  3
    180    187    190    199     1  0.0000000  0.6508444  3
    181    180    184    196     1  0.0000000  0.6508444  3
    181    180    187    190     1  0.0000000  0.6508444  3
    181    193    205    478     1  0.0000000  0.6508444  3
    184    180    181    193     1  0.0000000  0.6508444  3
    184    180    187    190     1  0.0000000  0.6508444  3
    184    196    202    448     1  0.0000000  0.6508444  3
    187    180    181    193     1  0.0000000  0.6508444  3
    187    180    184    196     1  0.0000000  0.6508444  3
    187    190    199    208     1  0.0000000  0.6508444  3
    193    205    478    469     1  180.0000771  0.4184000  2
    193    205    478    469     1  0.0000000  1.6024720  3
    196    202    448    439     1  180.0000771  0.4184000  2
    196    202    448    439     1  0.0000000  1.6024720  3
    202    448    439    430     1  180.0000771  0.4184000  2
    202    448    439    430     1  0.0000000  1.6024720  3
    205    478    469    460     1  180.0000771  0.4184000  2
    205    478    469    460     1  0.0000000  1.6024720  3
    210    211    223    235     1  0.0000000  0.6508444  3
    210    214    226    232     1  0.0000000  0.6508444  3
    210    217    220    229     1  0.0000000  0.6508444  3
    211    210    214    226     1  0.0000000  0.6508444  3
    211    210    217    220     1  0.0000000  0.6508444  3
    211    223    235    538     1  0.0000000  0.6508444  3
    214    210    211    223     1  0.0000000  0.6508444  3
    214    210    217    220     1  0.0000000  0.6508444  3
    214    226    232    508     1  0.0000000  0.6508444  3
    217    210    211    223     1  0.0000000  0.6508444  3
    217    210    214    226     1  0.0000000  0.6508444  3
    217    220    229    238     1  0.0000000  0.6508444  3
    223    235    538    529     1  180.0000771  0.4184000  2
    223    235    538    529     1  0.0000000  1.6024720  3
    226    232    508    499     1  180.0000771  0.4184000  2
    226    232    508    499     1  0.0000000  1.6024720  3
    232    508    499    490     1  180.0000771  0.4184000  2
    232    508    499    490     1  0.0000000  1.6024720  3
    235    538    529    520     1  180.0000771  0.4184000  2
    235    538    529    520     1  0.0000000  1.6024720  3
    240    241    253    265     1  0.0000000  0.6508444  3
    240    244    256    262     1  0.0000000  0.6508444  3
    240    247    250    259     1  0.0000000  0.6508444  3
    241    240    244    256     1  0.0000000  0.6508444  3
    241    240    247    250     1  0.0000000  0.6508444  3
    241    253    265    598     1  0.0000000  0.6508444  3
    244    240    241    253     1  0.0000000  0.6508444  3
    244    240    247    250     1  0.0000000  0.6508444  3
    244    256    262    568     1  0.0000000  0.6508444  3
    247    240    241    253     1  0.0000000  0.6508444  3
    247    240    244    256     1  0.0000000  0.6508444  3
    247    250    259    268     1  0.0000000  0.6508444  3
    253    265    598    589     1  180.0000771  0.4184000  2
    253    265    598    589     1  0.0000000  1.6024720  3
    256    262    568    559     1  180.0000771  0.4184000  2
    256    262    568    559     1  0.0000000  1.6024720  3
    262    568    559    550     1  180.0000771  0.4184000  2
    262    568    559    550     1  0.0000000  1.6024720  3
    265    598    589    580     1  180.0000771  0.4184000  2
    265    598    589    580     1  0.0000000  1.6024720  3
    270    271    283    295     1  0.0000000  0.6508444  3
    270    274    286    292     1  0.0000000  0.6508444  3
    270    277    280    289     1  0.0000000  0.6508444  3
    271    270    274    286     1  0.0000000  0.6508444  3
    271    270    277    280     1  0.0000000  0.6508444  3
    271    283    295    658     1  0.0000000  0.6508444  3
    274    270    271    283     1  0.0000000  0.6508444  3
    274    270    277    280     1  0.0000000  0.6508444  3
    274    286    292    628     1  0.0000000  0.6508444  3
    277    270    271    283     1  0.0000000  0.6508444  3
    277    270    274    286     1  0.0000000  0.6508444  3
    277    280    289    298     1  0.0000000  0.6508444  3
    283    295    658    649     1  180.0000771  0.4184000  2
    283    295    658    649     1  0.0000000  1.6024720  3
    286    292    628    619     1  180.0000771  0.4184000  2
    286    292    628    619     1  0.0000000  1.6024720  3
    292    628    619    610     1  180.0000771  0.4184000  2
    292    628    619    610     1  0.0000000  1.6024720  3
    295    658    649    640     1  180.0000771  0.4184000  2
    295    658    649    640     1  0.0000000  1.6024720  3
    300    301    313    325     1  0.0000000  0.6508444  3
    300    304    316    322     1  0.0000000  0.6508444  3
    300    307    310    319     1  0.0000000  0.6508444  3
    301    300    304    316     1  0.0000000  0.6508444  3
    301    300    307    310     1  0.0000000  0.6508444  3
    301    313    325    718     1  0.0000000  0.6508444  3
    304    300    301    313     1  0.0000000  0.6508444  3
    304    300    307    310     1  0.0000000  0.6508444  3
    304    316    322    688     1  0.0000000  0.6508444  3
    307    300    301    313     1  0.0000000  0.6508444  3
    307    300    304    316     1  0.0000000  0.6508444  3
    307    310    319    328     1  0.0000000  0.6508444  3
    313    325    718    709     1  180.0000771  0.4184000  2
    313    325    718    709     1  0.0000000  1.6024720  3
    316    322    688    679     1  180.0000771  0.4184000  2
    316    322    688    679     1  0.0000000  1.6024720  3
    322    688    679    670     1  180.0000771  0.4184000  2
    322    688    679    670     1  0.0000000  1.6024720  3
    325    718    709    700     1  180.0000771  0.4184000  2
    325    718    709    700     1  0.0000000  1.6024720  3
    330    331    343    355     1  0.0000000  0.6508444  3
    330    334    346    352     1  0.0000000  0.6508444  3
    330    337    340    349     1  0.0000000  0.6508444  3
    331    330    334    346     1  0.0000000  0.6508444  3
    331    330    337    340     1  0.0000000  0.6508444  3
    331    343    355    778     1  0.0000000  0.6508444  3
    334    330    331    343     1  0.0000000  0.6508444  3
    334    330    337    340     1  0.0000000  0.6508444  3
    334    346    352    748     1  0.0000000  0.6508444  3
    337    330    331    343     1  0.0000000  0.6508444  3
    337    330    334    346     1  0.0000000  0.6508444  3
    337    340    349    358     1  0.0000000  0.6508444  3
    343    355    778    769     1  180.0000771  0.4184000  2
    343    355    778    769     1  0.0000000  1.6024720  3
    346    352    748    739     1  180.0000771  0.4184000  2
    346    352    748    739     1  0.0000000  1.6024720  3
    352    748    739    730     1  180.0000771  0.4184000  2
    352    748    739    730     1  0.0000000  1.6024720  3
    355    778    769    760     1  180.0000771  0.4184000  2
    355    778    769    760     1  0.0000000  1.6024720  3
    360    361    373    385     1  0.0000000  0.6508444  3
    360    364    376    382     1  0.0000000  0.6508444  3
    360    367    370    379     1  0.0000000  0.6508444  3
    361    360    364    376     1  0.0000000  0.6508444  3
    361    360    367    370     1  0.0000000  0.6508444  3
    361    373    385    838     1  0.0000000  0.6508444  3
    364    360    361    373     1  0.0000000  0.6508444  3
    364    360    367    370     1  0.0000000  0.6508444  3
    364    376    382    808     1  0.0000000  0.6508444  3
    367    360    361    373     1  0.0000000  0.6508444  3
    367    360    364    376     1  0.0000000  0.6508444  3
    367    370    379    388     1  0.0000000  0.6508444  3
    373    385    838    829     1  180.0000771  0.4184000  2
    373    385    838    829     1  0.0000000  1.6024720  3
    376    382    808    799     1  180.0000771  0.4184000  2
    376    382    808    799     1  0.0000000  1.6024720  3
    382    808    799    790     1  180.0000771  0.4184000  2
    382    808    799    790     1  0.0000000  1.6024720  3
    385    838    829    820     1  180.0000771  0.4184000  2
    385    838    829    820     1  0.0000000  1.6024720  3
    390    391    403    415     1  0.0000000  0.6508444  3
    390    394    406    412     1  0.0000000  0.6508444  3
    390    397    400    409     1  0.0000000  0.6508444  3
    391    390    394    406     1  0.0000000  0.6508444  3
    391    390    397    400     1  0.0000000  0.6508444  3
    391    403    415    898     1  0.0000000  0.6508444  3
    394    390    391    403     1  0.0000000  0.6508444  3
    394    390    397    400     1  0.0000000  0.6508444  3
    394    406    412    868     1  0.0000000  0.6508444  3
    397    390    391    403     1  0.0000000  0.6508444  3
    397    390    394    406     1  0.0000000  0.6508444  3
    397    400    409    418     1  0.0000000  0.6508444  3
    403    415    898    889     1  180.0000771  0.4184000  2
    403    415    898    889     1  0.0000000  1.6024720  3
    406    412    868    859     1  180.0000771  0.4184000  2
    406    412    868    859     1  0.0000000  1.6024720  3
    412    868    859    850     1  180.0000771  0.4184000  2
    412    868    859    850     1  0.0000000  1.6024720  3
    415    898    889    880     1  180.0000771  0.4184000  2
    415    898    889    880     1  0.0000000  1.6024720  3
    420    421    433    445     1  0.0000000  0.6508444  3
    420    424    436    442     1  0.0000000  0.6508444  3
    420    427    430    439     1  0.0000000  0.6508444  3
    421    420    424    436     1  0.0000000  0.6508444  3
    421    420    427    430     1  0.0000000  0.6508444  3
    421    433    445    958     1  0.0000000  0.6508444  3
    424    420    421    433     1  0.0000000  0.6508444  3
    424    420    427    430     1  0.0000000  0.6508444  3
    424    436    442    928     1  0.0000000  0.6508444  3
    427    420    421    433     1  0.0000000  0.6508444  3
    427    420    424    436     1  0.0000000  0.6508444  3
    427    430    439    448     1  0.0000000  0.6508444  3
    433    445    958    949     1  180.0000771  0.4184000  2
    433    445    958    949     1  0.0000000  1.6024720  3
    436    442    928    919     1  180.0000771  0.4184000  2
    436    442    928    919     1  0.0000000  1.6024720  3
    442    928    919    910     1  180.0000771  0.4184000  2
    442    928    919    910     1  0.0000000  1.6024720  3
    445    958    949    940     1  180.0000771  0.4184000  2
    445    958    949    940     1  0.0000000  1.6024720  3
    450    451    463    475     1  0.0000000  0.6508444  3
    450    454    466    472     1  0.0000000  0.6508444  3
    450    457    460    469     1  0.0000000  0.6508444  3
    451    450    454    466     1  0.0000000  0.6508444  3
    451    450    457    460     1  0.0000000  0.6508444  3
    451    463    475   1018     1  0.0000000  0.6508444  3
    454    450    451    463     1  0.0000000  0.6508444  3
    454    450    457    460     1  0.0000000  0.6508444  3
    454    466    472    988     1  0.0000000  0.6508444  3
    457    450    451    463     1  0.0000000  0.6508444  3
    457    450    454    466     1  0.0000000  0.6508444  3
    457    460    469    478     1  0.0000000  0.6508444  3
    463    475   1018   1009     1  180.0000771  0.4184000  2
    463    475   1018   1009     1  0.0000000  1.6024720  3
    466    472    988    979     1  180.0000771  0.4184000  2
    466    472    988    979     1  0.0000000  1.6024720  3
    472    988    979    970     1  180.0000771  0.4184000  2
    472    988    979    970     1  0.0000000  1.6024720  3
    475   1018   1009   1000     1  180.0000771  0.4184000  2
    475   1018   1009   1000     1  0.0000000  1.6024720  3
    480    481    493    505     1  0.0000000  0.6508444  3
    480    484    496    502     1  0.0000000  0.6508444  3
    480    487    490    499     1  0.0000000  0.6508444  3
    481    480    484    496     1  0.0000000  0.6508444  3
    481    480    487    490     1  0.0000000  0.6508444  3
    481    493    505   1078     1  0.0000000  0.6508444  3
    484    480    481    493     1  0.0000000  0.6508444  3
    484    480    487    490     1  0.0000000  0.6508444  3
    484    496    502   1048     1  0.0000000  0.6508444  3
    487    480    481    493     1  0.0000000  0.6508444  3
    487    480    484    496     1  0.0000000  0.6508444  3
    487    490    499    508     1  0.0000000  0.6508444  3
    493    505   1078   1069     1  180.0000771  0.4184000  2
    493    505   1078   1069     1  0.0000000  1.6024720  3
    496    502   1048   1039     1  180.0000771  0.4184000  2
    496    502   1048   1039     1  0.0000000  1.6024720  3
    502   1048   1039   1030     1  180.0000771  0.4184000  2
    502   1048   1039   1030     1  0.0000000  1.6024720  3
    505   1078   1069   1060     1  180.0000771  0.4184000  2
    505   1078   1069   1060     1  0.0000000  1.6024720  3
    510    511    523    535     1  0.0000000  0.6508444  3
    510    514    526    532     1  0.0000000  0.6508444  3
    510    517    520    529     1  0.0000000  0.6508444  3
    511    510    514    526     1  0.0000000  0.6508444  3
    511    510    517    520     1  0.0000000  0.6508444  3
    511    523    535   1138     1  0.0000000  0.6508444  3
    514    510    511    523     1  0.0000000  0.6508444  3
    514    510    517    520     1  0.0000000  0.6508444  3
    514    526    532   1108     1  0.0000000  0.6508444  3
    517    510    511    523     1  0.0000000  0.6508444  3
    517    510    514    526     1  0.0000000  0.6508444  3
    517    520    529    538     1  0.0000000  0.6508444  3
    523    535   1138   1129     1  180.0000771  0.4184000  2
    523    535   1138   1129     1  0.0000000  1.6024720  3
    526    532   1108   1099     1  180.0000771  0.4184000  2
    526    532   1108   1099     1  0.0000000  1.6024720  3
    532   1108   1099   1090     1  180.0000771  0.4184000  2
    532   1108   1099   1090     1  0.0000000  1.6024720  3
    535   1138   1129   1120     1  180.0000771  0.4184000  2
    535   1138   1129   1120     1  0.0000000  1.6024720  3
    540    541    553    565     1  0.0000000  0.6508444  3
    540    544    556    562     1  0.0000000  0.6508444  3
    540    547    550    559     1  0.0000000  0.6508444  3
    541    540    544    556     1  0.0000000  0.6508444  3
    541    540    547    550     1  0.0000000  0.6508444  3
    541    553    565   1198     1  0.0000000  0.6508444  3
    544    540    541    553     1  0.0000000  0.6508444  3
    544    540    547    550     1  0.0000000  0.6508444  3
    544    556    562   1168     1  0.0000000  0.6508444  3
    547    540    541    553     1  0.0000000  0.6508444  3
    547    540    544    556     1  0.0000000  0.6508444  3
    547    550    559    568     1  0.0000000  0.6508444  3
    553    565   1198   1189     1  180.0000771  0.4184000  2
    553    565   1198   1189     1  0.0000000  1.6024720  3
    556    562   1168   1159     1  180.0000771  0.4184000  2
    556    562   1168   1159     1  0.0000000  1.6024720  3
    562   1168   1159   1150     1  180.0000771  0.4184000  2
    562   1168   1159   1150     1  0.0000000  1.6024720  3
    565   1198   1189   1180     1  180.0000771  0.4184000  2
    565   1198   1189   1180     1  0.0000000  1.6024720  3
    570    571    583    595     1  0.0000000  0.6508444  3
    570    574    586    592     1  0.0000000  0.6508444  3
    570    577    580    589     1  0.0000000  0.6508444  3
    571    570    574    586     1  0.0000000  0.6508444  3
    571    570    577    580     1  0.0000000  0.6508444  3
    571    583    595   1258     1  0.0000000  0.6508444  3
    574    570    571    583     1  0.0000000  0.6508444  3
    574    570    577    580     1  0.0000000  0.6508444  3
    574    586    592   1228     1  0.0000000  0.6508444  3
    577    570    571    583     1  0.0000000  0.6508444  3
    577    570    574    586     1  0.0000000  0.6508444  3
    577    580    589    598     1  0.0000000  0.6508444  3
    583    595   1258   1249     1  180.0000771  0.4184000  2
    583    595   1258   1249     1  0.0000000  1.6024720  3
    586    592   1228   1219     1  180.0000771  0.4184000  2
    586    592   1228   1219     1  0.0000000  1.6024720  3
    592   1228   1219   1210     1  180.0000771  0.4184000  2
    592   1228   1219   1210     1  0.0000000  1.6024720  3
    595   1258   1249   1240     1  180.0000771  0.4184000  2
    595   1258   1249   1240     1  0.0000000  1.6024720  3
    600    601    613    625     1  0.0000000  0.6508444  3
    600    604    616    622     1  0.0000000  0.6508444  3
    600    607    610    619     1  0.0000000  0.6508444  3
    601    600    604    616     1  0.0000000  0.6508444  3
    601    600    607    610     1  0.0000000  0.6508444  3
    601    613    625   1318     1  0.0000000  0.6508444  3
    604    600    601    613     1  0.0000000  0.6508444  3
    604    600    607    610     1  0.0000000  0.6508444  3
    604    616    622   1288     1  0.0000000  0.6508444  3
    607    600    601    613     1  0.0000000  0.6508444  3
    607    600    604    616     1  0.0000000  0.6508444  3
    607    610    619    628     1  0.0000000  0.6508444  3
    613    625   1318   1309     1  180.0000771  0.4184000  2
    613    625   1318   1309     1  0.0000000  1.6024720  3
    616    622   1288   1279     1  180.0000771  0.4184000  2
    616    622   1288   1279     1  0.0000000  1.6024720  3
    622   1288   1279   1270     1  180.0000771  0.4184000  2
    622   1288   1279   1270     1  0.0000000  1.6024720  3
    625   1318   1309   1300     1  180.0000771  0.4184000  2
    625   1318   1309   1300     1  0.0000000  1.6024720  3
    630    631    643    655     1  0.0000000  0.6508444  3
    630    634    646    652     1  0.0000000  0.6508444  3
    630    637    640    649     1  0.0000000  0.6508444  3
    631    630    634    646     1  0.0000000  0.6508444  3
    631    630    637    640     1  0.0000000  0.6508444  3
    631    643    655   1378     1  0.0000000  0.6508444  3
    634    630    631    643     1  0.0000000  0.6508444  3
    634    630    637    640     1  0.0000000  0.6508444  3
    634    646    652   1348     1  0.0000000  0.6508444  3
    637    630    631    643     1  0.0000000  0.6508444  3
    637    630    634    646     1  0.0000000  0.6508444  3
    637    640    649    658     1  0.0000000  0.6508444  3
    643    655   1378   1369     1  180.0000771  0.4184000  2
    643    655   1378   1369     1  0.0000000  1.6024720  3
    646    652   1348   1339     1  180.0000771  0.4184000  2
    646    652   1348   1339     1  0.0000000  1.6024720  3
    652   1348   1339   1330     1  180.0000771  0.4184000  2
    652   1348   1339   1330     1  0.0000000  1.6024720  3
    655   1378   1369   1360     1  180.0000771  0.4184000  2
    655   1378   1369   1360     1  0.0000000  1.6024720  3
    660    661    673    685     1  0.0000000  0.6508444  3
    660    664    676    682     1  0.0000000  0.6508444  3
    660    667    670    679     1  0.0000000  0.6508444  3
    661    660    664    676     1  0.0000000  0.6508444  3
    661    660    667    670     1  0.0000000  0.6508444  3
    661    673    685   1438     1  0.0000000  0.6508444  3
    664    660    661    673     1  0.0000000  0.6508444  3
    664    660    667    670     1  0.0000000  0.6508444  3
    664    676    682   1408     1  0.0000000  0.6508444  3
    667    660    661    673     1  0.0000000  0.6508444  3
    667    660    664    676     1  0.0000000  0.6508444  3
    667    670    679    688     1  0.0000000  0.6508444  3
    673    685   1438   1429     1  180.0000771  0.4184000  2
    673    685   1438   1429     1  0.0000000  1.6024720  3
    676    682   1408   1399     1  180.0000771  0.4184000  2
    676    682   1408   1399     1  0.0000000  1.6024720  3
    682   1408   1399   1390     1  180.0000771  0.4184000  2
    682   1408   1399   1390     1  0.0000000  1.6024720  3
    685   1438   1429   1420     1  180.0000771  0.4184000  2
    685   1438   1429   1420     1  0.0000000  1.6024720  3
    690    691    703    715     1  0.0000000  0.6508444  3
    690    694    706    712     1  0.0000000  0.6508444  3
    690    697    700    709     1  0.0000000  0.6508444  3
    691    690    694    706     1  0.0000000  0.6508444  3
    691    690    697    700     1  0.0000000  0.6508444  3
    691    703    715   1498     1  0.0000000  0.6508444  3
    694    690    691    703     1  0.0000000  0.6508444  3
    694    690    697    700     1  0.0000000  0.6508444  3
    694    706    712   1468     1  0.0000000  0.6508444  3
    697    690    691    703     1  0.0000000  0.6508444  3
    697    690    694    706     1  0.0000000  0.6508444  3
    697    700    709    718     1  0.0000000  0.6508444  3
    703    715   1498   1489     1  180.0000771  0.4184000  2
    703    715   1498   1489     1  0.0000000  1.6024720  3
    706    712   1468   1459     1  180.0000771  0.4184000  2
    706    712   1468   1459     1  0.0000000  1.6024720  3
    712   1468   1459   1450     1  180.0000771  0.4184000  2
    712   1468   1459   1450     1  0.0000000  1.6024720  3
    715   1498   1489   1480     1  180.0000771  0.4184000  2
    715   1498   1489   1480     1  0.0000000  1.6024720  3
    720    721    733    745     1  0.0000000  0.6508444  3
    720    724    736    742     1  0.0000000  0.6508444  3
    720    727    730    739     1  0.0000000  0.6508444  3
    721    720    724    736     1  0.0000000  0.6508444  3
    721    720    727    730     1  0.0000000  0.6508444  3
    721    733    745   1558     1  0.0000000  0.6508444  3
    724    720    721    733     1  0.0000000  0.6508444  3
    724    720    727    730     1  0.0000000  0.6508444  3
    724    736    742   1528     1  0.0000000  0.6508444  3
    727    720    721    733     1  0.0000000  0.6508444  3
    727    720    724    736     1  0.0000000  0.6508444  3
    727    730    739    748     1  0.0000000  0.6508444  3
    733    745   1558   1549     1  180.0000771  0.4184000  2
    733    745   1558   1549     1  0.0000000  1.6024720  3
    736    742   1528   1519     1  180.0000771  0.4184000  2
    736    742   1528   1519     1  0.0000000  1.6024720  3
    742   1528   1519   1510     1  180.0000771  0.4184000  2
    742   1528   1519   1510     1  0.0000000  1.6024720  3
    745   1558   1549   1540     1  180.0000771  0.4184000  2
    745   1558   1549   1540     1  0.0000000  1.6024720  3
    750    751    763    775     1  0.0000000  0.6508444  3
    750    754    766    772     1  0.0000000  0.6508444  3
    750    757    760    769     1  0.0000000  0.6508444  3
    751    750    754    766     1  0.0000000  0.6508444  3
    751    750    757    760     1  0.0000000  0.6508444  3
    751    763    775   1618     1  0.0000000  0.6508444  3
    754    750    751    763     1  0.0000000  0.6508444  3
    754    750    757    760     1  0.0000000  0.6508444  3
    754    766    772   1588     1  0.0000000  0.6508444  3
    757    750    751    763     1  0.0000000  0.6508444  3
    757    750    754    766     1  0.0000000  0.6508444  3
    757    760    769    778     1  0.0000000  0.6508444  3
    763    775   1618   1609     1  180.0000771  0.4184000  2
    763    775   1618   1609     1  0.0000000  1.6024720  3
    766    772   1588   1579     1  180.0000771  0.4184000  2
    766    772   1588   1579     1  0.0000000  1.6024720  3
    772   1588   1579   1570     1  180.0000771  0.4184000  2
    772   1588   1579   1570     1  0.0000000  1.6024720  3
    775   1618   1609   1600     1  180.0000771  0.4184000  2
    775   1618   1609   1600     1  0.0000000  1.6024720  3
    780    781    793    805     1  0.0000000  0.6508444  3
    780    784    796    802     1  0.0000000  0.6508444  3
    780    787    790    799     1  0.0000000  0.6508444  3
    781    780    784    796     1  0.0000000  0.6508444  3
    781    780    787    790     1  0.0000000  0.6508444  3
    781    793    805   1678     1  0.0000000  0.6508444  3
    784    780    781    793     1  0.0000000  0.6508444  3
    784    780    787    790     1  0.0000000  0.6508444  3
    784    796    802   1648     1  0.0000000  0.6508444  3
    787    780    781    793     1  0.0000000  0.6508444  3
    787    780    784    796     1  0.0000000  0.6508444  3
    787    790    799    808     1  0.0000000  0.6508444  3
    793    805   1678   1669     1  180.0000771  0.4184000  2
    793    805   1678   1669     1  0.0000000  1.6024720  3
    796    802   1648   1639     1  180.0000771  0.4184000  2
    796    802   1648   1639     1  0.0000000  1.6024720  3
    802   1648   1639   1630     1  180.0000771  0.4184000  2
    802   1648   1639   1630     1  0.0000000  1.6024720  3
    805   1678   1669   1660     1  180.0000771  0.4184000  2
    805   1678   1669   1660     1  0.0000000  1.6024720  3
    810    811    823    835     1  0.0000000  0.6508444  3
    810    814    826    832     1  0.0000000  0.6508444  3
    810    817    820    829     1  0.0000000  0.6508444  3
    811    810    814    826     1  0.0000000  0.6508444  3
    811    810    817    820     1  0.0000000  0.6508444  3
    811    823    835   1738     1  0.0000000  0.6508444  3
    814    810    811    823     1  0.0000000  0.6508444  3
    814    810    817    820     1  0.0000000  0.6508444  3
    814    826    832   1708     1  0.0000000  0.6508444  3
    817    810    811    823     1  0.0000000  0.6508444  3
    817    810    814    826     1  0.0000000  0.6508444  3
    817    820    829    838     1  0.0000000  0.6508444  3
    823    835   1738   1729     1  180.0000771  0.4184000  2
    823    835   1738   1729     1  0.0000000  1.6024720  3
    826    832   1708   1699     1  180.0000771  0.4184000  2
    826    832   1708   1699     1  0.0000000  1.6024720  3
    832   1708   1699   1690     1  180.0000771  0.4184000  2
    832   1708   1699   1690     1  0.0000000  1.6024720  3
    835   1738   1729   1720     1  180.0000771  0.4184000  2
    835   1738   1729   1720     1  0.0000000  1.6024720  3
    840    841    853    865     1  0.0000000  0.6508444  3
    840    844    856    862     1  0.0000000  0.6508444  3
    840    847    850    859     1  0.0000000  0.6508444  3
    841    840    844    856     1  0.0000000  0.6508444  3
    841    840    847    850     1  0.0000000  0.6508444  3
    841    853    865   1798     1  0.0000000  0.6508444  3
    844    840    841    853     1  0.0000000  0.6508444  3
    844    840    847    850     1  0.0000000  0.6508444  3
    844    856    862   1768     1  0.0000000  0.6508444  3
    847    840    841    853     1  0.0000000  0.6508444  3
    847    840    844    856     1  0.0000000  0.6508444  3
    847    850    859    868     1  0.0000000  0.6508444  3
    853    865   1798   1789     1  180.0000771  0.4184000  2
    853    865   1798   1789     1  0.0000000  1.6024720  3
    856    862   1768   1759     1  180.0000771  0.4184000  2
    856    862   1768   1759     1  0.0000000  1.6024720  3
    862   1768   1759   1750     1  180.0000771  0.4184000  2
    862   1768   1759   1750     1  0.0000000  1.6024720  3
    865   1798   1789   1780     1  180.0000771  0.4184000  2
    865   1798   1789   1780     1  0.0000000  1.6024720  3
    870    871    883    895     1  0.0000000  0.6508444  3
    870    874    886    892     1  0.0000000  0.6508444  3
    870    877    880    889     1  0.0000000  0.6508444  3
    871    870    874    886     1  0.0000000  0.6508444  3
    871    870    877    880     1  0.0000000  0.6508444  3
    871    883    895   1858     1  0.0000000  0.6508444  3
    874    870    871    883     1  0.0000000  0.6508444  3
    874    870    877    880     1  0.0000000  0.6508444  3
    874    886    892   1828     1  0.0000000  0.6508444  3
    877    870    871    883     1  0.0000000  0.6508444  3
    877    870    874    886     1  0.0000000  0.6508444  3
    877    880    889    898     1  0.0000000  0.6508444  3
    883    895   1858   1849     1  180.0000771  0.4184000  2
    883    895   1858   1849     1  0.0000000  1.6024720  3
    886    892   1828   1819     1  180.0000771  0.4184000  2
    886    892   1828   1819     1  0.0000000  1.6024720  3
    892   1828   1819   1810     1  180.0000771  0.4184000  2
    892   1828   1819   1810     1  0.0000000  1.6024720  3
    895   1858   1849   1840     1  180.0000771  0.4184000  2
    895   1858   1849   1840     1  0.0000000  1.6024720  3
    900    901    913    925     1  0.0000000  0.6508444  3
    900    904    916    922     1  0.0000000  0.6508444  3
    900    907    910    919     1  0.0000000  0.6508444  3
    901    900    904    916     1  0.0000000  0.6508444  3
    901    900    907    910     1  0.0000000  0.6508444  3
    901    913    925   1918     1  0.0000000  0.6508444  3
    904    900    901    913     1  0.0000000  0.6508444  3
    904    900    907    910     1  0.0000000  0.6508444  3
    904    916    922   1888     1  0.0000000  0.6508444  3
    907    900    901    913     1  0.0000000  0.6508444  3
    907    900    904    916     1  0.0000000  0.6508444  3
    907    910    919    928     1  0.0000000  0.6508444  3
    913    925   1918   1909     1  180.0000771  0.4184000  2
    913    925   1918   1909     1  0.0000000  1.6024720  3
    916    922   1888   1879     1  180.0000771  0.4184000  2
    916    922   1888   1879     1  0.0000000  1.6024720  3
    922   1888   1879   1870     1  180.0000771  0.4184000  2
    922   1888   1879   1870     1  0.0000000  1.6024720  3
    925   1918   1909   1900     1  180.0000771  0.4184000  2
    925   1918   1909   1900     1  0.0000000  1.6024720  3
    930    931    943    955     1  0.0000000  0.6508444  3
    930    934    946    952     1  0.0000000  0.6508444  3
    930    937    940    949     1  0.0000000  0.6508444  3
    931    930    934    946     1  0.0000000  0.6508444  3
    931    930    937    940     1  0.0000000  0.6508444  3
    931    943    955   1978     1  0.0000000  0.6508444  3
    934    930    931    943     1  0.0000000  0.6508444  3
    934    930    937    940     1  0.0000000  0.6508444  3
    934    946    952   1948     1  0.0000000  0.6508444  3
    937    930    931    943     1  0.0000000  0.6508444  3
    937    930    934    946     1  0.0000000  0.6508444  3
    937    940    949    958     1  0.0000000  0.6508444  3
    943    955   1978   1969     1  180.0000771  0.4184000  2
    943    955   1978   1969     1  0.0000000  1.6024720  3
    946    952   1948   1939     1  180.0000771  0.4184000  2
    946    952   1948   1939     1  0.0000000  1.6024720  3
    952   1948   1939   1930     1  180.0000771  0.4184000  2
    952   1948   1939   1930     1  0.0000000  1.6024720  3
    955   1978   1969   1960     1  180.0000771  0.4184000  2
    955   1978   1969   1960     1  0.0000000  1.6024720  3
    960    961    973    985     1  0.0000000  0.6508444  3
    960    964    976    982     1  0.0000000  0.6508444  3
    960    967    970    979     1  0.0000000  0.6508444  3
    961    960    964    976     1  0.0000000  0.6508444  3
    961    960    967    970     1  0.0000000  0.6508444  3
    961    973    985   2038     1  0.0000000  0.6508444  3
    964    960    961    973     1  0.0000000  0.6508444  3
    964    960    967    970     1  0.0000000  0.6508444  3
    964    976    982   2008     1  0.0000000  0.6508444  3
    967    960    961    973     1  0.0000000  0.6508444  3
    967    960    964    976     1  0.0000000  0.6508444  3
    967    970    979    988     1  0.0000000  0.6508444  3
    973    985   2038   2029     1  180.0000771  0.4184000  2
    973    985   2038   2029     1  0.0000000  1.6024720  3
    976    982   2008   1999     1  180.0000771  0.4184000  2
    976    982   2008   1999     1  0.0000000  1.6024720  3
    982   2008   1999   1990     1  180.0000771  0.4184000  2
    982   2008   1999   1990     1  0.0000000  1.6024720  3
    985   2038   2029   2020     1  180.0000771  0.4184000  2
    985   2038   2029   2020     1  0.0000000  1.6024720  3
    990    991   1003   1015     1  0.0000000  0.6508444  3
    990    994   1006   1012     1  0.0000000  0.6508444  3
    990    997   1000   1009     1  0.0000000  0.6508444  3
    991    990    994   1006     1  0.0000000  0.6508444  3
    991    990    997   1000     1  0.0000000  0.6508444  3
    991   1003   1015   2098     1  0.0000000  0.6508444  3
    994    990    991   1003     1  0.0000000  0.6508444  3
    994    990    997   1000     1  0.0000000  0.6508444  3
    994   1006   1012   2068     1  0.0000000  0.6508444  3
    997    990    991   1003     1  0.0000000  0.6508444  3
    997    990    994   1006     1  0.0000000  0.6508444  3
    997   1000   1009   1018     1  0.0000000  0.6508444  3
   1003   1015   2098   2089     1  180.0000771  0.4184000  2
   1003   1015   2098   2089     1  0.0000000  1.6024720  3
   1006   1012   2068   2059     1  180.0000771  0.4184000  2
   1006   1012   2068   2059     1  0.0000000  1.6024720  3
   1012   2068   2059   2050     1  180.0000771  0.4184000  2
   1012   2068   2059   2050     1  0.0000000  1.6024720  3
   1015   2098   2089   2080     1  180.0000771  0.4184000  2
   1015   2098   2089   2080     1  0.0000000  1.6024720  3
   1020   1021   1033   1045     1  0.0000000  0.6508444  3
   1020   1024   1036   1042     1  0.0000000  0.6508444  3
   1020   1027   1030   1039     1  0.0000000  0.6508444  3
   1021   1020   1024   1036     1  0.0000000  0.6508444  3
   1021   1020   1027   1030     1  0.0000000  0.6508444  3
   1021   1033   1045   2158     1  0.0000000  0.6508444  3
   1024   1020   1021   1033     1  0.0000000  0.6508444  3
   1024   1020   1027   1030     1  0.0000000  0.6508444  3
   1024   1036   1042   2128     1  0.0000000  0.6508444  3
   1027   1020   1021   1033     1  0.0000000  0.6508444  3
   1027   1020   1024   1036     1  0.0000000  0.6508444  3
   1027   1030   1039   1048     1  0.0000000  0.6508444  3
   1033   1045   2158   2149     1  180.0000771  0.4184000  2
   1033   1045   2158   2149     1  0.0000000  1.6024720  3
   1036   1042   2128   2119     1  180.0000771  0.4184000  2
   1036   1042   2128   2119     1  0.0000000  1.6024720  3
   1042   2128   2119   2110     1  180.0000771  0.4184000  2
   1042   2128   2119   2110     1  0.0000000  1.6024720  3
   1045   2158   2149   2140     1  180.0000771  0.4184000  2
   1045   2158   2149   2140     1  0.0000000  1.6024720  3
   1050   1051   1063   1075     1  0.0000000  0.6508444  3
   1050   1054   1066   1072     1  0.0000000  0.6508444  3
   1050   1057   1060   1069     1  0.0000000  0.6508444  3
   1051   1050   1054   1066     1  0.0000000  0.6508444  3
   1051   1050   1057   1060     1  0.0000000  0.6508444  3
   1051   1063   1075   2218     1  0.0000000  0.6508444  3
   1054   1050   1051   1063     1  0.0000000  0.6508444  3
   1054   1050   1057   1060     1  0.0000000  0.6508444  3
   1054   1066   1072   2188     1  0.0000000  0.6508444  3
   1057   1050   1051   1063     1  0.0000000  0.6508444  3
   1057   1050   1054   1066     1  0.0000000  0.6508444  3
   1057   1060   1069   1078     1  0.0000000  0.6508444  3
   1063   1075   2218   2209     1  180.0000771  0.4184000  2
   1063   1075   2218   2209     1  0.0000000  1.6024720  3
   1066   1072   2188   2179     1  180.0000771  0.4184000  2
   1066   1072   2188   2179     1  0.0000000  1.6024720  3
   1072   2188   2179   2170     1  180.0000771  0.4184000  2
   1072   2188   2179   2170     1  0.0000000  1.6024720  3
   1075   2218   2209   2200     1  180.0000771  0.4184000  2
   1075   2218   2209   2200     1  0.0000000  1.6024720  3
   1080   1081   1093   1105     1  0.0000000  0.6508444  3
   1080   1084   1096   1102     1  0.0000000  0.6508444  3
   1080   1087   1090   1099     1  0.0000000  0.6508444  3
   1081   1080   1084   1096     1  0.0000000  0.6508444  3
   1081   1080   1087   1090     1  0.0000000  0.6508444  3
   1081   1093   1105   2278     1  0.0000000  0.6508444  3
   1084   1080   1081   1093     1  0.0000000  0.6508444  3
   1084   1080   1087   1090     1  0.0000000  0.6508444  3
   1084   1096   1102   2248     1  0.0000000  0.6508444  3
   1087   1080   1081   1093     1  0.0000000  0.6508444  3
   1087   1080   1084   1096     1  0.0000000  0.6508444  3
   1087   1090   1099   1108     1  0.0000000  0.6508444  3
   1093   1105   2278   2269     1  180.0000771  0.4184000  2
   1093   1105   2278   2269     1  0.0000000  1.6024720  3
   1096   1102   2248   2239     1  180.0000771  0.4184000  2
   1096   1102   2248   2239     1  0.0000000  1.6024720  3
   1102   2248   2239   2230     1  180.0000771  0.4184000  2
   1102   2248   2239   2230     1  0.0000000  1.6024720  3
   1105   2278   2269   2260     1  180.0000771  0.4184000  2
   1105   2278   2269   2260     1  0.0000000  1.6024720  3
   1110   1111   1123   1135     1  0.0000000  0.6508444  3
   1110   1114   1126   1132     1  0.0000000  0.6508444  3
   1110   1117   1120   1129     1  0.0000000  0.6508444  3
   1111   1110   1114   1126     1  0.0000000  0.6508444  3
   1111   1110   1117   1120     1  0.0000000  0.6508444  3
   1111   1123   1135   2338     1  0.0000000  0.6508444  3
   1114   1110   1111   1123     1  0.0000000  0.6508444  3
   1114   1110   1117   1120     1  0.0000000  0.6508444  3
   1114   1126   1132   2308     1  0.0000000  0.6508444  3
   1117   1110   1111   1123     1  0.0000000  0.6508444  3
   1117   1110   1114   1126     1  0.0000000  0.6508444  3
   1117   1120   1129   1138     1  0.0000000  0.6508444  3
   1123   1135   2338   2329     1  180.0000771  0.4184000  2
   1123   1135   2338   2329     1  0.0000000  1.6024720  3
   1126   1132   2308   2299     1  180.0000771  0.4184000  2
   1126   1132   2308   2299     1  0.0000000  1.6024720  3
   1132   2308   2299   2290     1  180.0000771  0.4184000  2
   1132   2308   2299   2290     1  0.0000000  1.6024720  3
   1135   2338   2329   2320     1  180.0000771  0.4184000  2
   1135   2338   2329   2320     1  0.0000000  1.6024720  3
   1140   1141   1153   1165     1  0.0000000  0.6508444  3
   1140   1144   1156   1162     1  0.0000000  0.6508444  3
   1140   1147   1150   1159     1  0.0000000  0.6508444  3
   1141   1140   1144   1156     1  0.0000000  0.6508444  3
   1141   1140   1147   1150     1  0.0000000  0.6508444  3
   1141   1153   1165   2398     1  0.0000000  0.6508444  3
   1144   1140   1141   1153     1  0.0000000  0.6508444  3
   1144   1140   1147   1150     1  0.0000000  0.6508444  3
   1144   1156   1162   2368     1  0.0000000  0.6508444  3
   1147   1140   1141   1153     1  0.0000000  0.6508444  3
   1147   1140   1144   1156     1  0.0000000  0.6508444  3
   1147   1150   1159   1168     1  0.0000000  0.6508444  3
   1153   1165   2398   2389     1  180.0000771  0.4184000  2
   1153   1165   2398   2389     1  0.0000000  1.6024720  3
   1156   1162   2368   2359     1  180.0000771  0.4184000  2
   1156   1162   2368   2359     1  0.0000000  1.6024720  3
   1162   2368   2359   2350     1  180.0000771  0.4184000  2
   1162   2368   2359   2350     1  0.0000000  1.6024720  3
   1165   2398   2389   2380     1  180.0000771  0.4184000  2
   1165   2398   2389   2380     1  0.0000000  1.6024720  3
   1170   1171   1183   1195     1  0.0000000  0.6508444  3
   1170   1174   1186   1192     1  0.0000000  0.6508444  3
   1170   1177   1180   1189     1  0.0000000  0.6508444  3
   1171   1170   1174   1186     1  0.0000000  0.6508444  3
   1171   1170   1177   1180     1  0.0000000  0.6508444  3
   1171   1183   1195   2458     1  0.0000000  0.6508444  3
   1174   1170   1171   1183     1  0.0000000  0.6508444  3
   1174   1170   1177   1180     1  0.0000000  0.6508444  3
   1174   1186   1192   2428     1  0.0000000  0.6508444  3
   1177   1170   1171   1183     1  0.0000000  0.6508444  3
   1177   1170   1174   1186     1  0.0000000  0.6508444  3
   1177   1180   1189   1198     1  0.0000000  0.6508444  3
   1183   1195   2458   2449     1  180.0000771  0.4184000  2
   1183   1195   2458   2449     1  0.0000000  1.6024720  3
   1186   1192   2428   2419     1  180.0000771  0.4184000  2
   1186   1192   2428   2419     1  0.0000000  1.6024720  3
   1192   2428   2419   2410     1  180.0000771  0.4184000  2
   1192   2428   2419   2410     1  0.0000000  1.6024720  3
   1195   2458   2449   2440     1  180.0000771  0.4184000  2
   1195   2458   2449   2440     1  0.0000000  1.6024720  3
   1200   1201   1213   1225     1  0.0000000  0.6508444  3
   1200   1204   1216   1222     1  0.0000000  0.6508444  3
   1200   1207   1210   1219     1  0.0000000  0.6508444  3
   1201   1200   1204   1216     1  0.0000000  0.6508444  3
   1201   1200   1207   1210     1  0.0000000  0.6508444  3
   1201   1213   1225   2518     1  0.0000000  0.6508444  3
   1204   1200   1201   1213     1  0.0000000  0.6508444  3
   1204   1200   1207   1210     1  0.0000000  0.6508444  3
   1204   1216   1222   2488     1  0.0000000  0.6508444  3
   1207   1200   1201   1213     1  0.0000000  0.6508444  3
   1207   1200   1204   1216     1  0.0000000  0.6508444  3
   1207   1210   1219   1228     1  0.0000000  0.6508444  3
   1213   1225   2518   2509     1  180.0000771  0.4184000  2
   1213   1225   2518   2509     1  0.0000000  1.6024720  3
   1216   1222   2488   2479     1  180.0000771  0.4184000  2
   1216   1222   2488   2479     1  0.0000000  1.6024720  3
   1222   2488   2479   2470     1  180.0000771  0.4184000  2
   1222   2488   2479   2470     1  0.0000000  1.6024720  3
   1225   2518   2509   2500     1  180.0000771  0.4184000  2
   1225   2518   2509   2500     1  0.0000000  1.6024720  3
   1230   1231   1243   1255     1  0.0000000  0.6508444  3
   1230   1234   1246   1252     1  0.0000000  0.6508444  3
   1230   1237   1240   1249     1  0.0000000  0.6508444  3
   1231   1230   1234   1246     1  0.0000000  0.6508444  3
   1231   1230   1237   1240     1  0.0000000  0.6508444  3
   1231   1243   1255   2578     1  0.0000000  0.6508444  3
   1234   1230   1231   1243     1  0.0000000  0.6508444  3
   1234   1230   1237   1240     1  0.0000000  0.6508444  3
   1234   1246   1252   2548     1  0.0000000  0.6508444  3
   1237   1230   1231   1243     1  0.0000000  0.6508444  3
   1237   1230   1234   1246     1  0.0000000  0.6508444  3
   1237   1240   1249   1258     1  0.0000000  0.6508444  3
   1243   1255   2578   2569     1  180.0000771  0.4184000  2
   1243   1255   2578   2569     1  0.0000000  1.6024720  3
   1246   1252   2548   2539     1  180.0000771  0.4184000  2
   1246   1252   2548   2539     1  0.0000000  1.6024720  3
   1252   2548   2539   2530     1  180.0000771  0.4184000  2
   1252   2548   2539   2530     1  0.0000000  1.6024720  3
   1255   2578   2569   2560     1  180.0000771  0.4184000  2
   1255   2578   2569   2560     1  0.0000000  1.6024720  3
   1260   1261   1273   1285     1  0.0000000  0.6508444  3
   1260   1264   1276   1282     1  0.0000000  0.6508444  3
   1260   1267   1270   1279     1  0.0000000  0.6508444  3
   1261   1260   1264   1276     1  0.0000000  0.6508444  3
   1261   1260   1267   1270     1  0.0000000  0.6508444  3
   1261   1273   1285   2638     1  0.0000000  0.6508444  3
   1264   1260   1261   1273     1  0.0000000  0.6508444  3
   1264   1260   1267   1270     1  0.0000000  0.6508444  3
   1264   1276   1282   2608     1  0.0000000  0.6508444  3
   1267   1260   1261   1273     1  0.0000000  0.6508444  3
   1267   1260   1264   1276     1  0.0000000  0.6508444  3
   1267   1270   1279   1288     1  0.0000000  0.6508444  3
   1273   1285   2638   2629     1  180.0000771  0.4184000  2
   1273   1285   2638   2629     1  0.0000000  1.6024720  3
   1276   1282   2608   2599     1  180.0000771  0.4184000  2
   1276   1282   2608   2599     1  0.0000000  1.6024720  3
   1282   2608   2599   2590     1  180.0000771  0.4184000  2
   1282   2608   2599   2590     1  0.0000000  1.6024720  3
   1285   2638   2629   2620     1  180.0000771  0.4184000  2
   1285   2638   2629   2620     1  0.0000000  1.6024720  3
   1290   1291   1303   1315     1  0.0000000  0.6508444  3
   1290   1294   1306   1312     1  0.0000000  0.6508444  3
   1290   1297   1300   1309     1  0.0000000  0.6508444  3
   1291   1290   1294   1306     1  0.0000000  0.6508444  3
   1291   1290   1297   1300     1  0.0000000  0.6508444  3
   1291   1303   1315   2698     1  0.0000000  0.6508444  3
   1294   1290   1291   1303     1  0.0000000  0.6508444  3
   1294   1290   1297   1300     1  0.0000000  0.6508444  3
   1294   1306   1312   2668     1  0.0000000  0.6508444  3
   1297   1290   1291   1303     1  0.0000000  0.6508444  3
   1297   1290   1294   1306     1  0.0000000  0.6508444  3
   1297   1300   1309   1318     1  0.0000000  0.6508444  3
   1303   1315   2698   2689     1  180.0000771  0.4184000  2
   1303   1315   2698   2689     1  0.0000000  1.6024720  3
   1306   1312   2668   2659     1  180.0000771  0.4184000  2
   1306   1312   2668   2659     1  0.0000000  1.6024720  3
   1312   2668   2659   2650     1  180.0000771  0.4184000  2
   1312   2668   2659   2650     1  0.0000000  1.6024720  3
   1315   2698   2689   2680     1  180.0000771  0.4184000  2
   1315   2698   2689   2680     1  0.0000000  1.6024720  3
   1320   1321   1333   1345     1  0.0000000  0.6508444  3
   1320   1324   1336   1342     1  0.0000000  0.6508444  3
   1320   1327   1330   1339     1  0.0000000  0.6508444  3
   1321   1320   1324   1336     1  0.0000000  0.6508444  3
   1321   1320   1327   1330     1  0.0000000  0.6508444  3
   1321   1333   1345   2758     1  0.0000000  0.6508444  3
   1324   1320   1321   1333     1  0.0000000  0.6508444  3
   1324   1320   1327   1330     1  0.0000000  0.6508444  3
   1324   1336   1342   2728     1  0.0000000  0.6508444  3
   1327   1320   1321   1333     1  0.0000000  0.6508444  3
   1327   1320   1324   1336     1  0.0000000  0.6508444  3
   1327   1330   1339   1348     1  0.0000000  0.6508444  3
   1333   1345   2758   2749     1  180.0000771  0.4184000  2
   1333   1345   2758   2749     1  0.0000000  1.6024720  3
   1336   1342   2728   2719     1  180.0000771  0.4184000  2
   1336   1342   2728   2719     1  0.0000000  1.6024720  3
   1342   2728   2719   2710     1  180.0000771  0.4184000  2
   1342   2728   2719   2710     1  0.0000000  1.6024720  3
   1345   2758   2749   2740     1  180.0000771  0.4184000  2
   1345   2758   2749   2740     1  0.0000000  1.6024720  3
   1350   1351   1363   1375     1  0.0000000  0.6508444  3
   1350   1354   1366   1372     1  0.0000000  0.6508444  3
   1350   1357   1360   1369     1  0.0000000  0.6508444  3
   1351   1350   1354   1366     1  0.0000000  0.6508444  3
   1351   1350   1357   1360     1  0.0000000  0.6508444  3
   1351   1363   1375   2818     1  0.0000000  0.6508444  3
   1354   1350   1351   1363     1  0.0000000  0.6508444  3
   1354   1350   1357   1360     1  0.0000000  0.6508444  3
   1354   1366   1372   2788     1  0.0000000  0.6508444  3
   1357   1350   1351   1363     1  0.0000000  0.6508444  3
   1357   1350   1354   1366     1  0.0000000  0.6508444  3
   1357   1360   1369   1378     1  0.0000000  0.6508444  3
   1363   1375   2818   2809     1  180.0000771  0.4184000  2
   1363   1375   2818   2809     1  0.0000000  1.6024720  3
   1366   1372   2788   2779     1  180.0000771  0.4184000  2
   1366   1372   2788   2779     1  0.0000000  1.6024720  3
   1372   2788   2779   2770     1  180.0000771  0.4184000  2
   1372   2788   2779   2770     1  0.0000000  1.6024720  3
   1375   2818   2809   2800     1  180.0000771  0.4184000  2
   1375   2818   2809   2800     1  0.0000000  1.6024720  3
   1380   1381   1393   1405     1  0.0000000  0.6508444  3
   1380   1384   1396   1402     1  0.0000000  0.6508444  3
   1380   1387   1390   1399     1  0.0000000  0.6508444  3
   1381   1380   1384   1396     1  0.0000000  0.6508444  3
   1381   1380   1387   1390     1  0.0000000  0.6508444  3
   1381   1393   1405   2878     1  0.0000000  0.6508444  3
   1384   1380   1381   1393     1  0.0000000  0.6508444  3
   1384   1380   1387   1390     1  0.0000000  0.6508444  3
   1384   1396   1402   2848     1  0.0000000  0.6508444  3
   1387   1380   1381   1393     1  0.0000000  0.6508444  3
   1387   1380   1384   1396     1  0.0000000  0.6508444  3
   1387   1390   1399   1408     1  0.0000000  0.6508444  3
   1393   1405   2878   2869     1  180.0000771  0.4184000  2
   1393   1405   2878   2869     1  0.0000000  1.6024720  3
   1396   1402   2848   2839     1  180.0000771  0.4184000  2
   1396   1402   2848   2839     1  0.0000000  1.6024720  3
   1402   2848   2839   2830     1  180.0000771  0.4184000  2
   1402   2848   2839   2830     1  0.0000000  1.6024720  3
   1405   2878   2869   2860     1  180.0000771  0.4184000  2
   1405   2878   2869   2860     1  0.0000000  1.6024720  3
   1410   1411   1423   1435     1  0.0000000  0.6508444  3
   1410   1414   1426   1432     1  0.0000000  0.6508444  3
   1410   1417   1420   1429     1  0.0000000  0.6508444  3
   1411   1410   1414   1426     1  0.0000000  0.6508444  3
   1411   1410   1417   1420     1  0.0000000  0.6508444  3
   1411   1423   1435   2938     1  0.0000000  0.6508444  3
   1414   1410   1411   1423     1  0.0000000  0.6508444  3
   1414   1410   1417   1420     1  0.0000000  0.6508444  3
   1414   1426   1432   2908     1  0.0000000  0.6508444  3
   1417   1410   1411   1423     1  0.0000000  0.6508444  3
   1417   1410   1414   1426     1  0.0000000  0.6508444  3
   1417   1420   1429   1438     1  0.0000000  0.6508444  3
   1423   1435   2938   2929     1  180.0000771  0.4184000  2
   1423   1435   2938   2929     1  0.0000000  1.6024720  3
   1426   1432   2908   2899     1  180.0000771  0.4184000  2
   1426   1432   2908   2899     1  0.0000000  1.6024720  3
   1432   2908   2899   2890     1  180.0000771  0.4184000  2
   1432   2908   2899   2890     1  0.0000000  1.6024720  3
   1435   2938   2929   2920     1  180.0000771  0.4184000  2
   1435   2938   2929   2920     1  0.0000000  1.6024720  3
   1440   1441   1453   1465     1  0.0000000  0.6508444  3
   1440   1444   1456   1462     1  0.0000000  0.6508444  3
   1440   1447   1450   1459     1  0.0000000  0.6508444  3
   1441   1440   1444   1456     1  0.0000000  0.6508444  3
   1441   1440   1447   1450     1  0.0000000  0.6508444  3
   1441   1453   1465   2998     1  0.0000000  0.6508444  3
   1444   1440   1441   1453     1  0.0000000  0.6508444  3
   1444   1440   1447   1450     1  0.0000000  0.6508444  3
   1444   1456   1462   2968     1  0.0000000  0.6508444  3
   1447   1440   1441   1453     1  0.0000000  0.6508444  3
   1447   1440   1444   1456     1  0.0000000  0.6508444  3
   1447   1450   1459   1468     1  0.0000000  0.6508444  3
   1453   1465   2998   2989     1  180.0000771  0.4184000  2
   1453   1465   2998   2989     1  0.0000000  1.6024720  3
   1456   1462   2968   2959     1  180.0000771  0.4184000  2
   1456   1462   2968   2959     1  0.0000000  1.6024720  3
   1462   2968   2959   2950     1  180.0000771  0.4184000  2
   1462   2968   2959   2950     1  0.0000000  1.6024720  3
   1465   2998   2989   2980     1  180.0000771  0.4184000  2
   1465   2998   2989   2980     1  0.0000000  1.6024720  3
   1470   1471   1483   1495     1  0.0000000  0.6508444  3
   1470   1474   1486   1492     1  0.0000000  0.6508444  3
   1470   1477   1480   1489     1  0.0000000  0.6508444  3
   1471   1470   1474   1486     1  0.0000000  0.6508444  3
   1471   1470   1477   1480     1  0.0000000  0.6508444  3
   1471   1483   1495   3058     1  0.0000000  0.6508444  3
   1474   1470   1471   1483     1  0.0000000  0.6508444  3
   1474   1470   1477   1480     1  0.0000000  0.6508444  3
   1474   1486   1492   3028     1  0.0000000  0.6508444  3
   1477   1470   1471   1483     1  0.0000000  0.6508444  3
   1477   1470   1474   1486     1  0.0000000  0.6508444  3
   1477   1480   1489   1498     1  0.0000000  0.6508444  3
   1483   1495   3058   3049     1  180.0000771  0.4184000  2
   1483   1495   3058   3049     1  0.0000000  1.6024720  3
   1486   1492   3028   3019     1  180.0000771  0.4184000  2
   1486   1492   3028   3019     1  0.0000000  1.6024720  3
   1492   3028   3019   3010     1  180.0000771  0.4184000  2
   1492   3028   3019   3010     1  0.0000000  1.6024720  3
   1495   3058   3049   3040     1  180.0000771  0.4184000  2
   1495   3058   3049   3040     1  0.0000000  1.6024720  3
   1500   1501   1513   1525     1  0.0000000  0.6508444  3
   1500   1504   1516   1522     1  0.0000000  0.6508444  3
   1500   1507   1510   1519     1  0.0000000  0.6508444  3
   1501   1500   1504   1516     1  0.0000000  0.6508444  3
   1501   1500   1507   1510     1  0.0000000  0.6508444  3
   1501   1513   1525   3118     1  0.0000000  0.6508444  3
   1504   1500   1501   1513     1  0.0000000  0.6508444  3
   1504   1500   1507   1510     1  0.0000000  0.6508444  3
   1504   1516   1522   3088     1  0.0000000  0.6508444  3
   1507   1500   1501   1513     1  0.0000000  0.6508444  3
   1507   1500   1504   1516     1  0.0000000  0.6508444  3
   1507   1510   1519   1528     1  0.0000000  0.6508444  3
   1513   1525   3118   3109     1  180.0000771  0.4184000  2
   1513   1525   3118   3109     1  0.0000000  1.6024720  3
   1516   1522   3088   3079     1  180.0000771  0.4184000  2
   1516   1522   3088   3079     1  0.0000000  1.6024720  3
   1522   3088   3079   3070     1  180.0000771  0.4184000  2
   1522   3088   3079   3070     1  0.0000000  1.6024720  3
   1525   3118   3109   3100     1  180.0000771  0.4184000  2
   1525   3118   3109   3100     1  0.0000000  1.6024720  3
   1530   1531   1543   1555     1  0.0000000  0.6508444  3
   1530   1534   1546   1552     1  0.0000000  0.6508444  3
   1530   1537   1540   1549     1  0.0000000  0.6508444  3
   1531   1530   1534   1546     1  0.0000000  0.6508444  3
   1531   1530   1537   1540     1  0.0000000  0.6508444  3
   1531   1543   1555   3178     1  0.0000000  0.6508444  3
   1534   1530   1531   1543     1  0.0000000  0.6508444  3
   1534   1530   1537   1540     1  0.0000000  0.6508444  3
   1534   1546   1552   3148     1  0.0000000  0.6508444  3
   1537   1530   1531   1543     1  0.0000000  0.6508444  3
   1537   1530   1534   1546     1  0.0000000  0.6508444  3
   1537   1540   1549   1558     1  0.0000000  0.6508444  3
   1543   1555   3178   3169     1  180.0000771  0.4184000  2
   1543   1555   3178   3169     1  0.0000000  1.6024720  3
   1546   1552   3148   3139     1  180.0000771  0.4184000  2
   1546   1552   3148   3139     1  0.0000000  1.6024720  3
   1552   3148   3139   3130     1  180.0000771  0.4184000  2
   1552   3148   3139   3130     1  0.0000000  1.6024720  3
   1555   3178   3169   3160     1  180.0000771  0.4184000  2
   1555   3178   3169   3160     1  0.0000000  1.6024720  3
   1560   1561   1573   1585     1  0.0000000  0.6508444  3
   1560   1564   1576   1582     1  0.0000000  0.6508444  3
   1560   1567   1570   1579     1  0.0000000  0.6508444  3
   1561   1560   1564   1576     1  0.0000000  0.6508444  3
   1561   1560   1567   1570     1  0.0000000  0.6508444  3
   1561   1573   1585   3238     1  0.0000000  0.6508444  3
   1564   1560   1561   1573     1  0.0000000  0.6508444  3
   1564   1560   1567   1570     1  0.0000000  0.6508444  3
   1564   1576   1582   3208     1  0.0000000  0.6508444  3
   1567   1560   1561   1573     1  0.0000000  0.6508444  3
   1567   1560   1564   1576     1  0.0000000  0.6508444  3
   1567   1570   1579   1588     1  0.0000000  0.6508444  3
   1573   1585   3238   3229     1  180.0000771  0.4184000  2
   1573   1585   3238   3229     1  0.0000000  1.6024720  3
   1576   1582   3208   3199     1  180.0000771  0.4184000  2
   1576   1582   3208   3199     1  0.0000000  1.6024720  3
   1582   3208   3199   3190     1  180.0000771  0.4184000  2
   1582   3208   3199   3190     1  0.0000000  1.6024720  3
   1585   3238   3229   3220     1  180.0000771  0.4184000  2
   1585   3238   3229   3220     1  0.0000000  1.6024720  3
   1590   1591   1603   1615     1  0.0000000  0.6508444  3
   1590   1594   1606   1612     1  0.0000000  0.6508444  3
   1590   1597   1600   1609     1  0.0000000  0.6508444  3
   1591   1590   1594   1606     1  0.0000000  0.6508444  3
   1591   1590   1597   1600     1  0.0000000  0.6508444  3
   1591   1603   1615   3298     1  0.0000000  0.6508444  3
   1594   1590   1591   1603     1  0.0000000  0.6508444  3
   1594   1590   1597   1600     1  0.0000000  0.6508444  3
   1594   1606   1612   3268     1  0.0000000  0.6508444  3
   1597   1590   1591   1603     1  0.0000000  0.6508444  3
   1597   1590   1594   1606     1  0.0000000  0.6508444  3
   1597   1600   1609   1618     1  0.0000000  0.6508444  3
   1603   1615   3298   3289     1  180.0000771  0.4184000  2
   1603   1615   3298   3289     1  0.0000000  1.6024720  3
   1606   1612   3268   3259     1  180.0000771  0.4184000  2
   1606   1612   3268   3259     1  0.0000000  1.6024720  3
   1612   3268   3259   3250     1  180.0000771  0.4184000  2
   1612   3268   3259   3250     1  0.0000000  1.6024720  3
   1615   3298   3289   3280     1  180.0000771  0.4184000  2
   1615   3298   3289   3280     1  0.0000000  1.6024720  3
   1620   1621   1633   1645     1  0.0000000  0.6508444  3
   1620   1624   1636   1642     1  0.0000000  0.6508444  3
   1620   1627   1630   1639     1  0.0000000  0.6508444  3
   1621   1620   1624   1636     1  0.0000000  0.6508444  3
   1621   1620   1627   1630     1  0.0000000  0.6508444  3
   1621   1633   1645   3358     1  0.0000000  0.6508444  3
   1624   1620   1621   1633     1  0.0000000  0.6508444  3
   1624   1620   1627   1630     1  0.0000000  0.6508444  3
   1624   1636   1642   3328     1  0.0000000  0.6508444  3
   1627   1620   1621   1633     1  0.0000000  0.6508444  3
   1627   1620   1624   1636     1  0.0000000  0.6508444  3
   1627   1630   1639   1648     1  0.0000000  0.6508444  3
   1633   1645   3358   3349     1  180.0000771  0.4184000  2
   1633   1645   3358   3349     1  0.0000000  1.6024720  3
   1636   1642   3328   3319     1  180.0000771  0.4184000  2
   1636   1642   3328   3319     1  0.0000000  1.6024720  3
   1642   3328   3319   3310     1  180.0000771  0.4184000  2
   1642   3328   3319   3310     1  0.0000000  1.6024720  3
   1645   3358   3349   3340     1  180.0000771  0.4184000  2
   1645   3358   3349   3340     1  0.0000000  1.6024720  3
   1650   1651   1663   1675     1  0.0000000  0.6508444  3
   1650   1654   1666   1672     1  0.0000000  0.6508444  3
   1650   1657   1660   1669     1  0.0000000  0.6508444  3
   1651   1650   1654   1666     1  0.0000000  0.6508444  3
   1651   1650   1657   1660     1  0.0000000  0.6508444  3
   1651   1663   1675   3418     1  0.0000000  0.6508444  3
   1654   1650   1651   1663     1  0.0000000  0.6508444  3
   1654   1650   1657   1660     1  0.0000000  0.6508444  3
   1654   1666   1672   3388     1  0.0000000  0.6508444  3
   1657   1650   1651   1663     1  0.0000000  0.6508444  3
   1657   1650   1654   1666     1  0.0000000  0.6508444  3
   1657   1660   1669   1678     1  0.0000000  0.6508444  3
   1663   1675   3418   3409     1  180.0000771  0.4184000  2
   1663   1675   3418   3409     1  0.0000000  1.6024720  3
   1666   1672   3388   3379     1  180.0000771  0.4184000  2
   1666   1672   3388   3379     1  0.0000000  1.6024720  3
   1672   3388   3379   3370     1  180.0000771  0.4184000  2
   1672   3388   3379   3370     1  0.0000000  1.6024720  3
   1675   3418   3409   3400     1  180.0000771  0.4184000  2
   1675   3418   3409   3400     1  0.0000000  1.6024720  3
   1680   1681   1693   1705     1  0.0000000  0.6508444  3
   1680   1684   1696   1702     1  0.0000000  0.6508444  3
   1680   1687   1690   1699     1  0.0000000  0.6508444  3
   1681   1680   1684   1696     1  0.0000000  0.6508444  3
   1681   1680   1687   1690     1  0.0000000  0.6508444  3
   1681   1693   1705   3478     1  0.0000000  0.6508444  3
   1684   1680   1681   1693     1  0.0000000  0.6508444  3
   1684   1680   1687   1690     1  0.0000000  0.6508444  3
   1684   1696   1702   3448     1  0.0000000  0.6508444  3
   1687   1680   1681   1693     1  0.0000000  0.6508444  3
   1687   1680   1684   1696     1  0.0000000  0.6508444  3
   1687   1690   1699   1708     1  0.0000000  0.6508444  3
   1693   1705   3478   3469     1  180.0000771  0.4184000  2
   1693   1705   3478   3469     1  0.0000000  1.6024720  3
   1696   1702   3448   3439     1  180.0000771  0.4184000  2
   1696   1702   3448   3439     1  0.0000000  1.6024720  3
   1702   3448   3439   3430     1  180.0000771  0.4184000  2
   1702   3448   3439   3430     1  0.0000000  1.6024720  3
   1705   3478   3469   3460     1  180.0000771  0.4184000  2
   1705   3478   3469   3460     1  0.0000000  1.6024720  3
   1710   1711   1723   1735     1  0.0000000  0.6508444  3
   1710   1714   1726   1732     1  0.0000000  0.6508444  3
   1710   1717   1720   1729     1  0.0000000  0.6508444  3
   1711   1710   1714   1726     1  0.0000000  0.6508444  3
   1711   1710   1717   1720     1  0.0000000  0.6508444  3
   1711   1723   1735   3538     1  0.0000000  0.6508444  3
   1714   1710   1711   1723     1  0.0000000  0.6508444  3
   1714   1710   1717   1720     1  0.0000000  0.6508444  3
   1714   1726   1732   3508     1  0.0000000  0.6508444  3
   1717   1710   1711   1723     1  0.0000000  0.6508444  3
   1717   1710   1714   1726     1  0.0000000  0.6508444  3
   1717   1720   1729   1738     1  0.0000000  0.6508444  3
   1723   1735   3538   3529     1  180.0000771  0.4184000  2
   1723   1735   3538   3529     1  0.0000000  1.6024720  3
   1726   1732   3508   3499     1  180.0000771  0.4184000  2
   1726   1732   3508   3499     1  0.0000000  1.6024720  3
   1732   3508   3499   3490     1  180.0000771  0.4184000  2
   1732   3508   3499   3490     1  0.0000000  1.6024720  3
   1735   3538   3529   3520     1  180.0000771  0.4184000  2
   1735   3538   3529   3520     1  0.0000000  1.6024720  3
   1740   1741   1753   1765     1  0.0000000  0.6508444  3
   1740   1744   1756   1762     1  0.0000000  0.6508444  3
   1740   1747   1750   1759     1  0.0000000  0.6508444  3
   1741   1740   1744   1756     1  0.0000000  0.6508444  3
   1741   1740   1747   1750     1  0.0000000  0.6508444  3
   1741   1753   1765   3598     1  0.0000000  0.6508444  3
   1744   1740   1741   1753     1  0.0000000  0.6508444  3
   1744   1740   1747   1750     1  0.0000000  0.6508444  3
   1744   1756   1762   3568     1  0.0000000  0.6508444  3
   1747   1740   1741   1753     1  0.0000000  0.6508444  3
   1747   1740   1744   1756     1  0.0000000  0.6508444  3
   1747   1750   1759   1768     1  0.0000000  0.6508444  3
   1753   1765   3598   3589     1  180.0000771  0.4184000  2
   1753   1765   3598   3589     1  0.0000000  1.6024720  3
   1756   1762   3568   3559     1  180.0000771  0.4184000  2
   1756   1762   3568   3559     1  0.0000000  1.6024720  3
   1762   3568   3559   3550     1  180.0000771  0.4184000  2
   1762   3568   3559   3550     1  0.0000000  1.6024720  3
   1765   3598   3589   3580     1  180.0000771  0.4184000  2
   1765   3598   3589   3580     1  0.0000000  1.6024720  3
   1770   1771   1783   1795     1  0.0000000  0.6508444  3
   1770   1774   1786   1792     1  0.0000000  0.6508444  3
   1770   1777   1780   1789     1  0.0000000  0.6508444  3
   1771   1770   1774   1786     1  0.0000000  0.6508444  3
   1771   1770   1777   1780     1  0.0000000  0.6508444  3
   1771   1783   1795   3658     1  0.0000000  0.6508444  3
   1774   1770   1771   1783     1  0.0000000  0.6508444  3
   1774   1770   1777   1780     1  0.0000000  0.6508444  3
   1774   1786   1792   3628     1  0.0000000  0.6508444  3
   1777   1770   1771   1783     1  0.0000000  0.6508444  3
   1777   1770   1774   1786     1  0.0000000  0.6508444  3
   1777   1780   1789   1798     1  0.0000000  0.6508444  3
   1783   1795   3658   3649     1  180.0000771  0.4184000  2
   1783   1795   3658   3649     1  0.0000000  1.6024720  3
   1786   1792   3628   3619     1  180.0000771  0.4184000  2
   1786   1792   3628   3619     1  0.0000000  1.6024720  3
   1792   3628   3619   3610     1  180.0000771  0.4184000  2
   1792   3628   3619   3610     1  0.0000000  1.6024720  3
   1795   3658   3649   3640     1  180.0000771  0.4184000  2
   1795   3658   3649   3640     1  0.0000000  1.6024720  3
   1800   1801   1813   1825     1  0.0000000  0.6508444  3
   1800   1804   1816   1822     1  0.0000000  0.6508444  3
   1800   1807   1810   1819     1  0.0000000  0.6508444  3
   1801   1800   1804   1816     1  0.0000000  0.6508444  3
   1801   1800   1807   1810     1  0.0000000  0.6508444  3
   1801   1813   1825   3718     1  0.0000000  0.6508444  3
   1804   1800   1801   1813     1  0.0000000  0.6508444  3
   1804   1800   1807   1810     1  0.0000000  0.6508444  3
   1804   1816   1822   3688     1  0.0000000  0.6508444  3
   1807   1800   1801   1813     1  0.0000000  0.6508444  3
   1807   1800   1804   1816     1  0.0000000  0.6508444  3
   1807   1810   1819   1828     1  0.0000000  0.6508444  3
   1813   1825   3718   3709     1  180.0000771  0.4184000  2
   1813   1825   3718   3709     1  0.0000000  1.6024720  3
   1816   1822   3688   3679     1  180.0000771  0.4184000  2
   1816   1822   3688   3679     1  0.0000000  1.6024720  3
   1822   3688   3679   3670     1  180.0000771  0.4184000  2
   1822   3688   3679   3670     1  0.0000000  1.6024720  3
   1825   3718   3709   3700     1  180.0000771  0.4184000  2
   1825   3718   3709   3700     1  0.0000000  1.6024720  3
   1830   1831   1843   1855     1  0.0000000  0.6508444  3
   1830   1834   1846   1852     1  0.0000000  0.6508444  3
   1830   1837   1840   1849     1  0.0000000  0.6508444  3
   1831   1830   1834   1846     1  0.0000000  0.6508444  3
   1831   1830   1837   1840     1  0.0000000  0.6508444  3
   1831   1843   1855   3778     1  0.0000000  0.6508444  3
   1834   1830   1831   1843     1  0.0000000  0.6508444  3
   1834   1830   1837   1840     1  0.0000000  0.6508444  3
   1834   1846   1852   3748     1  0.0000000  0.6508444  3
   1837   1830   1831   1843     1  0.0000000  0.6508444  3
   1837   1830   1834   1846     1  0.0000000  0.6508444  3
   1837   1840   1849   1858     1  0.0000000  0.6508444  3
   1843   1855   3778   3769     1  180.0000771  0.4184000  2
   1843   1855   3778   3769     1  0.0000000  1.6024720  3
   1846   1852   3748   3739     1  180.0000771  0.4184000  2
   1846   1852   3748   3739     1  0.0000000  1.6024720  3
   1852   3748   3739   3730     1  180.0000771  0.4184000  2
   1852   3748   3739   3730     1  0.0000000  1.6024720  3
   1855   3778   3769   3760     1  180.0000771  0.4184000  2
   1855   3778   3769   3760     1  0.0000000  1.6024720  3
   1860   1861   1873   1885     1  0.0000000  0.6508444  3
   1860   1864   1876   1882     1  0.0000000  0.6508444  3
   1860   1867   1870   1879     1  0.0000000  0.6508444  3
   1861   1860   1864   1876     1  0.0000000  0.6508444  3
   1861   1860   1867   1870     1  0.0000000  0.6508444  3
   1861   1873   1885   3838     1  0.0000000  0.6508444  3
   1864   1860   1861   1873     1  0.0000000  0.6508444  3
   1864   1860   1867   1870     1  0.0000000  0.6508444  3
   1864   1876   1882   3808     1  0.0000000  0.6508444  3
   1867   1860   1861   1873     1  0.0000000  0.6508444  3
   1867   1860   1864   1876     1  0.0000000  0.6508444  3
   1867   1870   1879   1888     1  0.0000000  0.6508444  3
   1873   1885   3838   3829     1  180.0000771  0.4184000  2
   1873   1885   3838   3829     1  0.0000000  1.6024720  3
   1876   1882   3808   3799     1  180.0000771  0.4184000  2
   1876   1882   3808   3799     1  0.0000000  1.6024720  3
   1882   3808   3799   3790     1  180.0000771  0.4184000  2
   1882   3808   3799   3790     1  0.0000000  1.6024720  3
   1885   3838   3829   3820     1  180.0000771  0.4184000  2
   1885   3838   3829   3820     1  0.0000000  1.6024720  3
   1890   1891   1903   1915     1  0.0000000  0.6508444  3
   1890   1894   1906   1912     1  0.0000000  0.6508444  3
   1890   1897   1900   1909     1  0.0000000  0.6508444  3
   1891   1890   1894   1906     1  0.0000000  0.6508444  3
   1891   1890   1897   1900     1  0.0000000  0.6508444  3
   1891   1903   1915   3898     1  0.0000000  0.6508444  3
   1894   1890   1891   1903     1  0.0000000  0.6508444  3
   1894   1890   1897   1900     1  0.0000000  0.6508444  3
   1894   1906   1912   3868     1  0.0000000  0.6508444  3
   1897   1890   1891   1903     1  0.0000000  0.6508444  3
   1897   1890   1894   1906     1  0.0000000  0.6508444  3
   1897   1900   1909   1918     1  0.0000000  0.6508444  3
   1903   1915   3898   3889     1  180.0000771  0.4184000  2
   1903   1915   3898   3889     1  0.0000000  1.6024720  3
   1906   1912   3868   3859     1  180.0000771  0.4184000  2
   1906   1912   3868   3859     1  0.0000000  1.6024720  3
   1912   3868   3859   3850     1  180.0000771  0.4184000  2
   1912   3868   3859   3850     1  0.0000000  1.6024720  3
   1915   3898   3889   3880     1  180.0000771  0.4184000  2
   1915   3898   3889   3880     1  0.0000000  1.6024720  3
   1920   1921   1933   1945     1  0.0000000  0.6508444  3
   1920   1924   1936   1942     1  0.0000000  0.6508444  3
   1920   1927   1930   1939     1  0.0000000  0.6508444  3
   1921   1920   1924   1936     1  0.0000000  0.6508444  3
   1921   1920   1927   1930     1  0.0000000  0.6508444  3
   1921   1933   1945   3958     1  0.0000000  0.6508444  3
   1924   1920   1921   1933     1  0.0000000  0.6508444  3
   1924   1920   1927   1930     1  0.0000000  0.6508444  3
   1924   1936   1942   3928     1  0.0000000  0.6508444  3
   1927   1920   1921   1933     1  0.0000000  0.6508444  3
   1927   1920   1924   1936     1  0.0000000  0.6508444  3
   1927   1930   1939   1948     1  0.0000000  0.6508444  3
   1933   1945   3958   3949     1  180.0000771  0.4184000  2
   1933   1945   3958   3949     1  0.0000000  1.6024720  3
   1936   1942   3928   3919     1  180.0000771  0.4184000  2
   1936   1942   3928   3919     1  0.0000000  1.6024720  3
   1942   3928   3919   3910     1  180.0000771  0.4184000  2
   1942   3928   3919   3910     1  0.0000000  1.6024720  3
   1945   3958   3949   3940     1  180.0000771  0.4184000  2
   1945   3958   3949   3940     1  0.0000000  1.6024720  3
   1950   1951   1963   1975     1  0.0000000  0.6508444  3
   1950   1954   1966   1972     1  0.0000000  0.6508444  3
   1950   1957   1960   1969     1  0.0000000  0.6508444  3
   1951   1950   1954   1966     1  0.0000000  0.6508444  3
   1951   1950   1957   1960     1  0.0000000  0.6508444  3
   1951   1963   1975   4018     1  0.0000000  0.6508444  3
   1954   1950   1951   1963     1  0.0000000  0.6508444  3
   1954   1950   1957   1960     1  0.0000000  0.6508444  3
   1954   1966   1972   3988     1  0.0000000  0.6508444  3
   1957   1950   1951   1963     1  0.0000000  0.6508444  3
   1957   1950   1954   1966     1  0.0000000  0.6508444  3
   1957   1960   1969   1978     1  0.0000000  0.6508444  3
   1963   1975   4018   4009     1  180.0000771  0.4184000  2
   1963   1975   4018   4009     1  0.0000000  1.6024720  3
   1966   1972   3988   3979     1  180.0000771  0.4184000  2
   1966   1972   3988   3979     1  0.0000000  1.6024720  3
   1972   3988   3979   3970     1  180.0000771  0.4184000  2
   1972   3988   3979   3970     1  0.0000000  1.6024720  3
   1975   4018   4009   4000     1  180.0000771  0.4184000  2
   1975   4018   4009   4000     1  0.0000000  1.6024720  3
   1980   1981   1993   2005     1  0.0000000  0.6508444  3
   1980   1984   1996   2002     1  0.0000000  0.6508444  3
   1980   1987   1990   1999     1  0.0000000  0.6508444  3
   1981   1980   1984   1996     1  0.0000000  0.6508444  3
   1981   1980   1987   1990     1  0.0000000  0.6508444  3
   1981   1993   2005   4078     1  0.0000000  0.6508444  3
   1984   1980   1981   1993     1  0.0000000  0.6508444  3
   1984   1980   1987   1990     1  0.0000000  0.6508444  3
   1984   1996   2002   4048     1  0.0000000  0.6508444  3
   1987   1980   1981   1993     1  0.0000000  0.6508444  3
   1987   1980   1984   1996     1  0.0000000  0.6508444  3
   1987   1990   1999   2008     1  0.0000000  0.6508444  3
   1993   2005   4078   4069     1  180.0000771  0.4184000  2
   1993   2005   4078   4069     1  0.0000000  1.6024720  3
   1996   2002   4048   4039     1  180.0000771  0.4184000  2
   1996   2002   4048   4039     1  0.0000000  1.6024720  3
   2002   4048   4039   4030     1  180.0000771  0.4184000  2
   2002   4048   4039   4030     1  0.0000000  1.6024720  3
   2005   4078   4069   4060     1  180.0000771  0.4184000  2
   2005   4078   4069   4060     1  0.0000000  1.6024720  3
   2010   2011   2023   2035     1  0.0000000  0.6508444  3
   2010   2014   2026   2032     1  0.0000000  0.6508444  3
   2010   2017   2020   2029     1  0.0000000  0.6508444  3
   2011   2010   2014   2026     1  0.0000000  0.6508444  3
   2011   2010   2017   2020     1  0.0000000  0.6508444  3
   2011   2023   2035   4138     1  0.0000000  0.6508444  3
   2014   2010   2011   2023     1  0.0000000  0.6508444  3
   2014   2010   2017   2020     1  0.0000000  0.6508444  3
   2014   2026   2032   4108     1  0.0000000  0.6508444  3
   2017   2010   2011   2023     1  0.0000000  0.6508444  3
   2017   2010   2014   2026     1  0.0000000  0.6508444  3
   2017   2020   2029   2038     1  0.0000000  0.6508444  3
   2023   2035   4138   4129     1  180.0000771  0.4184000  2
   2023   2035   4138   4129     1  0.0000000  1.6024720  3
   2026   2032   4108   4099     1  180.0000771  0.4184000  2
   2026   2032   4108   4099     1  0.0000000  1.6024720  3
   2032   4108   4099   4090     1  180.0000771  0.4184000  2
   2032   4108   4099   4090     1  0.0000000  1.6024720  3
   2035   4138   4129   4120     1  180.0000771  0.4184000  2
   2035   4138   4129   4120     1  0.0000000  1.6024720  3
   2040   2041   2053   2065     1  0.0000000  0.6508444  3
   2040   2044   2056   2062     1  0.0000000  0.6508444  3
   2040   2047   2050   2059     1  0.0000000  0.6508444  3
   2041   2040   2044   2056     1  0.0000000  0.6508444  3
   2041   2040   2047   2050     1  0.0000000  0.6508444  3
   2041   2053   2065   4198     1  0.0000000  0.6508444  3
   2044   2040   2041   2053     1  0.0000000  0.6508444  3
   2044   2040   2047   2050     1  0.0000000  0.6508444  3
   2044   2056   2062   4168     1  0.0000000  0.6508444  3
   2047   2040   2041   2053     1  0.0000000  0.6508444  3
   2047   2040   2044   2056     1  0.0000000  0.6508444  3
   2047   2050   2059   2068     1  0.0000000  0.6508444  3
   2053   2065   4198   4189     1  180.0000771  0.4184000  2
   2053   2065   4198   4189     1  0.0000000  1.6024720  3
   2056   2062   4168   4159     1  180.0000771  0.4184000  2
   2056   2062   4168   4159     1  0.0000000  1.6024720  3
   2062   4168   4159   4150     1  180.0000771  0.4184000  2
   2062   4168   4159   4150     1  0.0000000  1.6024720  3
   2065   4198   4189   4180     1  180.0000771  0.4184000  2
   2065   4198   4189   4180     1  0.0000000  1.6024720  3
   2070   2071   2083   2095     1  0.0000000  0.6508444  3
   2070   2074   2086   2092     1  0.0000000  0.6508444  3
   2070   2077   2080   2089     1  0.0000000  0.6508444  3
   2071   2070   2074   2086     1  0.0000000  0.6508444  3
   2071   2070   2077   2080     1  0.0000000  0.6508444  3
   2071   2083   2095   4258     1  0.0000000  0.6508444  3
   2074   2070   2071   2083     1  0.0000000  0.6508444  3
   2074   2070   2077   2080     1  0.0000000  0.6508444  3
   2074   2086   2092   4228     1  0.0000000  0.6508444  3
   2077   2070   2071   2083     1  0.0000000  0.6508444  3
   2077   2070   2074   2086     1  0.0000000  0.6508444  3
   2077   2080   2089   2098     1  0.0000000  0.6508444  3
   2083   2095   4258   4249     1  180.0000771  0.4184000  2
   2083   2095   4258   4249     1  0.0000000  1.6024720  3
   2086   2092   4228   4219     1  180.0000771  0.4184000  2
   2086   2092   4228   4219     1  0.0000000  1.6024720  3
   2092   4228   4219   4210     1  180.0000771  0.4184000  2
   2092   4228   4219   4210     1  0.0000000  1.6024720  3
   2095   4258   4249   4240     1  180.0000771  0.4184000  2
   2095   4258   4249   4240     1  0.0000000  1.6024720  3
   2100   2101   2113   2125     1  0.0000000  0.6508444  3
   2100   2104   2116   2122     1  0.0000000  0.6508444  3
   2100   2107   2110   2119     1  0.0000000  0.6508444  3
   2101   2100   2104   2116     1  0.0000000  0.6508444  3
   2101   2100   2107   2110     1  0.0000000  0.6508444  3
   2101   2113   2125   4318     1  0.0000000  0.6508444  3
   2104   2100   2101   2113     1  0.0000000  0.6508444  3
   2104   2100   2107   2110     1  0.0000000  0.6508444  3
   2104   2116   2122   4288     1  0.0000000  0.6508444  3
   2107   2100   2101   2113     1  0.0000000  0.6508444  3
   2107   2100   2104   2116     1  0.0000000  0.6508444  3
   2107   2110   2119   2128     1  0.0000000  0.6508444  3
   2113   2125   4318   4309     1  180.0000771  0.4184000  2
   2113   2125   4318   4309     1  0.0000000  1.6024720  3
   2116   2122   4288   4279     1  180.0000771  0.4184000  2
   2116   2122   4288   4279     1  0.0000000  1.6024720  3
   2122   4288   4279   4270     1  180.0000771  0.4184000  2
   2122   4288   4279   4270     1  0.0000000  1.6024720  3
   2125   4318   4309   4300     1  180.0000771  0.4184000  2
   2125   4318   4309   4300     1  0.0000000  1.6024720  3
   2130   2131   2143   2155     1  0.0000000  0.6508444  3
   2130   2134   2146   2152     1  0.0000000  0.6508444  3
   2130   2137   2140   2149     1  0.0000000  0.6508444  3
   2131   2130   2134   2146     1  0.0000000  0.6508444  3
   2131   2130   2137   2140     1  0.0000000  0.6508444  3
   2131   2143   2155   4378     1  0.0000000  0.6508444  3
   2134   2130   2131   2143     1  0.0000000  0.6508444  3
   2134   2130   2137   2140     1  0.0000000  0.6508444  3
   2134   2146   2152   4348     1  0.0000000  0.6508444  3
   2137   2130   2131   2143     1  0.0000000  0.6508444  3
   2137   2130   2134   2146     1  0.0000000  0.6508444  3
   2137   2140   2149   2158     1  0.0000000  0.6508444  3
   2143   2155   4378   4369     1  180.0000771  0.4184000  2
   2143   2155   4378   4369     1  0.0000000  1.6024720  3
   2146   2152   4348   4339     1  180.0000771  0.4184000  2
   2146   2152   4348   4339     1  0.0000000  1.6024720  3
   2152   4348   4339   4330     1  180.0000771  0.4184000  2
   2152   4348   4339   4330     1  0.0000000  1.6024720  3
   2155   4378   4369   4360     1  180.0000771  0.4184000  2
   2155   4378   4369   4360     1  0.0000000  1.6024720  3
   2160   2161   2173   2185     1  0.0000000  0.6508444  3
   2160   2164   2176   2182     1  0.0000000  0.6508444  3
   2160   2167   2170   2179     1  0.0000000  0.6508444  3
   2161   2160   2164   2176     1  0.0000000  0.6508444  3
   2161   2160   2167   2170     1  0.0000000  0.6508444  3
   2161   2173   2185   4438     1  0.0000000  0.6508444  3
   2164   2160   2161   2173     1  0.0000000  0.6508444  3
   2164   2160   2167   2170     1  0.0000000  0.6508444  3
   2164   2176   2182   4408     1  0.0000000  0.6508444  3
   2167   2160   2161   2173     1  0.0000000  0.6508444  3
   2167   2160   2164   2176     1  0.0000000  0.6508444  3
   2167   2170   2179   2188     1  0.0000000  0.6508444  3
   2173   2185   4438   4429     1  180.0000771  0.4184000  2
   2173   2185   4438   4429     1  0.0000000  1.6024720  3
   2176   2182   4408   4399     1  180.0000771  0.4184000  2
   2176   2182   4408   4399     1  0.0000000  1.6024720  3
   2182   4408   4399   4390     1  180.0000771  0.4184000  2
   2182   4408   4399   4390     1  0.0000000  1.6024720  3
   2185   4438   4429   4420     1  180.0000771  0.4184000  2
   2185   4438   4429   4420     1  0.0000000  1.6024720  3
   2190   2191   2203   2215     1  0.0000000  0.6508444  3
   2190   2194   2206   2212     1  0.0000000  0.6508444  3
   2190   2197   2200   2209     1  0.0000000  0.6508444  3
   2191   2190   2194   2206     1  0.0000000  0.6508444  3
   2191   2190   2197   2200     1  0.0000000  0.6508444  3
   2191   2203   2215   4498     1  0.0000000  0.6508444  3
   2194   2190   2191   2203     1  0.0000000  0.6508444  3
   2194   2190   2197   2200     1  0.0000000  0.6508444  3
   2194   2206   2212   4468     1  0.0000000  0.6508444  3
   2197   2190   2191   2203     1  0.0000000  0.6508444  3
   2197   2190   2194   2206     1  0.0000000  0.6508444  3
   2197   2200   2209   2218     1  0.0000000  0.6508444  3
   2203   2215   4498   4489     1  180.0000771  0.4184000  2
   2203   2215   4498   4489     1  0.0000000  1.6024720  3
   2206   2212   4468   4459     1  180.0000771  0.4184000  2
   2206   2212   4468   4459     1  0.0000000  1.6024720  3
   2212   4468   4459   4450     1  180.0000771  0.4184000  2
   2212   4468   4459   4450     1  0.0000000  1.6024720  3
   2215   4498   4489   4480     1  180.0000771  0.4184000  2
   2215   4498   4489   4480     1  0.0000000  1.6024720  3
   2220   2221   2233   2245     1  0.0000000  0.6508444  3
   2220   2224   2236   2242     1  0.0000000  0.6508444  3
   2220   2227   2230   2239     1  0.0000000  0.6508444  3
   2221   2220   2224   2236     1  0.0000000  0.6508444  3
   2221   2220   2227   2230     1  0.0000000  0.6508444  3
   2221   2233   2245   4558     1  0.0000000  0.6508444  3
   2224   2220   2221   2233     1  0.0000000  0.6508444  3
   2224   2220   2227   2230     1  0.0000000  0.6508444  3
   2224   2236   2242   4528     1  0.0000000  0.6508444  3
   2227   2220   2221   2233     1  0.0000000  0.6508444  3
   2227   2220   2224   2236     1  0.0000000  0.6508444  3
   2227   2230   2239   2248     1  0.0000000  0.6508444  3
   2233   2245   4558   4549     1  180.0000771  0.4184000  2
   2233   2245   4558   4549     1  0.0000000  1.6024720  3
   2236   2242   4528   4519     1  180.0000771  0.4184000  2
   2236   2242   4528   4519     1  0.0000000  1.6024720  3
   2242   4528   4519   4510     1  180.0000771  0.4184000  2
   2242   4528   4519   4510     1  0.0000000  1.6024720  3
   2245   4558   4549   4540     1  180.0000771  0.4184000  2
   2245   4558   4549   4540     1  0.0000000  1.6024720  3
   2250   2251   2263   2275     1  0.0000000  0.6508444  3
   2250   2254   2266   2272     1  0.0000000  0.6508444  3
   2250   2257   2260   2269     1  0.0000000  0.6508444  3
   2251   2250   2254   2266     1  0.0000000  0.6508444  3
   2251   2250   2257   2260     1  0.0000000  0.6508444  3
   2251   2263   2275   4618     1  0.0000000  0.6508444  3
   2254   2250   2251   2263     1  0.0000000  0.6508444  3
   2254   2250   2257   2260     1  0.0000000  0.6508444  3
   2254   2266   2272   4588     1  0.0000000  0.6508444  3
   2257   2250   2251   2263     1  0.0000000  0.6508444  3
   2257   2250   2254   2266     1  0.0000000  0.6508444  3
   2257   2260   2269   2278     1  0.0000000  0.6508444  3
   2263   2275   4618   4609     1  180.0000771  0.4184000  2
   2263   2275   4618   4609     1  0.0000000  1.6024720  3
   2266   2272   4588   4579     1  180.0000771  0.4184000  2
   2266   2272   4588   4579     1  0.0000000  1.6024720  3
   2272   4588   4579   4570     1  180.0000771  0.4184000  2
   2272   4588   4579   4570     1  0.0000000  1.6024720  3
   2275   4618   4609   4600     1  180.0000771  0.4184000  2
   2275   4618   4609   4600     1  0.0000000  1.6024720  3
   2280   2281   2293   2305     1  0.0000000  0.6508444  3
   2280   2284   2296   2302     1  0.0000000  0.6508444  3
   2280   2287   2290   2299     1  0.0000000  0.6508444  3
   2281   2280   2284   2296     1  0.0000000  0.6508444  3
   2281   2280   2287   2290     1  0.0000000  0.6508444  3
   2281   2293   2305   4678     1  0.0000000  0.6508444  3
   2284   2280   2281   2293     1  0.0000000  0.6508444  3
   2284   2280   2287   2290     1  0.0000000  0.6508444  3
   2284   2296   2302   4648     1  0.0000000  0.6508444  3
   2287   2280   2281   2293     1  0.0000000  0.6508444  3
   2287   2280   2284   2296     1  0.0000000  0.6508444  3
   2287   2290   2299   2308     1  0.0000000  0.6508444  3
   2293   2305   4678   4669     1  180.0000771  0.4184000  2
   2293   2305   4678   4669     1  0.0000000  1.6024720  3
   2296   2302   4648   4639     1  180.0000771  0.4184000  2
   2296   2302   4648   4639     1  0.0000000  1.6024720  3
   2302   4648   4639   4630     1  180.0000771  0.4184000  2
   2302   4648   4639   4630     1  0.0000000  1.6024720  3
   2305   4678   4669   4660     1  180.0000771  0.4184000  2
   2305   4678   4669   4660     1  0.0000000  1.6024720  3
   2310   2311   2323   2335     1  0.0000000  0.6508444  3
   2310   2314   2326   2332     1  0.0000000  0.6508444  3
   2310   2317   2320   2329     1  0.0000000  0.6508444  3
   2311   2310   2314   2326     1  0.0000000  0.6508444  3
   2311   2310   2317   2320     1  0.0000000  0.6508444  3
   2311   2323   2335   4738     1  0.0000000  0.6508444  3
   2314   2310   2311   2323     1  0.0000000  0.6508444  3
   2314   2310   2317   2320     1  0.0000000  0.6508444  3
   2314   2326   2332   4708     1  0.0000000  0.6508444  3
   2317   2310   2311   2323     1  0.0000000  0.6508444  3
   2317   2310   2314   2326     1  0.0000000  0.6508444  3
   2317   2320   2329   2338     1  0.0000000  0.6508444  3
   2323   2335   4738   4729     1  180.0000771  0.4184000  2
   2323   2335   4738   4729     1  0.0000000  1.6024720  3
   2326   2332   4708   4699     1  180.0000771  0.4184000  2
   2326   2332   4708   4699     1  0.0000000  1.6024720  3
   2332   4708   4699   4690     1  180.0000771  0.4184000  2
   2332   4708   4699   4690     1  0.0000000  1.6024720  3
   2335   4738   4729   4720     1  180.0000771  0.4184000  2
   2335   4738   4729   4720     1  0.0000000  1.6024720  3
   2340   2341   2353   2365     1  0.0000000  0.6508444  3
   2340   2344   2356   2362     1  0.0000000  0.6508444  3
   2340   2347   2350   2359     1  0.0000000  0.6508444  3
   2341   2340   2344   2356     1  0.0000000  0.6508444  3
   2341   2340   2347   2350     1  0.0000000  0.6508444  3
   2341   2353   2365   4798     1  0.0000000  0.6508444  3
   2344   2340   2341   2353     1  0.0000000  0.6508444  3
   2344   2340   2347   2350     1  0.0000000  0.6508444  3
   2344   2356   2362   4768     1  0.0000000  0.6508444  3
   2347   2340   2341   2353     1  0.0000000  0.6508444  3
   2347   2340   2344   2356     1  0.0000000  0.6508444  3
   2347   2350   2359   2368     1  0.0000000  0.6508444  3
   2353   2365   4798   4789     1  180.0000771  0.4184000  2
   2353   2365   4798   4789     1  0.0000000  1.6024720  3
   2356   2362   4768   4759     1  180.0000771  0.4184000  2
   2356   2362   4768   4759     1  0.0000000  1.6024720  3
   2362   4768   4759   4750     1  180.0000771  0.4184000  2
   2362   4768   4759   4750     1  0.0000000  1.6024720  3
   2365   4798   4789   4780     1  180.0000771  0.4184000  2
   2365   4798   4789   4780     1  0.0000000  1.6024720  3
   2370   2371   2383   2395     1  0.0000000  0.6508444  3
   2370   2374   2386   2392     1  0.0000000  0.6508444  3
   2370   2377   2380   2389     1  0.0000000  0.6508444  3
   2371   2370   2374   2386     1  0.0000000  0.6508444  3
   2371   2370   2377   2380     1  0.0000000  0.6508444  3
   2371   2383   2395   4858     1  0.0000000  0.6508444  3
   2374   2370   2371   2383     1  0.0000000  0.6508444  3
   2374   2370   2377   2380     1  0.0000000  0.6508444  3
   2374   2386   2392   4828     1  0.0000000  0.6508444  3
   2377   2370   2371   2383     1  0.0000000  0.6508444  3
   2377   2370   2374   2386     1  0.0000000  0.6508444  3
   2377   2380   2389   2398     1  0.0000000  0.6508444  3
   2383   2395   4858   4849     1  180.0000771  0.4184000  2
   2383   2395   4858   4849     1  0.0000000  1.6024720  3
   2386   2392   4828   4819     1  180.0000771  0.4184000  2
   2386   2392   4828   4819     1  0.0000000  1.6024720  3
   2392   4828   4819   4810     1  180.0000771  0.4184000  2
   2392   4828   4819   4810     1  0.0000000  1.6024720  3
   2395   4858   4849   4840     1  180.0000771  0.4184000  2
   2395   4858   4849   4840     1  0.0000000  1.6024720  3
   2400   2401   2413   2425     1  0.0000000  0.6508444  3
   2400   2404   2416   2422     1  0.0000000  0.6508444  3
   2400   2407   2410   2419     1  0.0000000  0.6508444  3
   2401   2400   2404   2416     1  0.0000000  0.6508444  3
   2401   2400   2407   2410     1  0.0000000  0.6508444  3
   2401   2413   2425   4918     1  0.0000000  0.6508444  3
   2404   2400   2401   2413     1  0.0000000  0.6508444  3
   2404   2400   2407   2410     1  0.0000000  0.6508444  3
   2404   2416   2422   4888     1  0.0000000  0.6508444  3
   2407   2400   2401   2413     1  0.0000000  0.6508444  3
   2407   2400   2404   2416     1  0.0000000  0.6508444  3
   2407   2410   2419   2428     1  0.0000000  0.6508444  3
   2413   2425   4918   4909     1  180.0000771  0.4184000  2
   2413   2425   4918   4909     1  0.0000000  1.6024720  3
   2416   2422   4888   4879     1  180.0000771  0.4184000  2
   2416   2422   4888   4879     1  0.0000000  1.6024720  3
   2422   4888   4879   4870     1  180.0000771  0.4184000  2
   2422   4888   4879   4870     1  0.0000000  1.6024720  3
   2425   4918   4909   4900     1  180.0000771  0.4184000  2
   2425   4918   4909   4900     1  0.0000000  1.6024720  3
   2430   2431   2443   2455     1  0.0000000  0.6508444  3
   2430   2434   2446   2452     1  0.0000000  0.6508444  3
   2430   2437   2440   2449     1  0.0000000  0.6508444  3
   2431   2430   2434   2446     1  0.0000000  0.6508444  3
   2431   2430   2437   2440     1  0.0000000  0.6508444  3
   2431   2443   2455   4978     1  0.0000000  0.6508444  3
   2434   2430   2431   2443     1  0.0000000  0.6508444  3
   2434   2430   2437   2440     1  0.0000000  0.6508444  3
   2434   2446   2452   4948     1  0.0000000  0.6508444  3
   2437   2430   2431   2443     1  0.0000000  0.6508444  3
   2437   2430   2434   2446     1  0.0000000  0.6508444  3
   2437   2440   2449   2458     1  0.0000000  0.6508444  3
   2443   2455   4978   4969     1  180.0000771  0.4184000  2
   2443   2455   4978   4969     1  0.0000000  1.6024720  3
   2446   2452   4948   4939     1  180.0000771  0.4184000  2
   2446   2452   4948   4939     1  0.0000000  1.6024720  3
   2452   4948   4939   4930     1  180.0000771  0.4184000  2
   2452   4948   4939   4930     1  0.0000000  1.6024720  3
   2455   4978   4969   4960     1  180.0000771  0.4184000  2
   2455   4978   4969   4960     1  0.0000000  1.6024720  3
   2460   2461   2473   2485     1  0.0000000  0.6508444  3
   2460   2464   2476   2482     1  0.0000000  0.6508444  3
   2460   2467   2470   2479     1  0.0000000  0.6508444  3
   2461   2460   2464   2476     1  0.0000000  0.6508444  3
   2461   2460   2467   2470     1  0.0000000  0.6508444  3
   2461   2473   2485   5038     1  0.0000000  0.6508444  3
   2464   2460   2461   2473     1  0.0000000  0.6508444  3
   2464   2460   2467   2470     1  0.0000000  0.6508444  3
   2464   2476   2482   5008     1  0.0000000  0.6508444  3
   2467   2460   2461   2473     1  0.0000000  0.6508444  3
   2467   2460   2464   2476     1  0.0000000  0.6508444  3
   2467   2470   2479   2488     1  0.0000000  0.6508444  3
   2473   2485   5038   5029     1  180.0000771  0.4184000  2
   2473   2485   5038   5029     1  0.0000000  1.6024720  3
   2476   2482   5008   4999     1  180.0000771  0.4184000  2
   2476   2482   5008   4999     1  0.0000000  1.6024720  3
   2482   5008   4999   4990     1  180.0000771  0.4184000  2
   2482   5008   4999   4990     1  0.0000000  1.6024720  3
   2485   5038   5029   5020     1  180.0000771  0.4184000  2
   2485   5038   5029   5020     1  0.0000000  1.6024720  3
   2490   2491   2503   2515     1  0.0000000  0.6508444  3
   2490   2494   2506   2512     1  0.0000000  0.6508444  3
   2490   2497   2500   2509     1  0.0000000  0.6508444  3
   2491   2490   2494   2506     1  0.0000000  0.6508444  3
   2491   2490   2497   2500     1  0.0000000  0.6508444  3
   2491   2503   2515   5098     1  0.0000000  0.6508444  3
   2494   2490   2491   2503     1  0.0000000  0.6508444  3
   2494   2490   2497   2500     1  0.0000000  0.6508444  3
   2494   2506   2512   5068     1  0.0000000  0.6508444  3
   2497   2490   2491   2503     1  0.0000000  0.6508444  3
   2497   2490   2494   2506     1  0.0000000  0.6508444  3
   2497   2500   2509   2518     1  0.0000000  0.6508444  3
   2503   2515   5098   5089     1  180.0000771  0.4184000  2
   2503   2515   5098   5089     1  0.0000000  1.6024720  3
   2506   2512   5068   5059     1  180.0000771  0.4184000  2
   2506   2512   5068   5059     1  0.0000000  1.6024720  3
   2512   5068   5059   5050     1  180.0000771  0.4184000  2
   2512   5068   5059   5050     1  0.0000000  1.6024720  3
   2515   5098   5089   5080     1  180.0000771  0.4184000  2
   2515   5098   5089   5080     1  0.0000000  1.6024720  3
   2520   2521   2533   2545     1  0.0000000  0.6508444  3
   2520   2524   2536   2542     1  0.0000000  0.6508444  3
   2520   2527   2530   2539     1  0.0000000  0.6508444  3
   2521   2520   2524   2536     1  0.0000000  0.6508444  3
   2521   2520   2527   2530     1  0.0000000  0.6508444  3
   2521   2533   2545   5158     1  0.0000000  0.6508444  3
   2524   2520   2521   2533     1  0.0000000  0.6508444  3
   2524   2520   2527   2530     1  0.0000000  0.6508444  3
   2524   2536   2542   5128     1  0.0000000  0.6508444  3
   2527   2520   2521   2533     1  0.0000000  0.6508444  3
   2527   2520   2524   2536     1  0.0000000  0.6508444  3
   2527   2530   2539   2548     1  0.0000000  0.6508444  3
   2533   2545   5158   5149     1  180.0000771  0.4184000  2
   2533   2545   5158   5149     1  0.0000000  1.6024720  3
   2536   2542   5128   5119     1  180.0000771  0.4184000  2
   2536   2542   5128   5119     1  0.0000000  1.6024720  3
   2542   5128   5119   5110     1  180.0000771  0.4184000  2
   2542   5128   5119   5110     1  0.0000000  1.6024720  3
   2545   5158   5149   5140     1  180.0000771  0.4184000  2
   2545   5158   5149   5140     1  0.0000000  1.6024720  3
   2550   2551   2563   2575     1  0.0000000  0.6508444  3
   2550   2554   2566   2572     1  0.0000000  0.6508444  3
   2550   2557   2560   2569     1  0.0000000  0.6508444  3
   2551   2550   2554   2566     1  0.0000000  0.6508444  3
   2551   2550   2557   2560     1  0.0000000  0.6508444  3
   2551   2563   2575   5218     1  0.0000000  0.6508444  3
   2554   2550   2551   2563     1  0.0000000  0.6508444  3
   2554   2550   2557   2560     1  0.0000000  0.6508444  3
   2554   2566   2572   5188     1  0.0000000  0.6508444  3
   2557   2550   2551   2563     1  0.0000000  0.6508444  3
   2557   2550   2554   2566     1  0.0000000  0.6508444  3
   2557   2560   2569   2578     1  0.0000000  0.6508444  3
   2563   2575   5218   5209     1  180.0000771  0.4184000  2
   2563   2575   5218   5209     1  0.0000000  1.6024720  3
   2566   2572   5188   5179     1  180.0000771  0.4184000  2
   2566   2572   5188   5179     1  0.0000000  1.6024720  3
   2572   5188   5179   5170     1  180.0000771  0.4184000  2
   2572   5188   5179   5170     1  0.0000000  1.6024720  3
   2575   5218   5209   5200     1  180.0000771  0.4184000  2
   2575   5218   5209   5200     1  0.0000000  1.6024720  3
   2580   2581   2593   2605     1  0.0000000  0.6508444  3
   2580   2584   2596   2602     1  0.0000000  0.6508444  3
   2580   2587   2590   2599     1  0.0000000  0.6508444  3
   2581   2580   2584   2596     1  0.0000000  0.6508444  3
   2581   2580   2587   2590     1  0.0000000  0.6508444  3
   2581   2593   2605   5278     1  0.0000000  0.6508444  3
   2584   2580   2581   2593     1  0.0000000  0.6508444  3
   2584   2580   2587   2590     1  0.0000000  0.6508444  3
   2584   2596   2602   5248     1  0.0000000  0.6508444  3
   2587   2580   2581   2593     1  0.0000000  0.6508444  3
   2587   2580   2584   2596     1  0.0000000  0.6508444  3
   2587   2590   2599   2608     1  0.0000000  0.6508444  3
   2593   2605   5278   5269     1  180.0000771  0.4184000  2
   2593   2605   5278   5269     1  0.0000000  1.6024720  3
   2596   2602   5248   5239     1  180.0000771  0.4184000  2
   2596   2602   5248   5239     1  0.0000000  1.6024720  3
   2602   5248   5239   5230     1  180.0000771  0.4184000  2
   2602   5248   5239   5230     1  0.0000000  1.6024720  3
   2605   5278   5269   5260     1  180.0000771  0.4184000  2
   2605   5278   5269   5260     1  0.0000000  1.6024720  3
   2610   2611   2623   2635     1  0.0000000  0.6508444  3
   2610   2614   2626   2632     1  0.0000000  0.6508444  3
   2610   2617   2620   2629     1  0.0000000  0.6508444  3
   2611   2610   2614   2626     1  0.0000000  0.6508444  3
   2611   2610   2617   2620     1  0.0000000  0.6508444  3
   2611   2623   2635   5338     1  0.0000000  0.6508444  3
   2614   2610   2611   2623     1  0.0000000  0.6508444  3
   2614   2610   2617   2620     1  0.0000000  0.6508444  3
   2614   2626   2632   5308     1  0.0000000  0.6508444  3
   2617   2610   2611   2623     1  0.0000000  0.6508444  3
   2617   2610   2614   2626     1  0.0000000  0.6508444  3
   2617   2620   2629   2638     1  0.0000000  0.6508444  3
   2623   2635   5338   5329     1  180.0000771  0.4184000  2
   2623   2635   5338   5329     1  0.0000000  1.6024720  3
   2626   2632   5308   5299     1  180.0000771  0.4184000  2
   2626   2632   5308   5299     1  0.0000000  1.6024720  3
   2632   5308   5299   5290     1  180.0000771  0.4184000  2
   2632   5308   5299   5290     1  0.0000000  1.6024720  3
   2635   5338   5329   5320     1  180.0000771  0.4184000  2
   2635   5338   5329   5320     1  0.0000000  1.6024720  3
   2640   2641   2653   2665     1  0.0000000  0.6508444  3
   2640   2644   2656   2662     1  0.0000000  0.6508444  3
   2640   2647   2650   2659     1  0.0000000  0.6508444  3
   2641   2640   2644   2656     1  0.0000000  0.6508444  3
   2641   2640   2647   2650     1  0.0000000  0.6508444  3
   2641   2653   2665   5398     1  0.0000000  0.6508444  3
   2644   2640   2641   2653     1  0.0000000  0.6508444  3
   2644   2640   2647   2650     1  0.0000000  0.6508444  3
   2644   2656   2662   5368     1  0.0000000  0.6508444  3
   2647   2640   2641   2653     1  0.0000000  0.6508444  3
   2647   2640   2644   2656     1  0.0000000  0.6508444  3
   2647   2650   2659   2668     1  0.0000000  0.6508444  3
   2653   2665   5398   5389     1  180.0000771  0.4184000  2
   2653   2665   5398   5389     1  0.0000000  1.6024720  3
   2656   2662   5368   5359     1  180.0000771  0.4184000  2
   2656   2662   5368   5359     1  0.0000000  1.6024720  3
   2662   5368   5359   5350     1  180.0000771  0.4184000  2
   2662   5368   5359   5350     1  0.0000000  1.6024720  3
   2665   5398   5389   5380     1  180.0000771  0.4184000  2
   2665   5398   5389   5380     1  0.0000000  1.6024720  3
   2670   2671   2683   2695     1  0.0000000  0.6508444  3
   2670   2674   2686   2692     1  0.0000000  0.6508444  3
   2670   2677   2680   2689     1  0.0000000  0.6508444  3
   2671   2670   2674   2686     1  0.0000000  0.6508444  3
   2671   2670   2677   2680     1  0.0000000  0.6508444  3
   2671   2683   2695   5458     1  0.0000000  0.6508444  3
   2674   2670   2671   2683     1  0.0000000  0.6508444  3
   2674   2670   2677   2680     1  0.0000000  0.6508444  3
   2674   2686   2692   5428     1  0.0000000  0.6508444  3
   2677   2670   2671   2683     1  0.0000000  0.6508444  3
   2677   2670   2674   2686     1  0.0000000  0.6508444  3
   2677   2680   2689   2698     1  0.0000000  0.6508444  3
   2683   2695   5458   5449     1  180.0000771  0.4184000  2
   2683   2695   5458   5449     1  0.0000000  1.6024720  3
   2686   2692   5428   5419     1  180.0000771  0.4184000  2
   2686   2692   5428   5419     1  0.0000000  1.6024720  3
   2692   5428   5419   5410     1  180.0000771  0.4184000  2
   2692   5428   5419   5410     1  0.0000000  1.6024720  3
   2695   5458   5449   5440     1  180.0000771  0.4184000  2
   2695   5458   5449   5440     1  0.0000000  1.6024720  3
   2700   2701   2713   2725     1  0.0000000  0.6508444  3
   2700   2704   2716   2722     1  0.0000000  0.6508444  3
   2700   2707   2710   2719     1  0.0000000  0.6508444  3
   2701   2700   2704   2716     1  0.0000000  0.6508444  3
   2701   2700   2707   2710     1  0.0000000  0.6508444  3
   2701   2713   2725   5518     1  0.0000000  0.6508444  3
   2704   2700   2701   2713     1  0.0000000  0.6508444  3
   2704   2700   2707   2710     1  0.0000000  0.6508444  3
   2704   2716   2722   5488     1  0.0000000  0.6508444  3
   2707   2700   2701   2713     1  0.0000000  0.6508444  3
   2707   2700   2704   2716     1  0.0000000  0.6508444  3
   2707   2710   2719   2728     1  0.0000000  0.6508444  3
   2713   2725   5518   5509     1  180.0000771  0.4184000  2
   2713   2725   5518   5509     1  0.0000000  1.6024720  3
   2716   2722   5488   5479     1  180.0000771  0.4184000  2
   2716   2722   5488   5479     1  0.0000000  1.6024720  3
   2722   5488   5479   5470     1  180.0000771  0.4184000  2
   2722   5488   5479   5470     1  0.0000000  1.6024720  3
   2725   5518   5509   5500     1  180.0000771  0.4184000  2
   2725   5518   5509   5500     1  0.0000000  1.6024720  3
   2730   2731   2743   2755     1  0.0000000  0.6508444  3
   2730   2734   2746   2752     1  0.0000000  0.6508444  3
   2730   2737   2740   2749     1  0.0000000  0.6508444  3
   2731   2730   2734   2746     1  0.0000000  0.6508444  3
   2731   2730   2737   2740     1  0.0000000  0.6508444  3
   2731   2743   2755   5578     1  0.0000000  0.6508444  3
   2734   2730   2731   2743     1  0.0000000  0.6508444  3
   2734   2730   2737   2740     1  0.0000000  0.6508444  3
   2734   2746   2752   5548     1  0.0000000  0.6508444  3
   2737   2730   2731   2743     1  0.0000000  0.6508444  3
   2737   2730   2734   2746     1  0.0000000  0.6508444  3
   2737   2740   2749   2758     1  0.0000000  0.6508444  3
   2743   2755   5578   5569     1  180.0000771  0.4184000  2
   2743   2755   5578   5569     1  0.0000000  1.6024720  3
   2746   2752   5548   5539     1  180.0000771  0.4184000  2
   2746   2752   5548   5539     1  0.0000000  1.6024720  3
   2752   5548   5539   5530     1  180.0000771  0.4184000  2
   2752   5548   5539   5530     1  0.0000000  1.6024720  3
   2755   5578   5569   5560     1  180.0000771  0.4184000  2
   2755   5578   5569   5560     1  0.0000000  1.6024720  3
   2760   2761   2773   2785     1  0.0000000  0.6508444  3
   2760   2764   2776   2782     1  0.0000000  0.6508444  3
   2760   2767   2770   2779     1  0.0000000  0.6508444  3
   2761   2760   2764   2776     1  0.0000000  0.6508444  3
   2761   2760   2767   2770     1  0.0000000  0.6508444  3
   2761   2773   2785   5638     1  0.0000000  0.6508444  3
   2764   2760   2761   2773     1  0.0000000  0.6508444  3
   2764   2760   2767   2770     1  0.0000000  0.6508444  3
   2764   2776   2782   5608     1  0.0000000  0.6508444  3
   2767   2760   2761   2773     1  0.0000000  0.6508444  3
   2767   2760   2764   2776     1  0.0000000  0.6508444  3
   2767   2770   2779   2788     1  0.0000000  0.6508444  3
   2773   2785   5638   5629     1  180.0000771  0.4184000  2
   2773   2785   5638   5629     1  0.0000000  1.6024720  3
   2776   2782   5608   5599     1  180.0000771  0.4184000  2
   2776   2782   5608   5599     1  0.0000000  1.6024720  3
   2782   5608   5599   5590     1  180.0000771  0.4184000  2
   2782   5608   5599   5590     1  0.0000000  1.6024720  3
   2785   5638   5629   5620     1  180.0000771  0.4184000  2
   2785   5638   5629   5620     1  0.0000000  1.6024720  3
   2790   2791   2803   2815     1  0.0000000  0.6508444  3
   2790   2794   2806   2812     1  0.0000000  0.6508444  3
   2790   2797   2800   2809     1  0.0000000  0.6508444  3
   2791   2790   2794   2806     1  0.0000000  0.6508444  3
   2791   2790   2797   2800     1  0.0000000  0.6508444  3
   2791   2803   2815   5698     1  0.0000000  0.6508444  3
   2794   2790   2791   2803     1  0.0000000  0.6508444  3
   2794   2790   2797   2800     1  0.0000000  0.6508444  3
   2794   2806   2812   5668     1  0.0000000  0.6508444  3
   2797   2790   2791   2803     1  0.0000000  0.6508444  3
   2797   2790   2794   2806     1  0.0000000  0.6508444  3
   2797   2800   2809   2818     1  0.0000000  0.6508444  3
   2803   2815   5698   5689     1  180.0000771  0.4184000  2
   2803   2815   5698   5689     1  0.0000000  1.6024720  3
   2806   2812   5668   5659     1  180.0000771  0.4184000  2
   2806   2812   5668   5659     1  0.0000000  1.6024720  3
   2812   5668   5659   5650     1  180.0000771  0.4184000  2
   2812   5668   5659   5650     1  0.0000000  1.6024720  3
   2815   5698   5689   5680     1  180.0000771  0.4184000  2
   2815   5698   5689   5680     1  0.0000000  1.6024720  3
   2820   2821   2833   2845     1  0.0000000  0.6508444  3
   2820   2824   2836   2842     1  0.0000000  0.6508444  3
   2820   2827   2830   2839     1  0.0000000  0.6508444  3
   2821   2820   2824   2836     1  0.0000000  0.6508444  3
   2821   2820   2827   2830     1  0.0000000  0.6508444  3
   2821   2833   2845   5758     1  0.0000000  0.6508444  3
   2824   2820   2821   2833     1  0.0000000  0.6508444  3
   2824   2820   2827   2830     1  0.0000000  0.6508444  3
   2824   2836   2842   5728     1  0.0000000  0.6508444  3
   2827   2820   2821   2833     1  0.0000000  0.6508444  3
   2827   2820   2824   2836     1  0.0000000  0.6508444  3
   2827   2830   2839   2848     1  0.0000000  0.6508444  3
   2833   2845   5758   5749     1  180.0000771  0.4184000  2
   2833   2845   5758   5749     1  0.0000000  1.6024720  3
   2836   2842   5728   5719     1  180.0000771  0.4184000  2
   2836   2842   5728   5719     1  0.0000000  1.6024720  3
   2842   5728   5719   5710     1  180.0000771  0.4184000  2
   2842   5728   5719   5710     1  0.0000000  1.6024720  3
   2845   5758   5749   5740     1  180.0000771  0.4184000  2
   2845   5758   5749   5740     1  0.0000000  1.6024720  3
   2850   2851   2863   2875     1  0.0000000  0.6508444  3
   2850   2854   2866   2872     1  0.0000000  0.6508444  3
   2850   2857   2860   2869     1  0.0000000  0.6508444  3
   2851   2850   2854   2866     1  0.0000000  0.6508444  3
   2851   2850   2857   2860     1  0.0000000  0.6508444  3
   2851   2863   2875   5818     1  0.0000000  0.6508444  3
   2854   2850   2851   2863     1  0.0000000  0.6508444  3
   2854   2850   2857   2860     1  0.0000000  0.6508444  3
   2854   2866   2872   5788     1  0.0000000  0.6508444  3
   2857   2850   2851   2863     1  0.0000000  0.6508444  3
   2857   2850   2854   2866     1  0.0000000  0.6508444  3
   2857   2860   2869   2878     1  0.0000000  0.6508444  3
   2863   2875   5818   5809     1  180.0000771  0.4184000  2
   2863   2875   5818   5809     1  0.0000000  1.6024720  3
   2866   2872   5788   5779     1  180.0000771  0.4184000  2
   2866   2872   5788   5779     1  0.0000000  1.6024720  3
   2872   5788   5779   5770     1  180.0000771  0.4184000  2
   2872   5788   5779   5770     1  0.0000000  1.6024720  3
   2875   5818   5809   5800     1  180.0000771  0.4184000  2
   2875   5818   5809   5800     1  0.0000000  1.6024720  3
   2880   2881   2893   2905     1  0.0000000  0.6508444  3
   2880   2884   2896   2902     1  0.0000000  0.6508444  3
   2880   2887   2890   2899     1  0.0000000  0.6508444  3
   2881   2880   2884   2896     1  0.0000000  0.6508444  3
   2881   2880   2887   2890     1  0.0000000  0.6508444  3
   2881   2893   2905   5878     1  0.0000000  0.6508444  3
   2884   2880   2881   2893     1  0.0000000  0.6508444  3
   2884   2880   2887   2890     1  0.0000000  0.6508444  3
   2884   2896   2902   5848     1  0.0000000  0.6508444  3
   2887   2880   2881   2893     1  0.0000000  0.6508444  3
   2887   2880   2884   2896     1  0.0000000  0.6508444  3
   2887   2890   2899   2908     1  0.0000000  0.6508444  3
   2893   2905   5878   5869     1  180.0000771  0.4184000  2
   2893   2905   5878   5869     1  0.0000000  1.6024720  3
   2896   2902   5848   5839     1  180.0000771  0.4184000  2
   2896   2902   5848   5839     1  0.0000000  1.6024720  3
   2902   5848   5839   5830     1  180.0000771  0.4184000  2
   2902   5848   5839   5830     1  0.0000000  1.6024720  3
   2905   5878   5869   5860     1  180.0000771  0.4184000  2
   2905   5878   5869   5860     1  0.0000000  1.6024720  3
   2910   2911   2923   2935     1  0.0000000  0.6508444  3
   2910   2914   2926   2932     1  0.0000000  0.6508444  3
   2910   2917   2920   2929     1  0.0000000  0.6508444  3
   2911   2910   2914   2926     1  0.0000000  0.6508444  3
   2911   2910   2917   2920     1  0.0000000  0.6508444  3
   2911   2923   2935   5938     1  0.0000000  0.6508444  3
   2914   2910   2911   2923     1  0.0000000  0.6508444  3
   2914   2910   2917   2920     1  0.0000000  0.6508444  3
   2914   2926   2932   5908     1  0.0000000  0.6508444  3
   2917   2910   2911   2923     1  0.0000000  0.6508444  3
   2917   2910   2914   2926     1  0.0000000  0.6508444  3
   2917   2920   2929   2938     1  0.0000000  0.6508444  3
   2923   2935   5938   5929     1  180.0000771  0.4184000  2
   2923   2935   5938   5929     1  0.0000000  1.6024720  3
   2926   2932   5908   5899     1  180.0000771  0.4184000  2
   2926   2932   5908   5899     1  0.0000000  1.6024720  3
   2932   5908   5899   5890     1  180.0000771  0.4184000  2
   2932   5908   5899   5890     1  0.0000000  1.6024720  3
   2935   5938   5929   5920     1  180.0000771  0.4184000  2
   2935   5938   5929   5920     1  0.0000000  1.6024720  3
   2940   2941   2953   2965     1  0.0000000  0.6508444  3
   2940   2944   2956   2962     1  0.0000000  0.6508444  3
   2940   2947   2950   2959     1  0.0000000  0.6508444  3
   2941   2940   2944   2956     1  0.0000000  0.6508444  3
   2941   2940   2947   2950     1  0.0000000  0.6508444  3
   2941   2953   2965   5998     1  0.0000000  0.6508444  3
   2944   2940   2941   2953     1  0.0000000  0.6508444  3
   2944   2940   2947   2950     1  0.0000000  0.6508444  3
   2944   2956   2962   5968     1  0.0000000  0.6508444  3
   2947   2940   2941   2953     1  0.0000000  0.6508444  3
   2947   2940   2944   2956     1  0.0000000  0.6508444  3
   2947   2950   2959   2968     1  0.0000000  0.6508444  3
   2953   2965   5998   5989     1  180.0000771  0.4184000  2
   2953   2965   5998   5989     1  0.0000000  1.6024720  3
   2956   2962   5968   5959     1  180.0000771  0.4184000  2
   2956   2962   5968   5959     1  0.0000000  1.6024720  3
   2962   5968   5959   5950     1  180.0000771  0.4184000  2
   2962   5968   5959   5950     1  0.0000000  1.6024720  3
   2965   5998   5989   5980     1  180.0000771  0.4184000  2
   2965   5998   5989   5980     1  0.0000000  1.6024720  3
   2970   2971   2983   2995     1  0.0000000  0.6508444  3
   2970   2974   2986   2992     1  0.0000000  0.6508444  3
   2970   2977   2980   2989     1  0.0000000  0.6508444  3
   2971   2970   2974   2986     1  0.0000000  0.6508444  3
   2971   2970   2977   2980     1  0.0000000  0.6508444  3
   2971   2983   2995   6058     1  0.0000000  0.6508444  3
   2974   2970   2971   2983     1  0.0000000  0.6508444  3
   2974   2970   2977   2980     1  0.0000000  0.6508444  3
   2974   2986   2992   6028     1  0.0000000  0.6508444  3
   2977   2970   2971   2983     1  0.0000000  0.6508444  3
   2977   2970   2974   2986     1  0.0000000  0.6508444  3
   2977   2980   2989   2998     1  0.0000000  0.6508444  3
   2983   2995   6058   6049     1  180.0000771  0.4184000  2
   2983   2995   6058   6049     1  0.0000000  1.6024720  3
   2986   2992   6028   6019     1  180.0000771  0.4184000  2
   2986   2992   6028   6019     1  0.0000000  1.6024720  3
   2992   6028   6019   6010     1  180.0000771  0.4184000  2
   2992   6028   6019   6010     1  0.0000000  1.6024720  3
   2995   6058   6049   6040     1  180.0000771  0.4184000  2
   2995   6058   6049   6040     1  0.0000000  1.6024720  3
   3000   3001   3013   3025     1  0.0000000  0.6508444  3
   3000   3004   3016   3022     1  0.0000000  0.6508444  3
   3000   3007   3010   3019     1  0.0000000  0.6508444  3
   3001   3000   3004   3016     1  0.0000000  0.6508444  3
   3001   3000   3007   3010     1  0.0000000  0.6508444  3
   3001   3013   3025   6118     1  0.0000000  0.6508444  3
   3004   3000   3001   3013     1  0.0000000  0.6508444  3
   3004   3000   3007   3010     1  0.0000000  0.6508444  3
   3004   3016   3022   6088     1  0.0000000  0.6508444  3
   3007   3000   3001   3013     1  0.0000000  0.6508444  3
   3007   3000   3004   3016     1  0.0000000  0.6508444  3
   3007   3010   3019   3028     1  0.0000000  0.6508444  3
   3013   3025   6118   6109     1  180.0000771  0.4184000  2
   3013   3025   6118   6109     1  0.0000000  1.6024720  3
   3016   3022   6088   6079     1  180.0000771  0.4184000  2
   3016   3022   6088   6079     1  0.0000000  1.6024720  3
   3022   6088   6079   6070     1  180.0000771  0.4184000  2
   3022   6088   6079   6070     1  0.0000000  1.6024720  3
   3025   6118   6109   6100     1  180.0000771  0.4184000  2
   3025   6118   6109   6100     1  0.0000000  1.6024720  3
   3030   3031   3043   3055     1  0.0000000  0.6508444  3
   3030   3034   3046   3052     1  0.0000000  0.6508444  3
   3030   3037   3040   3049     1  0.0000000  0.6508444  3
   3031   3030   3034   3046     1  0.0000000  0.6508444  3
   3031   3030   3037   3040     1  0.0000000  0.6508444  3
   3031   3043   3055   6178     1  0.0000000  0.6508444  3
   3034   3030   3031   3043     1  0.0000000  0.6508444  3
   3034   3030   3037   3040     1  0.0000000  0.6508444  3
   3034   3046   3052   6148     1  0.0000000  0.6508444  3
   3037   3030   3031   3043     1  0.0000000  0.6508444  3
   3037   3030   3034   3046     1  0.0000000  0.6508444  3
   3037   3040   3049   3058     1  0.0000000  0.6508444  3
   3043   3055   6178   6169     1  180.0000771  0.4184000  2
   3043   3055   6178   6169     1  0.0000000  1.6024720  3
   3046   3052   6148   6139     1  180.0000771  0.4184000  2
   3046   3052   6148   6139     1  0.0000000  1.6024720  3
   3052   6148   6139   6130     1  180.0000771  0.4184000  2
   3052   6148   6139   6130     1  0.0000000  1.6024720  3
   3055   6178   6169   6160     1  180.0000771  0.4184000  2
   3055   6178   6169   6160     1  0.0000000  1.6024720  3
   3060   3061   3073   3085     1  0.0000000  0.6508444  3
   3060   3064   3076   3082     1  0.0000000  0.6508444  3
   3060   3067   3070   3079     1  0.0000000  0.6508444  3
   3061   3060   3064   3076     1  0.0000000  0.6508444  3
   3061   3060   3067   3070     1  0.0000000  0.6508444  3
   3061   3073   3085   6238     1  0.0000000  0.6508444  3
   3064   3060   3061   3073     1  0.0000000  0.6508444  3
   3064   3060   3067   3070     1  0.0000000  0.6508444  3
   3064   3076   3082   6208     1  0.0000000  0.6508444  3
   3067   3060   3061   3073     1  0.0000000  0.6508444  3
   3067   3060   3064   3076     1  0.0000000  0.6508444  3
   3067   3070   3079   3088     1  0.0000000  0.6508444  3
   3073   3085   6238   6229     1  180.0000771  0.4184000  2
   3073   3085   6238   6229     1  0.0000000  1.6024720  3
   3076   3082   6208   6199     1  180.0000771  0.4184000  2
   3076   3082   6208   6199     1  0.0000000  1.6024720  3
   3082   6208   6199   6190     1  180.0000771  0.4184000  2
   3082   6208   6199   6190     1  0.0000000  1.6024720  3
   3085   6238   6229   6220     1  180.0000771  0.4184000  2
   3085   6238   6229   6220     1  0.0000000  1.6024720  3
   3090   3091   3103   3115     1  0.0000000  0.6508444  3
   3090   3094   3106   3112     1  0.0000000  0.6508444  3
   3090   3097   3100   3109     1  0.0000000  0.6508444  3
   3091   3090   3094   3106     1  0.0000000  0.6508444  3
   3091   3090   3097   3100     1  0.0000000  0.6508444  3
   3091   3103   3115   6298     1  0.0000000  0.6508444  3
   3094   3090   3091   3103     1  0.0000000  0.6508444  3
   3094   3090   3097   3100     1  0.0000000  0.6508444  3
   3094   3106   3112   6268     1  0.0000000  0.6508444  3
   3097   3090   3091   3103     1  0.0000000  0.6508444  3
   3097   3090   3094   3106     1  0.0000000  0.6508444  3
   3097   3100   3109   3118     1  0.0000000  0.6508444  3
   3103   3115   6298   6289     1  180.0000771  0.4184000  2
   3103   3115   6298   6289     1  0.0000000  1.6024720  3
   3106   3112   6268   6259     1  180.0000771  0.4184000  2
   3106   3112   6268   6259     1  0.0000000  1.6024720  3
   3112   6268   6259   6250     1  180.0000771  0.4184000  2
   3112   6268   6259   6250     1  0.0000000  1.6024720  3
   3115   6298   6289   6280     1  180.0000771  0.4184000  2
   3115   6298   6289   6280     1  0.0000000  1.6024720  3
   3120   3121   3133   3145     1  0.0000000  0.6508444  3
   3120   3124   3136   3142     1  0.0000000  0.6508444  3
   3120   3127   3130   3139     1  0.0000000  0.6508444  3
   3121   3120   3124   3136     1  0.0000000  0.6508444  3
   3121   3120   3127   3130     1  0.0000000  0.6508444  3
   3121   3133   3145   6358     1  0.0000000  0.6508444  3
   3124   3120   3121   3133     1  0.0000000  0.6508444  3
   3124   3120   3127   3130     1  0.0000000  0.6508444  3
   3124   3136   3142   6328     1  0.0000000  0.6508444  3
   3127   3120   3121   3133     1  0.0000000  0.6508444  3
   3127   3120   3124   3136     1  0.0000000  0.6508444  3
   3127   3130   3139   3148     1  0.0000000  0.6508444  3
   3133   3145   6358   6349     1  180.0000771  0.4184000  2
   3133   3145   6358   6349     1  0.0000000  1.6024720  3
   3136   3142   6328   6319     1  180.0000771  0.4184000  2
   3136   3142   6328   6319     1  0.0000000  1.6024720  3
   3142   6328   6319   6310     1  180.0000771  0.4184000  2
   3142   6328   6319   6310     1  0.0000000  1.6024720  3
   3145   6358   6349   6340     1  180.0000771  0.4184000  2
   3145   6358   6349   6340     1  0.0000000  1.6024720  3
   3150   3151   3163   3175     1  0.0000000  0.6508444  3
   3150   3154   3166   3172     1  0.0000000  0.6508444  3
   3150   3157   3160   3169     1  0.0000000  0.6508444  3
   3151   3150   3154   3166     1  0.0000000  0.6508444  3
   3151   3150   3157   3160     1  0.0000000  0.6508444  3
   3151   3163   3175   6418     1  0.0000000  0.6508444  3
   3154   3150   3151   3163     1  0.0000000  0.6508444  3
   3154   3150   3157   3160     1  0.0000000  0.6508444  3
   3154   3166   3172   6388     1  0.0000000  0.6508444  3
   3157   3150   3151   3163     1  0.0000000  0.6508444  3
   3157   3150   3154   3166     1  0.0000000  0.6508444  3
   3157   3160   3169   3178     1  0.0000000  0.6508444  3
   3163   3175   6418   6409     1  180.0000771  0.4184000  2
   3163   3175   6418   6409     1  0.0000000  1.6024720  3
   3166   3172   6388   6379     1  180.0000771  0.4184000  2
   3166   3172   6388   6379     1  0.0000000  1.6024720  3
   3172   6388   6379   6370     1  180.0000771  0.4184000  2
   3172   6388   6379   6370     1  0.0000000  1.6024720  3
   3175   6418   6409   6400     1  180.0000771  0.4184000  2
   3175   6418   6409   6400     1  0.0000000  1.6024720  3
   3180   3181   3193   3205     1  0.0000000  0.6508444  3
   3180   3184   3196   3202     1  0.0000000  0.6508444  3
   3180   3187   3190   3199     1  0.0000000  0.6508444  3
   3181   3180   3184   3196     1  0.0000000  0.6508444  3
   3181   3180   3187   3190     1  0.0000000  0.6508444  3
   3181   3193   3205   6478     1  0.0000000  0.6508444  3
   3184   3180   3181   3193     1  0.0000000  0.6508444  3
   3184   3180   3187   3190     1  0.0000000  0.6508444  3
   3184   3196   3202   6448     1  0.0000000  0.6508444  3
   3187   3180   3181   3193     1  0.0000000  0.6508444  3
   3187   3180   3184   3196     1  0.0000000  0.6508444  3
   3187   3190   3199   3208     1  0.0000000  0.6508444  3
   3193   3205   6478   6469     1  180.0000771  0.4184000  2
   3193   3205   6478   6469     1  0.0000000  1.6024720  3
   3196   3202   6448   6439     1  180.0000771  0.4184000  2
   3196   3202   6448   6439     1  0.0000000  1.6024720  3
   3202   6448   6439   6430     1  180.0000771  0.4184000  2
   3202   6448   6439   6430     1  0.0000000  1.6024720  3
   3205   6478   6469   6460     1  180.0000771  0.4184000  2
   3205   6478   6469   6460     1  0.0000000  1.6024720  3
   3210   3211   3223   3235     1  0.0000000  0.6508444  3
   3210   3214   3226   3232     1  0.0000000  0.6508444  3
   3210   3217   3220   3229     1  0.0000000  0.6508444  3
   3211   3210   3214   3226     1  0.0000000  0.6508444  3
   3211   3210   3217   3220     1  0.0000000  0.6508444  3
   3211   3223   3235   6538     1  0.0000000  0.6508444  3
   3214   3210   3211   3223     1  0.0000000  0.6508444  3
   3214   3210   3217   3220     1  0.0000000  0.6508444  3
   3214   3226   3232   6508     1  0.0000000  0.6508444  3
   3217   3210   3211   3223     1  0.0000000  0.6508444  3
   3217   3210   3214   3226     1  0.0000000  0.6508444  3
   3217   3220   3229   3238     1  0.0000000  0.6508444  3
   3223   3235   6538   6529     1  180.0000771  0.4184000  2
   3223   3235   6538   6529     1  0.0000000  1.6024720  3
   3226   3232   6508   6499     1  180.0000771  0.4184000  2
   3226   3232   6508   6499     1  0.0000000  1.6024720  3
   3232   6508   6499   6490     1  180.0000771  0.4184000  2
   3232   6508   6499   6490     1  0.0000000  1.6024720  3
   3235   6538   6529   6520     1  180.0000771  0.4184000  2
   3235   6538   6529   6520     1  0.0000000  1.6024720  3
   3240   3241   3253   3265     1  0.0000000  0.6508444  3
   3240   3244   3256   3262     1  0.0000000  0.6508444  3
   3240   3247   3250   3259     1  0.0000000  0.6508444  3
   3241   3240   3244   3256     1  0.0000000  0.6508444  3
   3241   3240   3247   3250     1  0.0000000  0.6508444  3
   3241   3253   3265   6598     1  0.0000000  0.6508444  3
   3244   3240   3241   3253     1  0.0000000  0.6508444  3
   3244   3240   3247   3250     1  0.0000000  0.6508444  3
   3244   3256   3262   6568     1  0.0000000  0.6508444  3
   3247   3240   3241   3253     1  0.0000000  0.6508444  3
   3247   3240   3244   3256     1  0.0000000  0.6508444  3
   3247   3250   3259   3268     1  0.0000000  0.6508444  3
   3253   3265   6598   6589     1  180.0000771  0.4184000  2
   3253   3265   6598   6589     1  0.0000000  1.6024720  3
   3256   3262   6568   6559     1  180.0000771  0.4184000  2
   3256   3262   6568   6559     1  0.0000000  1.6024720  3
   3262   6568   6559   6550     1  180.0000771  0.4184000  2
   3262   6568   6559   6550     1  0.0000000  1.6024720  3
   3265   6598   6589   6580     1  180.0000771  0.4184000  2
   3265   6598   6589   6580     1  0.0000000  1.6024720  3
   3270   3271   3283   3295     1  0.0000000  0.6508444  3
   3270   3274   3286   3292     1  0.0000000  0.6508444  3
   3270   3277   3280   3289     1  0.0000000  0.6508444  3
   3271   3270   3274   3286     1  0.0000000  0.6508444  3
   3271   3270   3277   3280     1  0.0000000  0.6508444  3
   3271   3283   3295   6658     1  0.0000000  0.6508444  3
   3274   3270   3271   3283     1  0.0000000  0.6508444  3
   3274   3270   3277   3280     1  0.0000000  0.6508444  3
   3274   3286   3292   6628     1  0.0000000  0.6508444  3
   3277   3270   3271   3283     1  0.0000000  0.6508444  3
   3277   3270   3274   3286     1  0.0000000  0.6508444  3
   3277   3280   3289   3298     1  0.0000000  0.6508444  3
   3283   3295   6658   6649     1  180.0000771  0.4184000  2
   3283   3295   6658   6649     1  0.0000000  1.6024720  3
   3286   3292   6628   6619     1  180.0000771  0.4184000  2
   3286   3292   6628   6619     1  0.0000000  1.6024720  3
   3292   6628   6619   6610     1  180.0000771  0.4184000  2
   3292   6628   6619   6610     1  0.0000000  1.6024720  3
   3295   6658   6649   6640     1  180.0000771  0.4184000  2
   3295   6658   6649   6640     1  0.0000000  1.6024720  3
   3300   3301   3313   3325     1  0.0000000  0.6508444  3
   3300   3304   3316   3322     1  0.0000000  0.6508444  3
   3300   3307   3310   3319     1  0.0000000  0.6508444  3
   3301   3300   3304   3316     1  0.0000000  0.6508444  3
   3301   3300   3307   3310     1  0.0000000  0.6508444  3
   3301   3313   3325   6718     1  0.0000000  0.6508444  3
   3304   3300   3301   3313     1  0.0000000  0.6508444  3
   3304   3300   3307   3310     1  0.0000000  0.6508444  3
   3304   3316   3322   6688     1  0.0000000  0.6508444  3
   3307   3300   3301   3313     1  0.0000000  0.6508444  3
   3307   3300   3304   3316     1  0.0000000  0.6508444  3
   3307   3310   3319   3328     1  0.0000000  0.6508444  3
   3313   3325   6718   6709     1  180.0000771  0.4184000  2
   3313   3325   6718   6709     1  0.0000000  1.6024720  3
   3316   3322   6688   6679     1  180.0000771  0.4184000  2
   3316   3322   6688   6679     1  0.0000000  1.6024720  3
   3322   6688   6679   6670     1  180.0000771  0.4184000  2
   3322   6688   6679   6670     1  0.0000000  1.6024720  3
   3325   6718   6709   6700     1  180.0000771  0.4184000  2
   3325   6718   6709   6700     1  0.0000000  1.6024720  3
   3330   3331   3343   3355     1  0.0000000  0.6508444  3
   3330   3334   3346   3352     1  0.0000000  0.6508444  3
   3330   3337   3340   3349     1  0.0000000  0.6508444  3
   3331   3330   3334   3346     1  0.0000000  0.6508444  3
   3331   3330   3337   3340     1  0.0000000  0.6508444  3
   3331   3343   3355   6778     1  0.0000000  0.6508444  3
   3334   3330   3331   3343     1  0.0000000  0.6508444  3
   3334   3330   3337   3340     1  0.0000000  0.6508444  3
   3334   3346   3352   6748     1  0.0000000  0.6508444  3
   3337   3330   3331   3343     1  0.0000000  0.6508444  3
   3337   3330   3334   3346     1  0.0000000  0.6508444  3
   3337   3340   3349   3358     1  0.0000000  0.6508444  3
   3343   3355   6778   6769     1  180.0000771  0.4184000  2
   3343   3355   6778   6769     1  0.0000000  1.6024720  3
   3346   3352   6748   6739     1  180.0000771  0.4184000  2
   3346   3352   6748   6739     1  0.0000000  1.6024720  3
   3352   6748   6739   6730     1  180.0000771  0.4184000  2
   3352   6748   6739   6730     1  0.0000000  1.6024720  3
   3355   6778   6769   6760     1  180.0000771  0.4184000  2
   3355   6778   6769   6760     1  0.0000000  1.6024720  3
   3360   3361   3373   3385     1  0.0000000  0.6508444  3
   3360   3364   3376   3382     1  0.0000000  0.6508444  3
   3360   3367   3370   3379     1  0.0000000  0.6508444  3
   3361   3360   3364   3376     1  0.0000000  0.6508444  3
   3361   3360   3367   3370     1  0.0000000  0.6508444  3
   3361   3373   3385   6838     1  0.0000000  0.6508444  3
   3364   3360   3361   3373     1  0.0000000  0.6508444  3
   3364   3360   3367   3370     1  0.0000000  0.6508444  3
   3364   3376   3382   6808     1  0.0000000  0.6508444  3
   3367   3360   3361   3373     1  0.0000000  0.6508444  3
   3367   3360   3364   3376     1  0.0000000  0.6508444  3
   3367   3370   3379   3388     1  0.0000000  0.6508444  3
   3373   3385   6838   6829     1  180.0000771  0.4184000  2
   3373   3385   6838   6829     1  0.0000000  1.6024720  3
   3376   3382   6808   6799     1  180.0000771  0.4184000  2
   3376   3382   6808   6799     1  0.0000000  1.6024720  3
   3382   6808   6799   6790     1  180.0000771  0.4184000  2
   3382   6808   6799   6790     1  0.0000000  1.6024720  3
   3385   6838   6829   6820     1  180.0000771  0.4184000  2
   3385   6838   6829   6820     1  0.0000000  1.6024720  3
   3390   3391   3403   3415     1  0.0000000  0.6508444  3
   3390   3394   3406   3412     1  0.0000000  0.6508444  3
   3390   3397   3400   3409     1  0.0000000  0.6508444  3
   3391   3390   3394   3406     1  0.0000000  0.6508444  3
   3391   3390   3397   3400     1  0.0000000  0.6508444  3
   3391   3403   3415   6898     1  0.0000000  0.6508444  3
   3394   3390   3391   3403     1  0.0000000  0.6508444  3
   3394   3390   3397   3400     1  0.0000000  0.6508444  3
   3394   3406   3412   6868     1  0.0000000  0.6508444  3
   3397   3390   3391   3403     1  0.0000000  0.6508444  3
   3397   3390   3394   3406     1  0.0000000  0.6508444  3
   3397   3400   3409   3418     1  0.0000000  0.6508444  3
   3403   3415   6898   6889     1  180.0000771  0.4184000  2
   3403   3415   6898   6889     1  0.0000000  1.6024720  3
   3406   3412   6868   6859     1  180.0000771  0.4184000  2
   3406   3412   6868   6859     1  0.0000000  1.6024720  3
   3412   6868   6859   6850     1  180.0000771  0.4184000  2
   3412   6868   6859   6850     1  0.0000000  1.6024720  3
   3415   6898   6889   6880     1  180.0000771  0.4184000  2
   3415   6898   6889   6880     1  0.0000000  1.6024720  3
   3420   3421   3433   3445     1  0.0000000  0.6508444  3
   3420   3424   3436   3442     1  0.0000000  0.6508444  3
   3420   3427   3430   3439     1  0.0000000  0.6508444  3
   3421   3420   3424   3436     1  0.0000000  0.6508444  3
   3421   3420   3427   3430     1  0.0000000  0.6508444  3
   3421   3433   3445   6958     1  0.0000000  0.6508444  3
   3424   3420   3421   3433     1  0.0000000  0.6508444  3
   3424   3420   3427   3430     1  0.0000000  0.6508444  3
   3424   3436   3442   6928     1  0.0000000  0.6508444  3
   3427   3420   3421   3433     1  0.0000000  0.6508444  3
   3427   3420   3424   3436     1  0.0000000  0.6508444  3
   3427   3430   3439   3448     1  0.0000000  0.6508444  3
   3433   3445   6958   6949     1  180.0000771  0.4184000  2
   3433   3445   6958   6949     1  0.0000000  1.6024720  3
   3436   3442   6928   6919     1  180.0000771  0.4184000  2
   3436   3442   6928   6919     1  0.0000000  1.6024720  3
   3442   6928   6919   6910     1  180.0000771  0.4184000  2
   3442   6928   6919   6910     1  0.0000000  1.6024720  3
   3445   6958   6949   6940     1  180.0000771  0.4184000  2
   3445   6958   6949   6940     1  0.0000000  1.6024720  3
   3450   3451   3463   3475     1  0.0000000  0.6508444  3
   3450   3454   3466   3472     1  0.0000000  0.6508444  3
   3450   3457   3460   3469     1  0.0000000  0.6508444  3
   3451   3450   3454   3466     1  0.0000000  0.6508444  3
   3451   3450   3457   3460     1  0.0000000  0.6508444  3
   3451   3463   3475   7018     1  0.0000000  0.6508444  3
   3454   3450   3451   3463     1  0.0000000  0.6508444  3
   3454   3450   3457   3460     1  0.0000000  0.6508444  3
   3454   3466   3472   6988     1  0.0000000  0.6508444  3
   3457   3450   3451   3463     1  0.0000000  0.6508444  3
   3457   3450   3454   3466     1  0.0000000  0.6508444  3
   3457   3460   3469   3478     1  0.0000000  0.6508444  3
   3463   3475   7018   7009     1  180.0000771  0.4184000  2
   3463   3475   7018   7009     1  0.0000000  1.6024720  3
   3466   3472   6988   6979     1  180.0000771  0.4184000  2
   3466   3472   6988   6979     1  0.0000000  1.6024720  3
   3472   6988   6979   6970     1  180.0000771  0.4184000  2
   3472   6988   6979   6970     1  0.0000000  1.6024720  3
   3475   7018   7009   7000     1  180.0000771  0.4184000  2
   3475   7018   7009   7000     1  0.0000000  1.6024720  3
   3480   3481   3493   3505     1  0.0000000  0.6508444  3
   3480   3484   3496   3502     1  0.0000000  0.6508444  3
   3480   3487   3490   3499     1  0.0000000  0.6508444  3
   3481   3480   3484   3496     1  0.0000000  0.6508444  3
   3481   3480   3487   3490     1  0.0000000  0.6508444  3
   3481   3493   3505   7078     1  0.0000000  0.6508444  3
   3484   3480   3481   3493     1  0.0000000  0.6508444  3
   3484   3480   3487   3490     1  0.0000000  0.6508444  3
   3484   3496   3502   7048     1  0.0000000  0.6508444  3
   3487   3480   3481   3493     1  0.0000000  0.6508444  3
   3487   3480   3484   3496     1  0.0000000  0.6508444  3
   3487   3490   3499   3508     1  0.0000000  0.6508444  3
   3493   3505   7078   7069     1  180.0000771  0.4184000  2
   3493   3505   7078   7069     1  0.0000000  1.6024720  3
   3496   3502   7048   7039     1  180.0000771  0.4184000  2
   3496   3502   7048   7039     1  0.0000000  1.6024720  3
   3502   7048   7039   7030     1  180.0000771  0.4184000  2
   3502   7048   7039   7030     1  0.0000000  1.6024720  3
   3505   7078   7069   7060     1  180.0000771  0.4184000  2
   3505   7078   7069   7060     1  0.0000000  1.6024720  3
   3510   3511   3523   3535     1  0.0000000  0.6508444  3
   3510   3514   3526   3532     1  0.0000000  0.6508444  3
   3510   3517   3520   3529     1  0.0000000  0.6508444  3
   3511   3510   3514   3526     1  0.0000000  0.6508444  3
   3511   3510   3517   3520     1  0.0000000  0.6508444  3
   3511   3523   3535   7138     1  0.0000000  0.6508444  3
   3514   3510   3511   3523     1  0.0000000  0.6508444  3
   3514   3510   3517   3520     1  0.0000000  0.6508444  3
   3514   3526   3532   7108     1  0.0000000  0.6508444  3
   3517   3510   3511   3523     1  0.0000000  0.6508444  3
   3517   3510   3514   3526     1  0.0000000  0.6508444  3
   3517   3520   3529   3538     1  0.0000000  0.6508444  3
   3523   3535   7138   7129     1  180.0000771  0.4184000  2
   3523   3535   7138   7129     1  0.0000000  1.6024720  3
   3526   3532   7108   7099     1  180.0000771  0.4184000  2
   3526   3532   7108   7099     1  0.0000000  1.6024720  3
   3532   7108   7099   7090     1  180.0000771  0.4184000  2
   3532   7108   7099   7090     1  0.0000000  1.6024720  3
   3535   7138   7129   7120     1  180.0000771  0.4184000  2
   3535   7138   7129   7120     1  0.0000000  1.6024720  3
   3540   3541   3553   3565     1  0.0000000  0.6508444  3
   3540   3544   3556   3562     1  0.0000000  0.6508444  3
   3540   3547   3550   3559     1  0.0000000  0.6508444  3
   3541   3540   3544   3556     1  0.0000000  0.6508444  3
   3541   3540   3547   3550     1  0.0000000  0.6508444  3
   3541   3553   3565   7198     1  0.0000000  0.6508444  3
   3544   3540   3541   3553     1  0.0000000  0.6508444  3
   3544   3540   3547   3550     1  0.0000000  0.6508444  3
   3544   3556   3562   7168     1  0.0000000  0.6508444  3
   3547   3540   3541   3553     1  0.0000000  0.6508444  3
   3547   3540   3544   3556     1  0.0000000  0.6508444  3
   3547   3550   3559   3568     1  0.0000000  0.6508444  3
   3553   3565   7198   7189     1  180.0000771  0.4184000  2
   3553   3565   7198   7189     1  0.0000000  1.6024720  3
   3556   3562   7168   7159     1  180.0000771  0.4184000  2
   3556   3562   7168   7159     1  0.0000000  1.6024720  3
   3562   7168   7159   7150     1  180.0000771  0.4184000  2
   3562   7168   7159   7150     1  0.0000000  1.6024720  3
   3565   7198   7189   7180     1  180.0000771  0.4184000  2
   3565   7198   7189   7180     1  0.0000000  1.6024720  3
   3570   3571   3583   3595     1  0.0000000  0.6508444  3
   3570   3574   3586   3592     1  0.0000000  0.6508444  3
   3570   3577   3580   3589     1  0.0000000  0.6508444  3
   3571   3570   3574   3586     1  0.0000000  0.6508444  3
   3571   3570   3577   3580     1  0.0000000  0.6508444  3
   3571   3583   3595   7258     1  0.0000000  0.6508444  3
   3574   3570   3571   3583     1  0.0000000  0.6508444  3
   3574   3570   3577   3580     1  0.0000000  0.6508444  3
   3574   3586   3592   7228     1  0.0000000  0.6508444  3
   3577   3570   3571   3583     1  0.0000000  0.6508444  3
   3577   3570   3574   3586     1  0.0000000  0.6508444  3
   3577   3580   3589   3598     1  0.0000000  0.6508444  3
   3583   3595   7258   7249     1  180.0000771  0.4184000  2
   3583   3595   7258   7249     1  0.0000000  1.6024720  3
   3586   3592   7228   7219     1  180.0000771  0.4184000  2
   3586   3592   7228   7219     1  0.0000000  1.6024720  3
   3592   7228   7219   7210     1  180.0000771  0.4184000  2
   3592   7228   7219   7210     1  0.0000000  1.6024720  3
   3595   7258   7249   7240     1  180.0000771  0.4184000  2
   3595   7258   7249   7240     1  0.0000000  1.6024720  3
   3600   3601   3613   3625     1  0.0000000  0.6508444  3
   3600   3604   3616   3622     1  0.0000000  0.6508444  3
   3600   3607   3610   3619     1  0.0000000  0.6508444  3
   3601   3600   3604   3616     1  0.0000000  0.6508444  3
   3601   3600   3607   3610     1  0.0000000  0.6508444  3
   3601   3613   3625   7318     1  0.0000000  0.6508444  3
   3604   3600   3601   3613     1  0.0000000  0.6508444  3
   3604   3600   3607   3610     1  0.0000000  0.6508444  3
   3604   3616   3622   7288     1  0.0000000  0.6508444  3
   3607   3600   3601   3613     1  0.0000000  0.6508444  3
   3607   3600   3604   3616     1  0.0000000  0.6508444  3
   3607   3610   3619   3628     1  0.0000000  0.6508444  3
   3613   3625   7318   7309     1  180.0000771  0.4184000  2
   3613   3625   7318   7309     1  0.0000000  1.6024720  3
   3616   3622   7288   7279     1  180.0000771  0.4184000  2
   3616   3622   7288   7279     1  0.0000000  1.6024720  3
   3622   7288   7279   7270     1  180.0000771  0.4184000  2
   3622   7288   7279   7270     1  0.0000000  1.6024720  3
   3625   7318   7309   7300     1  180.0000771  0.4184000  2
   3625   7318   7309   7300     1  0.0000000  1.6024720  3
   3630   3631   3643   3655     1  0.0000000  0.6508444  3
   3630   3634   3646   3652     1  0.0000000  0.6508444  3
   3630   3637   3640   3649     1  0.0000000  0.6508444  3
   3631   3630   3634   3646     1  0.0000000  0.6508444  3
   3631   3630   3637   3640     1  0.0000000  0.6508444  3
   3631   3643   3655   7378     1  0.0000000  0.6508444  3
   3634   3630   3631   3643     1  0.0000000  0.6508444  3
   3634   3630   3637   3640     1  0.0000000  0.6508444  3
   3634   3646   3652   7348     1  0.0000000  0.6508444  3
   3637   3630   3631   3643     1  0.0000000  0.6508444  3
   3637   3630   3634   3646     1  0.0000000  0.6508444  3
   3637   3640   3649   3658     1  0.0000000  0.6508444  3
   3643   3655   7378   7369     1  180.0000771  0.4184000  2
   3643   3655   7378   7369     1  0.0000000  1.6024720  3
   3646   3652   7348   7339     1  180.0000771  0.4184000  2
   3646   3652   7348   7339     1  0.0000000  1.6024720  3
   3652   7348   7339   7330     1  180.0000771  0.4184000  2
   3652   7348   7339   7330     1  0.0000000  1.6024720  3
   3655   7378   7369   7360     1  180.0000771  0.4184000  2
   3655   7378   7369   7360     1  0.0000000  1.6024720  3
   3660   3661   3673   3685     1  0.0000000  0.6508444  3
   3660   3664   3676   3682     1  0.0000000  0.6508444  3
   3660   3667   3670   3679     1  0.0000000  0.6508444  3
   3661   3660   3664   3676     1  0.0000000  0.6508444  3
   3661   3660   3667   3670     1  0.0000000  0.6508444  3
   3661   3673   3685   7438     1  0.0000000  0.6508444  3
   3664   3660   3661   3673     1  0.0000000  0.6508444  3
   3664   3660   3667   3670     1  0.0000000  0.6508444  3
   3664   3676   3682   7408     1  0.0000000  0.6508444  3
   3667   3660   3661   3673     1  0.0000000  0.6508444  3
   3667   3660   3664   3676     1  0.0000000  0.6508444  3
   3667   3670   3679   3688     1  0.0000000  0.6508444  3
   3673   3685   7438   7429     1  180.0000771  0.4184000  2
   3673   3685   7438   7429     1  0.0000000  1.6024720  3
   3676   3682   7408   7399     1  180.0000771  0.4184000  2
   3676   3682   7408   7399     1  0.0000000  1.6024720  3
   3682   7408   7399   7390     1  180.0000771  0.4184000  2
   3682   7408   7399   7390     1  0.0000000  1.6024720  3
   3685   7438   7429   7420     1  180.0000771  0.4184000  2
   3685   7438   7429   7420     1  0.0000000  1.6024720  3
   3690   3691   3703   3715     1  0.0000000  0.6508444  3
   3690   3694   3706   3712     1  0.0000000  0.6508444  3
   3690   3697   3700   3709     1  0.0000000  0.6508444  3
   3691   3690   3694   3706     1  0.0000000  0.6508444  3
   3691   3690   3697   3700     1  0.0000000  0.6508444  3
   3691   3703   3715   7498     1  0.0000000  0.6508444  3
   3694   3690   3691   3703     1  0.0000000  0.6508444  3
   3694   3690   3697   3700     1  0.0000000  0.6508444  3
   3694   3706   3712   7468     1  0.0000000  0.6508444  3
   3697   3690   3691   3703     1  0.0000000  0.6508444  3
   3697   3690   3694   3706     1  0.0000000  0.6508444  3
   3697   3700   3709   3718     1  0.0000000  0.6508444  3
   3703   3715   7498   7489     1  180.0000771  0.4184000  2
   3703   3715   7498   7489     1  0.0000000  1.6024720  3
   3706   3712   7468   7459     1  180.0000771  0.4184000  2
   3706   3712   7468   7459     1  0.0000000  1.6024720  3
   3712   7468   7459   7450     1  180.0000771  0.4184000  2
   3712   7468   7459   7450     1  0.0000000  1.6024720  3
   3715   7498   7489   7480     1  180.0000771  0.4184000  2
   3715   7498   7489   7480     1  0.0000000  1.6024720  3
   3720   3721   3733   3745     1  0.0000000  0.6508444  3
   3720   3724   3736   3742     1  0.0000000  0.6508444  3
   3720   3727   3730   3739     1  0.0000000  0.6508444  3
   3721   3720   3724   3736     1  0.0000000  0.6508444  3
   3721   3720   3727   3730     1  0.0000000  0.6508444  3
   3721   3733   3745   7558     1  0.0000000  0.6508444  3
   3724   3720   3721   3733     1  0.0000000  0.6508444  3
   3724   3720   3727   3730     1  0.0000000  0.6508444  3
   3724   3736   3742   7528     1  0.0000000  0.6508444  3
   3727   3720   3721   3733     1  0.0000000  0.6508444  3
   3727   3720   3724   3736     1  0.0000000  0.6508444  3
   3727   3730   3739   3748     1  0.0000000  0.6508444  3
   3733   3745   7558   7549     1  180.0000771  0.4184000  2
   3733   3745   7558   7549     1  0.0000000  1.6024720  3
   3736   3742   7528   7519     1  180.0000771  0.4184000  2
   3736   3742   7528   7519     1  0.0000000  1.6024720  3
   3742   7528   7519   7510     1  180.0000771  0.4184000  2
   3742   7528   7519   7510     1  0.0000000  1.6024720  3
   3745   7558   7549   7540     1  180.0000771  0.4184000  2
   3745   7558   7549   7540     1  0.0000000  1.6024720  3
   3750   3751   3763   3775     1  0.0000000  0.6508444  3
   3750   3754   3766   3772     1  0.0000000  0.6508444  3
   3750   3757   3760   3769     1  0.0000000  0.6508444  3
   3751   3750   3754   3766     1  0.0000000  0.6508444  3
   3751   3750   3757   3760     1  0.0000000  0.6508444  3
   3751   3763   3775   7618     1  0.0000000  0.6508444  3
   3754   3750   3751   3763     1  0.0000000  0.6508444  3
   3754   3750   3757   3760     1  0.0000000  0.6508444  3
   3754   3766   3772   7588     1  0.0000000  0.6508444  3
   3757   3750   3751   3763     1  0.0000000  0.6508444  3
   3757   3750   3754   3766     1  0.0000000  0.6508444  3
   3757   3760   3769   3778     1  0.0000000  0.6508444  3
   3763   3775   7618   7609     1  180.0000771  0.4184000  2
   3763   3775   7618   7609     1  0.0000000  1.6024720  3
   3766   3772   7588   7579     1  180.0000771  0.4184000  2
   3766   3772   7588   7579     1  0.0000000  1.6024720  3
   3772   7588   7579   7570     1  180.0000771  0.4184000  2
   3772   7588   7579   7570     1  0.0000000  1.6024720  3
   3775   7618   7609   7600     1  180.0000771  0.4184000  2
   3775   7618   7609   7600     1  0.0000000  1.6024720  3
   3780   3781   3793   3805     1  0.0000000  0.6508444  3
   3780   3784   3796   3802     1  0.0000000  0.6508444  3
   3780   3787   3790   3799     1  0.0000000  0.6508444  3
   3781   3780   3784   3796     1  0.0000000  0.6508444  3
   3781   3780   3787   3790     1  0.0000000  0.6508444  3
   3781   3793   3805   7653     1  0.0000000  0.6508444  3
   3784   3780   3781   3793     1  0.0000000  0.6508444  3
   3784   3780   3787   3790     1  0.0000000  0.6508444  3
   3784   3796   3802   7630     1  0.0000000  0.6508444  3
   3787   3780   3781   3793     1  0.0000000  0.6508444  3
   3787   3780   3784   3796     1  0.0000000  0.6508444  3
   3787   3790   3799   3808     1  0.0000000  0.6508444  3
   3793   3805   7653   7649     1  180.0000771  0.4184000  2
   3793   3805   7653   7649     1  0.0000000  1.6024720  3
   3796   3802   7630   7626     1  180.0000771  0.4184000  2
   3796   3802   7630   7626     1  0.0000000  1.6024720  3
   3802   7630   7626   7625     1  180.0000771  0.4184000  2
   3802   7630   7626   7625     1  0.0000000  1.6024720  3
   3802   7630   7626   7642     1  180.0000771  5.6484000  1
   3802   7630   7626   7642     1  180.0000771  3.5564000  2
   3802   7630   7626   7642     1  0.0000000  0.4184000  3
   3805   7653   7649   7665     1  180.0000771  5.6484000  1
   3805   7653   7649   7665     1  180.0000771  3.5564000  2
   3805   7653   7649   7665     1  0.0000000  0.4184000  3
   3805   7653   7649   7648     1  180.0000771  0.4184000  2
   3805   7653   7649   7648     1  0.0000000  1.6024720  3
   3810   3811   3823   3835     1  0.0000000  0.6508444  3
   3810   3814   3826   3832     1  0.0000000  0.6508444  3
   3810   3817   3820   3829     1  0.0000000  0.6508444  3
   3811   3810   3814   3826     1  0.0000000  0.6508444  3
   3811   3810   3817   3820     1  0.0000000  0.6508444  3
   3811   3823   3835   7699     1  0.0000000  0.6508444  3
   3814   3810   3811   3823     1  0.0000000  0.6508444  3
   3814   3810   3817   3820     1  0.0000000  0.6508444  3
   3814   3826   3832   7676     1  0.0000000  0.6508444  3
   3817   3810   3811   3823     1  0.0000000  0.6508444  3
   3817   3810   3814   3826     1  0.0000000  0.6508444  3
   3817   3820   3829   3838     1  0.0000000  0.6508444  3
   3823   3835   7699   7695     1  180.0000771  0.4184000  2
   3823   3835   7699   7695     1  0.0000000  1.6024720  3
   3826   3832   7676   7672     1  180.0000771  0.4184000  2
   3826   3832   7676   7672     1  0.0000000  1.6024720  3
   3832   7676   7672   7671     1  180.0000771  0.4184000  2
   3832   7676   7672   7671     1  0.0000000  1.6024720  3
   3832   7676   7672   7688     1  180.0000771  5.6484000  1
   3832   7676   7672   7688     1  180.0000771  3.5564000  2
   3832   7676   7672   7688     1  0.0000000  0.4184000  3
   3835   7699   7695   7711     1  180.0000771  5.6484000  1
   3835   7699   7695   7711     1  180.0000771  3.5564000  2
   3835   7699   7695   7711     1  0.0000000  0.4184000  3
   3835   7699   7695   7694     1  180.0000771  0.4184000  2
   3835   7699   7695   7694     1  0.0000000  1.6024720  3
   3840   3841   3853   3865     1  0.0000000  0.6508444  3
   3840   3844   3856   3862     1  0.0000000  0.6508444  3
   3840   3847   3850   3859     1  0.0000000  0.6508444  3
   3841   3840   3844   3856     1  0.0000000  0.6508444  3
   3841   3840   3847   3850     1  0.0000000  0.6508444  3
   3841   3853   3865   7745     1  0.0000000  0.6508444  3
   3844   3840   3841   3853     1  0.0000000  0.6508444  3
   3844   3840   3847   3850     1  0.0000000  0.6508444  3
   3844   3856   3862   7722     1  0.0000000  0.6508444  3
   3847   3840   3841   3853     1  0.0000000  0.6508444  3
   3847   3840   3844   3856     1  0.0000000  0.6508444  3
   3847   3850   3859   3868     1  0.0000000  0.6508444  3
   3853   3865   7745   7741     1  180.0000771  0.4184000  2
   3853   3865   7745   7741     1  0.0000000  1.6024720  3
   3856   3862   7722   7718     1  180.0000771  0.4184000  2
   3856   3862   7722   7718     1  0.0000000  1.6024720  3
   3862   7722   7718   7717     1  180.0000771  0.4184000  2
   3862   7722   7718   7717     1  0.0000000  1.6024720  3
   3862   7722   7718   7734     1  180.0000771  5.6484000  1
   3862   7722   7718   7734     1  180.0000771  3.5564000  2
   3862   7722   7718   7734     1  0.0000000  0.4184000  3
   3865   7745   7741   7757     1  180.0000771  5.6484000  1
   3865   7745   7741   7757     1  180.0000771  3.5564000  2
   3865   7745   7741   7757     1  0.0000000  0.4184000  3
   3865   7745   7741   7740     1  180.0000771  0.4184000  2
   3865   7745   7741   7740     1  0.0000000  1.6024720  3
   3870   3871   3883   3895     1  0.0000000  0.6508444  3
   3870   3874   3886   3892     1  0.0000000  0.6508444  3
   3870   3877   3880   3889     1  0.0000000  0.6508444  3
   3871   3870   3874   3886     1  0.0000000  0.6508444  3
   3871   3870   3877   3880     1  0.0000000  0.6508444  3
   3871   3883   3895   7791     1  0.0000000  0.6508444  3
   3874   3870   3871   3883     1  0.0000000  0.6508444  3
   3874   3870   3877   3880     1  0.0000000  0.6508444  3
   3874   3886   3892   7768     1  0.0000000  0.6508444  3
   3877   3870   3871   3883     1  0.0000000  0.6508444  3
   3877   3870   3874   3886     1  0.0000000  0.6508444  3
   3877   3880   3889   3898     1  0.0000000  0.6508444  3
   3883   3895   7791   7787     1  180.0000771  0.4184000  2
   3883   3895   7791   7787     1  0.0000000  1.6024720  3
   3886   3892   7768   7764     1  180.0000771  0.4184000  2
   3886   3892   7768   7764     1  0.0000000  1.6024720  3
   3892   7768   7764   7763     1  180.0000771  0.4184000  2
   3892   7768   7764   7763     1  0.0000000  1.6024720  3
   3892   7768   7764   7780     1  180.0000771  5.6484000  1
   3892   7768   7764   7780     1  180.0000771  3.5564000  2
   3892   7768   7764   7780     1  0.0000000  0.4184000  3
   3895   7791   7787   7803     1  180.0000771  5.6484000  1
   3895   7791   7787   7803     1  180.0000771  3.5564000  2
   3895   7791   7787   7803     1  0.0000000  0.4184000  3
   3895   7791   7787   7786     1  180.0000771  0.4184000  2
   3895   7791   7787   7786     1  0.0000000  1.6024720  3
   3900   3901   3913   3925     1  0.0000000  0.6508444  3
   3900   3904   3916   3922     1  0.0000000  0.6508444  3
   3900   3907   3910   3919     1  0.0000000  0.6508444  3
   3901   3900   3904   3916     1  0.0000000  0.6508444  3
   3901   3900   3907   3910     1  0.0000000  0.6508444  3
   3901   3913   3925   7837     1  0.0000000  0.6508444  3
   3904   3900   3901   3913     1  0.0000000  0.6508444  3
   3904   3900   3907   3910     1  0.0000000  0.6508444  3
   3904   3916   3922   7814     1  0.0000000  0.6508444  3
   3907   3900   3901   3913     1  0.0000000  0.6508444  3
   3907   3900   3904   3916     1  0.0000000  0.6508444  3
   3907   3910   3919   3928     1  0.0000000  0.6508444  3
   3913   3925   7837   7833     1  180.0000771  0.4184000  2
   3913   3925   7837   7833     1  0.0000000  1.6024720  3
   3916   3922   7814   7810     1  180.0000771  0.4184000  2
   3916   3922   7814   7810     1  0.0000000  1.6024720  3
   3922   7814   7810   7809     1  180.0000771  0.4184000  2
   3922   7814   7810   7809     1  0.0000000  1.6024720  3
   3922   7814   7810   7826     1  180.0000771  5.6484000  1
   3922   7814   7810   7826     1  180.0000771  3.5564000  2
   3922   7814   7810   7826     1  0.0000000  0.4184000  3
   3925   7837   7833   7849     1  180.0000771  5.6484000  1
   3925   7837   7833   7849     1  180.0000771  3.5564000  2
   3925   7837   7833   7849     1  0.0000000  0.4184000  3
   3925   7837   7833   7832     1  180.0000771  0.4184000  2
   3925   7837   7833   7832     1  0.0000000  1.6024720  3
   3930   3931   3943   3955     1  0.0000000  0.6508444  3
   3930   3934   3946   3952     1  0.0000000  0.6508444  3
   3930   3937   3940   3949     1  0.0000000  0.6508444  3
   3931   3930   3934   3946     1  0.0000000  0.6508444  3
   3931   3930   3937   3940     1  0.0000000  0.6508444  3
   3931   3943   3955   7883     1  0.0000000  0.6508444  3
   3934   3930   3931   3943     1  0.0000000  0.6508444  3
   3934   3930   3937   3940     1  0.0000000  0.6508444  3
   3934   3946   3952   7860     1  0.0000000  0.6508444  3
   3937   3930   3931   3943     1  0.0000000  0.6508444  3
   3937   3930   3934   3946     1  0.0000000  0.6508444  3
   3937   3940   3949   3958     1  0.0000000  0.6508444  3
   3943   3955   7883   7879     1  180.0000771  0.4184000  2
   3943   3955   7883   7879     1  0.0000000  1.6024720  3
   3946   3952   7860   7856     1  180.0000771  0.4184000  2
   3946   3952   7860   7856     1  0.0000000  1.6024720  3
   3952   7860   7856   7855     1  180.0000771  0.4184000  2
   3952   7860   7856   7855     1  0.0000000  1.6024720  3
   3952   7860   7856   7872     1  180.0000771  5.6484000  1
   3952   7860   7856   7872     1  180.0000771  3.5564000  2
   3952   7860   7856   7872     1  0.0000000  0.4184000  3
   3955   7883   7879   7895     1  180.0000771  5.6484000  1
   3955   7883   7879   7895     1  180.0000771  3.5564000  2
   3955   7883   7879   7895     1  0.0000000  0.4184000  3
   3955   7883   7879   7878     1  180.0000771  0.4184000  2
   3955   7883   7879   7878     1  0.0000000  1.6024720  3
   3960   3961   3973   3985     1  0.0000000  0.6508444  3
   3960   3964   3976   3982     1  0.0000000  0.6508444  3
   3960   3967   3970   3979     1  0.0000000  0.6508444  3
   3961   3960   3964   3976     1  0.0000000  0.6508444  3
   3961   3960   3967   3970     1  0.0000000  0.6508444  3
   3961   3973   3985   7929     1  0.0000000  0.6508444  3
   3964   3960   3961   3973     1  0.0000000  0.6508444  3
   3964   3960   3967   3970     1  0.0000000  0.6508444  3
   3964   3976   3982   7906     1  0.0000000  0.6508444  3
   3967   3960   3961   3973     1  0.0000000  0.6508444  3
   3967   3960   3964   3976     1  0.0000000  0.6508444  3
   3967   3970   3979   3988     1  0.0000000  0.6508444  3
   3973   3985   7929   7925     1  180.0000771  0.4184000  2
   3973   3985   7929   7925     1  0.0000000  1.6024720  3
   3976   3982   7906   7902     1  180.0000771  0.4184000  2
   3976   3982   7906   7902     1  0.0000000  1.6024720  3
   3982   7906   7902   7901     1  180.0000771  0.4184000  2
   3982   7906   7902   7901     1  0.0000000  1.6024720  3
   3982   7906   7902   7918     1  180.0000771  5.6484000  1
   3982   7906   7902   7918     1  180.0000771  3.5564000  2
   3982   7906   7902   7918     1  0.0000000  0.4184000  3
   3985   7929   7925   7941     1  180.0000771  5.6484000  1
   3985   7929   7925   7941     1  180.0000771  3.5564000  2
   3985   7929   7925   7941     1  0.0000000  0.4184000  3
   3985   7929   7925   7924     1  180.0000771  0.4184000  2
   3985   7929   7925   7924     1  0.0000000  1.6024720  3
   3990   3991   4003   4015     1  0.0000000  0.6508444  3
   3990   3994   4006   4012     1  0.0000000  0.6508444  3
   3990   3997   4000   4009     1  0.0000000  0.6508444  3
   3991   3990   3994   4006     1  0.0000000  0.6508444  3
   3991   3990   3997   4000     1  0.0000000  0.6508444  3
   3991   4003   4015   7975     1  0.0000000  0.6508444  3
   3994   3990   3991   4003     1  0.0000000  0.6508444  3
   3994   3990   3997   4000     1  0.0000000  0.6508444  3
   3994   4006   4012   7952     1  0.0000000  0.6508444  3
   3997   3990   3991   4003     1  0.0000000  0.6508444  3
   3997   3990   3994   4006     1  0.0000000  0.6508444  3
   3997   4000   4009   4018     1  0.0000000  0.6508444  3
   4003   4015   7975   7971     1  180.0000771  0.4184000  2
   4003   4015   7975   7971     1  0.0000000  1.6024720  3
   4006   4012   7952   7948     1  180.0000771  0.4184000  2
   4006   4012   7952   7948     1  0.0000000  1.6024720  3
   4012   7952   7948   7947     1  180.0000771  0.4184000  2
   4012   7952   7948   7947     1  0.0000000  1.6024720  3
   4012   7952   7948   7964     1  180.0000771  5.6484000  1
   4012   7952   7948   7964     1  180.0000771  3.5564000  2
   4012   7952   7948   7964     1  0.0000000  0.4184000  3
   4015   7975   7971   7987     1  180.0000771  5.6484000  1
   4015   7975   7971   7987     1  180.0000771  3.5564000  2
   4015   7975   7971   7987     1  0.0000000  0.4184000  3
   4015   7975   7971   7970     1  180.0000771  0.4184000  2
   4015   7975   7971   7970     1  0.0000000  1.6024720  3
   4020   4021   4033   4045     1  0.0000000  0.6508444  3
   4020   4024   4036   4042     1  0.0000000  0.6508444  3
   4020   4027   4030   4039     1  0.0000000  0.6508444  3
   4021   4020   4024   4036     1  0.0000000  0.6508444  3
   4021   4020   4027   4030     1  0.0000000  0.6508444  3
   4021   4033   4045   8021     1  0.0000000  0.6508444  3
   4024   4020   4021   4033     1  0.0000000  0.6508444  3
   4024   4020   4027   4030     1  0.0000000  0.6508444  3
   4024   4036   4042   7998     1  0.0000000  0.6508444  3
   4027   4020   4021   4033     1  0.0000000  0.6508444  3
   4027   4020   4024   4036     1  0.0000000  0.6508444  3
   4027   4030   4039   4048     1  0.0000000  0.6508444  3
   4033   4045   8021   8017     1  180.0000771  0.4184000  2
   4033   4045   8021   8017     1  0.0000000  1.6024720  3
   4036   4042   7998   7994     1  180.0000771  0.4184000  2
   4036   4042   7998   7994     1  0.0000000  1.6024720  3
   4042   7998   7994   7993     1  180.0000771  0.4184000  2
   4042   7998   7994   7993     1  0.0000000  1.6024720  3
   4042   7998   7994   8010     1  180.0000771  5.6484000  1
   4042   7998   7994   8010     1  180.0000771  3.5564000  2
   4042   7998   7994   8010     1  0.0000000  0.4184000  3
   4045   8021   8017   8033     1  180.0000771  5.6484000  1
   4045   8021   8017   8033     1  180.0000771  3.5564000  2
   4045   8021   8017   8033     1  0.0000000  0.4184000  3
   4045   8021   8017   8016     1  180.0000771  0.4184000  2
   4045   8021   8017   8016     1  0.0000000  1.6024720  3
   4050   4051   4063   4075     1  0.0000000  0.6508444  3
   4050   4054   4066   4072     1  0.0000000  0.6508444  3
   4050   4057   4060   4069     1  0.0000000  0.6508444  3
   4051   4050   4054   4066     1  0.0000000  0.6508444  3
   4051   4050   4057   4060     1  0.0000000  0.6508444  3
   4051   4063   4075   8067     1  0.0000000  0.6508444  3
   4054   4050   4051   4063     1  0.0000000  0.6508444  3
   4054   4050   4057   4060     1  0.0000000  0.6508444  3
   4054   4066   4072   8044     1  0.0000000  0.6508444  3
   4057   4050   4051   4063     1  0.0000000  0.6508444  3
   4057   4050   4054   4066     1  0.0000000  0.6508444  3
   4057   4060   4069   4078     1  0.0000000  0.6508444  3
   4063   4075   8067   8063     1  180.0000771  0.4184000  2
   4063   4075   8067   8063     1  0.0000000  1.6024720  3
   4066   4072   8044   8040     1  180.0000771  0.4184000  2
   4066   4072   8044   8040     1  0.0000000  1.6024720  3
   4072   8044   8040   8039     1  180.0000771  0.4184000  2
   4072   8044   8040   8039     1  0.0000000  1.6024720  3
   4072   8044   8040   8056     1  180.0000771  5.6484000  1
   4072   8044   8040   8056     1  180.0000771  3.5564000  2
   4072   8044   8040   8056     1  0.0000000  0.4184000  3
   4075   8067   8063   8079     1  180.0000771  5.6484000  1
   4075   8067   8063   8079     1  180.0000771  3.5564000  2
   4075   8067   8063   8079     1  0.0000000  0.4184000  3
   4075   8067   8063   8062     1  180.0000771  0.4184000  2
   4075   8067   8063   8062     1  0.0000000  1.6024720  3
   4080   4081   4093   4105     1  0.0000000  0.6508444  3
   4080   4084   4096   4102     1  0.0000000  0.6508444  3
   4080   4087   4090   4099     1  0.0000000  0.6508444  3
   4081   4080   4084   4096     1  0.0000000  0.6508444  3
   4081   4080   4087   4090     1  0.0000000  0.6508444  3
   4081   4093   4105   8113     1  0.0000000  0.6508444  3
   4084   4080   4081   4093     1  0.0000000  0.6508444  3
   4084   4080   4087   4090     1  0.0000000  0.6508444  3
   4084   4096   4102   8090     1  0.0000000  0.6508444  3
   4087   4080   4081   4093     1  0.0000000  0.6508444  3
   4087   4080   4084   4096     1  0.0000000  0.6508444  3
   4087   4090   4099   4108     1  0.0000000  0.6508444  3
   4093   4105   8113   8109     1  180.0000771  0.4184000  2
   4093   4105   8113   8109     1  0.0000000  1.6024720  3
   4096   4102   8090   8086     1  180.0000771  0.4184000  2
   4096   4102   8090   8086     1  0.0000000  1.6024720  3
   4102   8090   8086   8085     1  180.0000771  0.4184000  2
   4102   8090   8086   8085     1  0.0000000  1.6024720  3
   4102   8090   8086   8102     1  180.0000771  5.6484000  1
   4102   8090   8086   8102     1  180.0000771  3.5564000  2
   4102   8090   8086   8102     1  0.0000000  0.4184000  3
   4105   8113   8109   8125     1  180.0000771  5.6484000  1
   4105   8113   8109   8125     1  180.0000771  3.5564000  2
   4105   8113   8109   8125     1  0.0000000  0.4184000  3
   4105   8113   8109   8108     1  180.0000771  0.4184000  2
   4105   8113   8109   8108     1  0.0000000  1.6024720  3
   4110   4111   4123   4135     1  0.0000000  0.6508444  3
   4110   4114   4126   4132     1  0.0000000  0.6508444  3
   4110   4117   4120   4129     1  0.0000000  0.6508444  3
   4111   4110   4114   4126     1  0.0000000  0.6508444  3
   4111   4110   4117   4120     1  0.0000000  0.6508444  3
   4111   4123   4135   8159     1  0.0000000  0.6508444  3
   4114   4110   4111   4123     1  0.0000000  0.6508444  3
   4114   4110   4117   4120     1  0.0000000  0.6508444  3
   4114   4126   4132   8136     1  0.0000000  0.6508444  3
   4117   4110   4111   4123     1  0.0000000  0.6508444  3
   4117   4110   4114   4126     1  0.0000000  0.6508444  3
   4117   4120   4129   4138     1  0.0000000  0.6508444  3
   4123   4135   8159   8155     1  180.0000771  0.4184000  2
   4123   4135   8159   8155     1  0.0000000  1.6024720  3
   4126   4132   8136   8132     1  180.0000771  0.4184000  2
   4126   4132   8136   8132     1  0.0000000  1.6024720  3
   4132   8136   8132   8131     1  180.0000771  0.4184000  2
   4132   8136   8132   8131     1  0.0000000  1.6024720  3
   4132   8136   8132   8148     1  180.0000771  5.6484000  1
   4132   8136   8132   8148     1  180.0000771  3.5564000  2
   4132   8136   8132   8148     1  0.0000000  0.4184000  3
   4135   8159   8155   8171     1  180.0000771  5.6484000  1
   4135   8159   8155   8171     1  180.0000771  3.5564000  2
   4135   8159   8155   8171     1  0.0000000  0.4184000  3
   4135   8159   8155   8154     1  180.0000771  0.4184000  2
   4135   8159   8155   8154     1  0.0000000  1.6024720  3
   4140   4141   4153   4165     1  0.0000000  0.6508444  3
   4140   4144   4156   4162     1  0.0000000  0.6508444  3
   4140   4147   4150   4159     1  0.0000000  0.6508444  3
   4141   4140   4144   4156     1  0.0000000  0.6508444  3
   4141   4140   4147   4150     1  0.0000000  0.6508444  3
   4141   4153   4165   8205     1  0.0000000  0.6508444  3
   4144   4140   4141   4153     1  0.0000000  0.6508444  3
   4144   4140   4147   4150     1  0.0000000  0.6508444  3
   4144   4156   4162   8182     1  0.0000000  0.6508444  3
   4147   4140   4141   4153     1  0.0000000  0.6508444  3
   4147   4140   4144   4156     1  0.0000000  0.6508444  3
   4147   4150   4159   4168     1  0.0000000  0.6508444  3
   4153   4165   8205   8201     1  180.0000771  0.4184000  2
   4153   4165   8205   8201     1  0.0000000  1.6024720  3
   4156   4162   8182   8178     1  180.0000771  0.4184000  2
   4156   4162   8182   8178     1  0.0000000  1.6024720  3
   4162   8182   8178   8177     1  180.0000771  0.4184000  2
   4162   8182   8178   8177     1  0.0000000  1.6024720  3
   4162   8182   8178   8194     1  180.0000771  5.6484000  1
   4162   8182   8178   8194     1  180.0000771  3.5564000  2
   4162   8182   8178   8194     1  0.0000000  0.4184000  3
   4165   8205   8201   8217     1  180.0000771  5.6484000  1
   4165   8205   8201   8217     1  180.0000771  3.5564000  2
   4165   8205   8201   8217     1  0.0000000  0.4184000  3
   4165   8205   8201   8200     1  180.0000771  0.4184000  2
   4165   8205   8201   8200     1  0.0000000  1.6024720  3
   4170   4171   4183   4195     1  0.0000000  0.6508444  3
   4170   4174   4186   4192     1  0.0000000  0.6508444  3
   4170   4177   4180   4189     1  0.0000000  0.6508444  3
   4171   4170   4174   4186     1  0.0000000  0.6508444  3
   4171   4170   4177   4180     1  0.0000000  0.6508444  3
   4171   4183   4195   8251     1  0.0000000  0.6508444  3
   4174   4170   4171   4183     1  0.0000000  0.6508444  3
   4174   4170   4177   4180     1  0.0000000  0.6508444  3
   4174   4186   4192   8228     1  0.0000000  0.6508444  3
   4177   4170   4171   4183     1  0.0000000  0.6508444  3
   4177   4170   4174   4186     1  0.0000000  0.6508444  3
   4177   4180   4189   4198     1  0.0000000  0.6508444  3
   4183   4195   8251   8247     1  180.0000771  0.4184000  2
   4183   4195   8251   8247     1  0.0000000  1.6024720  3
   4186   4192   8228   8224     1  180.0000771  0.4184000  2
   4186   4192   8228   8224     1  0.0000000  1.6024720  3
   4192   8228   8224   8223     1  180.0000771  0.4184000  2
   4192   8228   8224   8223     1  0.0000000  1.6024720  3
   4192   8228   8224   8240     1  180.0000771  5.6484000  1
   4192   8228   8224   8240     1  180.0000771  3.5564000  2
   4192   8228   8224   8240     1  0.0000000  0.4184000  3
   4195   8251   8247   8263     1  180.0000771  5.6484000  1
   4195   8251   8247   8263     1  180.0000771  3.5564000  2
   4195   8251   8247   8263     1  0.0000000  0.4184000  3
   4195   8251   8247   8246     1  180.0000771  0.4184000  2
   4195   8251   8247   8246     1  0.0000000  1.6024720  3
   4200   4201   4213   4225     1  0.0000000  0.6508444  3
   4200   4204   4216   4222     1  0.0000000  0.6508444  3
   4200   4207   4210   4219     1  0.0000000  0.6508444  3
   4201   4200   4204   4216     1  0.0000000  0.6508444  3
   4201   4200   4207   4210     1  0.0000000  0.6508444  3
   4201   4213   4225   8297     1  0.0000000  0.6508444  3
   4204   4200   4201   4213     1  0.0000000  0.6508444  3
   4204   4200   4207   4210     1  0.0000000  0.6508444  3
   4204   4216   4222   8274     1  0.0000000  0.6508444  3
   4207   4200   4201   4213     1  0.0000000  0.6508444  3
   4207   4200   4204   4216     1  0.0000000  0.6508444  3
   4207   4210   4219   4228     1  0.0000000  0.6508444  3
   4213   4225   8297   8293     1  180.0000771  0.4184000  2
   4213   4225   8297   8293     1  0.0000000  1.6024720  3
   4216   4222   8274   8270     1  180.0000771  0.4184000  2
   4216   4222   8274   8270     1  0.0000000  1.6024720  3
   4222   8274   8270   8269     1  180.0000771  0.4184000  2
   4222   8274   8270   8269     1  0.0000000  1.6024720  3
   4222   8274   8270   8286     1  180.0000771  5.6484000  1
   4222   8274   8270   8286     1  180.0000771  3.5564000  2
   4222   8274   8270   8286     1  0.0000000  0.4184000  3
   4225   8297   8293   8309     1  180.0000771  5.6484000  1
   4225   8297   8293   8309     1  180.0000771  3.5564000  2
   4225   8297   8293   8309     1  0.0000000  0.4184000  3
   4225   8297   8293   8292     1  180.0000771  0.4184000  2
   4225   8297   8293   8292     1  0.0000000  1.6024720  3
   4230   4231   4243   4255     1  0.0000000  0.6508444  3
   4230   4234   4246   4252     1  0.0000000  0.6508444  3
   4230   4237   4240   4249     1  0.0000000  0.6508444  3
   4231   4230   4234   4246     1  0.0000000  0.6508444  3
   4231   4230   4237   4240     1  0.0000000  0.6508444  3
   4231   4243   4255   8343     1  0.0000000  0.6508444  3
   4234   4230   4231   4243     1  0.0000000  0.6508444  3
   4234   4230   4237   4240     1  0.0000000  0.6508444  3
   4234   4246   4252   8320     1  0.0000000  0.6508444  3
   4237   4230   4231   4243     1  0.0000000  0.6508444  3
   4237   4230   4234   4246     1  0.0000000  0.6508444  3
   4237   4240   4249   4258     1  0.0000000  0.6508444  3
   4243   4255   8343   8339     1  180.0000771  0.4184000  2
   4243   4255   8343   8339     1  0.0000000  1.6024720  3
   4246   4252   8320   8316     1  180.0000771  0.4184000  2
   4246   4252   8320   8316     1  0.0000000  1.6024720  3
   4252   8320   8316   8315     1  180.0000771  0.4184000  2
   4252   8320   8316   8315     1  0.0000000  1.6024720  3
   4252   8320   8316   8332     1  180.0000771  5.6484000  1
   4252   8320   8316   8332     1  180.0000771  3.5564000  2
   4252   8320   8316   8332     1  0.0000000  0.4184000  3
   4255   8343   8339   8355     1  180.0000771  5.6484000  1
   4255   8343   8339   8355     1  180.0000771  3.5564000  2
   4255   8343   8339   8355     1  0.0000000  0.4184000  3
   4255   8343   8339   8338     1  180.0000771  0.4184000  2
   4255   8343   8339   8338     1  0.0000000  1.6024720  3
   4260   4261   4273   4285     1  0.0000000  0.6508444  3
   4260   4264   4276   4282     1  0.0000000  0.6508444  3
   4260   4267   4270   4279     1  0.0000000  0.6508444  3
   4261   4260   4264   4276     1  0.0000000  0.6508444  3
   4261   4260   4267   4270     1  0.0000000  0.6508444  3
   4261   4273   4285   8389     1  0.0000000  0.6508444  3
   4264   4260   4261   4273     1  0.0000000  0.6508444  3
   4264   4260   4267   4270     1  0.0000000  0.6508444  3
   4264   4276   4282   8366     1  0.0000000  0.6508444  3
   4267   4260   4261   4273     1  0.0000000  0.6508444  3
   4267   4260   4264   4276     1  0.0000000  0.6508444  3
   4267   4270   4279   4288     1  0.0000000  0.6508444  3
   4273   4285   8389   8385     1  180.0000771  0.4184000  2
   4273   4285   8389   8385     1  0.0000000  1.6024720  3
   4276   4282   8366   8362     1  180.0000771  0.4184000  2
   4276   4282   8366   8362     1  0.0000000  1.6024720  3
   4282   8366   8362   8361     1  180.0000771  0.4184000  2
   4282   8366   8362   8361     1  0.0000000  1.6024720  3
   4282   8366   8362   8378     1  180.0000771  5.6484000  1
   4282   8366   8362   8378     1  180.0000771  3.5564000  2
   4282   8366   8362   8378     1  0.0000000  0.4184000  3
   4285   8389   8385   8401     1  180.0000771  5.6484000  1
   4285   8389   8385   8401     1  180.0000771  3.5564000  2
   4285   8389   8385   8401     1  0.0000000  0.4184000  3
   4285   8389   8385   8384     1  180.0000771  0.4184000  2
   4285   8389   8385   8384     1  0.0000000  1.6024720  3
   4290   4291   4303   4315     1  0.0000000  0.6508444  3
   4290   4294   4306   4312     1  0.0000000  0.6508444  3
   4290   4297   4300   4309     1  0.0000000  0.6508444  3
   4291   4290   4294   4306     1  0.0000000  0.6508444  3
   4291   4290   4297   4300     1  0.0000000  0.6508444  3
   4291   4303   4315   8435     1  0.0000000  0.6508444  3
   4294   4290   4291   4303     1  0.0000000  0.6508444  3
   4294   4290   4297   4300     1  0.0000000  0.6508444  3
   4294   4306   4312   8412     1  0.0000000  0.6508444  3
   4297   4290   4291   4303     1  0.0000000  0.6508444  3
   4297   4290   4294   4306     1  0.0000000  0.6508444  3
   4297   4300   4309   4318     1  0.0000000  0.6508444  3
   4303   4315   8435   8431     1  180.0000771  0.4184000  2
   4303   4315   8435   8431     1  0.0000000  1.6024720  3
   4306   4312   8412   8408     1  180.0000771  0.4184000  2
   4306   4312   8412   8408     1  0.0000000  1.6024720  3
   4312   8412   8408   8407     1  180.0000771  0.4184000  2
   4312   8412   8408   8407     1  0.0000000  1.6024720  3
   4312   8412   8408   8424     1  180.0000771  5.6484000  1
   4312   8412   8408   8424     1  180.0000771  3.5564000  2
   4312   8412   8408   8424     1  0.0000000  0.4184000  3
   4315   8435   8431   8447     1  180.0000771  5.6484000  1
   4315   8435   8431   8447     1  180.0000771  3.5564000  2
   4315   8435   8431   8447     1  0.0000000  0.4184000  3
   4315   8435   8431   8430     1  180.0000771  0.4184000  2
   4315   8435   8431   8430     1  0.0000000  1.6024720  3
   4320   4321   4333   4345     1  0.0000000  0.6508444  3
   4320   4324   4336   4342     1  0.0000000  0.6508444  3
   4320   4327   4330   4339     1  0.0000000  0.6508444  3
   4321   4320   4324   4336     1  0.0000000  0.6508444  3
   4321   4320   4327   4330     1  0.0000000  0.6508444  3
   4321   4333   4345   8481     1  0.0000000  0.6508444  3
   4324   4320   4321   4333     1  0.0000000  0.6508444  3
   4324   4320   4327   4330     1  0.0000000  0.6508444  3
   4324   4336   4342   8458     1  0.0000000  0.6508444  3
   4327   4320   4321   4333     1  0.0000000  0.6508444  3
   4327   4320   4324   4336     1  0.0000000  0.6508444  3
   4327   4330   4339   4348     1  0.0000000  0.6508444  3
   4333   4345   8481   8477     1  180.0000771  0.4184000  2
   4333   4345   8481   8477     1  0.0000000  1.6024720  3
   4336   4342   8458   8454     1  180.0000771  0.4184000  2
   4336   4342   8458   8454     1  0.0000000  1.6024720  3
   4342   8458   8454   8453     1  180.0000771  0.4184000  2
   4342   8458   8454   8453     1  0.0000000  1.6024720  3
   4342   8458   8454   8470     1  180.0000771  5.6484000  1
   4342   8458   8454   8470     1  180.0000771  3.5564000  2
   4342   8458   8454   8470     1  0.0000000  0.4184000  3
   4345   8481   8477   8493     1  180.0000771  5.6484000  1
   4345   8481   8477   8493     1  180.0000771  3.5564000  2
   4345   8481   8477   8493     1  0.0000000  0.4184000  3
   4345   8481   8477   8476     1  180.0000771  0.4184000  2
   4345   8481   8477   8476     1  0.0000000  1.6024720  3
   4350   4351   4363   4375     1  0.0000000  0.6508444  3
   4350   4354   4366   4372     1  0.0000000  0.6508444  3
   4350   4357   4360   4369     1  0.0000000  0.6508444  3
   4351   4350   4354   4366     1  0.0000000  0.6508444  3
   4351   4350   4357   4360     1  0.0000000  0.6508444  3
   4351   4363   4375   8527     1  0.0000000  0.6508444  3
   4354   4350   4351   4363     1  0.0000000  0.6508444  3
   4354   4350   4357   4360     1  0.0000000  0.6508444  3
   4354   4366   4372   8504     1  0.0000000  0.6508444  3
   4357   4350   4351   4363     1  0.0000000  0.6508444  3
   4357   4350   4354   4366     1  0.0000000  0.6508444  3
   4357   4360   4369   4378     1  0.0000000  0.6508444  3
   4363   4375   8527   8523     1  180.0000771  0.4184000  2
   4363   4375   8527   8523     1  0.0000000  1.6024720  3
   4366   4372   8504   8500     1  180.0000771  0.4184000  2
   4366   4372   8504   8500     1  0.0000000  1.6024720  3
   4372   8504   8500   8499     1  180.0000771  0.4184000  2
   4372   8504   8500   8499     1  0.0000000  1.6024720  3
   4372   8504   8500   8516     1  180.0000771  5.6484000  1
   4372   8504   8500   8516     1  180.0000771  3.5564000  2
   4372   8504   8500   8516     1  0.0000000  0.4184000  3
   4375   8527   8523   8539     1  180.0000771  5.6484000  1
   4375   8527   8523   8539     1  180.0000771  3.5564000  2
   4375   8527   8523   8539     1  0.0000000  0.4184000  3
   4375   8527   8523   8522     1  180.0000771  0.4184000  2
   4375   8527   8523   8522     1  0.0000000  1.6024720  3
   4380   4381   4393   4405     1  0.0000000  0.6508444  3
   4380   4384   4396   4402     1  0.0000000  0.6508444  3
   4380   4387   4390   4399     1  0.0000000  0.6508444  3
   4381   4380   4384   4396     1  0.0000000  0.6508444  3
   4381   4380   4387   4390     1  0.0000000  0.6508444  3
   4381   4393   4405   8573     1  0.0000000  0.6508444  3
   4384   4380   4381   4393     1  0.0000000  0.6508444  3
   4384   4380   4387   4390     1  0.0000000  0.6508444  3
   4384   4396   4402   8550     1  0.0000000  0.6508444  3
   4387   4380   4381   4393     1  0.0000000  0.6508444  3
   4387   4380   4384   4396     1  0.0000000  0.6508444  3
   4387   4390   4399   4408     1  0.0000000  0.6508444  3
   4393   4405   8573   8569     1  180.0000771  0.4184000  2
   4393   4405   8573   8569     1  0.0000000  1.6024720  3
   4396   4402   8550   8546     1  180.0000771  0.4184000  2
   4396   4402   8550   8546     1  0.0000000  1.6024720  3
   4402   8550   8546   8545     1  180.0000771  0.4184000  2
   4402   8550   8546   8545     1  0.0000000  1.6024720  3
   4402   8550   8546   8562     1  180.0000771  5.6484000  1
   4402   8550   8546   8562     1  180.0000771  3.5564000  2
   4402   8550   8546   8562     1  0.0000000  0.4184000  3
   4405   8573   8569   8585     1  180.0000771  5.6484000  1
   4405   8573   8569   8585     1  180.0000771  3.5564000  2
   4405   8573   8569   8585     1  0.0000000  0.4184000  3
   4405   8573   8569   8568     1  180.0000771  0.4184000  2
   4405   8573   8569   8568     1  0.0000000  1.6024720  3
   4410   4411   4423   4435     1  0.0000000  0.6508444  3
   4410   4414   4426   4432     1  0.0000000  0.6508444  3
   4410   4417   4420   4429     1  0.0000000  0.6508444  3
   4411   4410   4414   4426     1  0.0000000  0.6508444  3
   4411   4410   4417   4420     1  0.0000000  0.6508444  3
   4411   4423   4435   8619     1  0.0000000  0.6508444  3
   4414   4410   4411   4423     1  0.0000000  0.6508444  3
   4414   4410   4417   4420     1  0.0000000  0.6508444  3
   4414   4426   4432   8596     1  0.0000000  0.6508444  3
   4417   4410   4411   4423     1  0.0000000  0.6508444  3
   4417   4410   4414   4426     1  0.0000000  0.6508444  3
   4417   4420   4429   4438     1  0.0000000  0.6508444  3
   4423   4435   8619   8615     1  180.0000771  0.4184000  2
   4423   4435   8619   8615     1  0.0000000  1.6024720  3
   4426   4432   8596   8592     1  180.0000771  0.4184000  2
   4426   4432   8596   8592     1  0.0000000  1.6024720  3
   4432   8596   8592   8591     1  180.0000771  0.4184000  2
   4432   8596   8592   8591     1  0.0000000  1.6024720  3
   4432   8596   8592   8608     1  180.0000771  5.6484000  1
   4432   8596   8592   8608     1  180.0000771  3.5564000  2
   4432   8596   8592   8608     1  0.0000000  0.4184000  3
   4435   8619   8615   8631     1  180.0000771  5.6484000  1
   4435   8619   8615   8631     1  180.0000771  3.5564000  2
   4435   8619   8615   8631     1  0.0000000  0.4184000  3
   4435   8619   8615   8614     1  180.0000771  0.4184000  2
   4435   8619   8615   8614     1  0.0000000  1.6024720  3
   4440   4441   4453   4465     1  0.0000000  0.6508444  3
   4440   4444   4456   4462     1  0.0000000  0.6508444  3
   4440   4447   4450   4459     1  0.0000000  0.6508444  3
   4441   4440   4444   4456     1  0.0000000  0.6508444  3
   4441   4440   4447   4450     1  0.0000000  0.6508444  3
   4441   4453   4465   8665     1  0.0000000  0.6508444  3
   4444   4440   4441   4453     1  0.0000000  0.6508444  3
   4444   4440   4447   4450     1  0.0000000  0.6508444  3
   4444   4456   4462   8642     1  0.0000000  0.6508444  3
   4447   4440   4441   4453     1  0.0000000  0.6508444  3
   4447   4440   4444   4456     1  0.0000000  0.6508444  3
   4447   4450   4459   4468     1  0.0000000  0.6508444  3
   4453   4465   8665   8661     1  180.0000771  0.4184000  2
   4453   4465   8665   8661     1  0.0000000  1.6024720  3
   4456   4462   8642   8638     1  180.0000771  0.4184000  2
   4456   4462   8642   8638     1  0.0000000  1.6024720  3
   4462   8642   8638   8637     1  180.0000771  0.4184000  2
   4462   8642   8638   8637     1  0.0000000  1.6024720  3
   4462   8642   8638   8654     1  180.0000771  5.6484000  1
   4462   8642   8638   8654     1  180.0000771  3.5564000  2
   4462   8642   8638   8654     1  0.0000000  0.4184000  3
   4465   8665   8661   8677     1  180.0000771  5.6484000  1
   4465   8665   8661   8677     1  180.0000771  3.5564000  2
   4465   8665   8661   8677     1  0.0000000  0.4184000  3
   4465   8665   8661   8660     1  180.0000771  0.4184000  2
   4465   8665   8661   8660     1  0.0000000  1.6024720  3
   4470   4471   4483   4495     1  0.0000000  0.6508444  3
   4470   4474   4486   4492     1  0.0000000  0.6508444  3
   4470   4477   4480   4489     1  0.0000000  0.6508444  3
   4471   4470   4474   4486     1  0.0000000  0.6508444  3
   4471   4470   4477   4480     1  0.0000000  0.6508444  3
   4471   4483   4495   8711     1  0.0000000  0.6508444  3
   4474   4470   4471   4483     1  0.0000000  0.6508444  3
   4474   4470   4477   4480     1  0.0000000  0.6508444  3
   4474   4486   4492   8688     1  0.0000000  0.6508444  3
   4477   4470   4471   4483     1  0.0000000  0.6508444  3
   4477   4470   4474   4486     1  0.0000000  0.6508444  3
   4477   4480   4489   4498     1  0.0000000  0.6508444  3
   4483   4495   8711   8707     1  180.0000771  0.4184000  2
   4483   4495   8711   8707     1  0.0000000  1.6024720  3
   4486   4492   8688   8684     1  180.0000771  0.4184000  2
   4486   4492   8688   8684     1  0.0000000  1.6024720  3
   4492   8688   8684   8683     1  180.0000771  0.4184000  2
   4492   8688   8684   8683     1  0.0000000  1.6024720  3
   4492   8688   8684   8700     1  180.0000771  5.6484000  1
   4492   8688   8684   8700     1  180.0000771  3.5564000  2
   4492   8688   8684   8700     1  0.0000000  0.4184000  3
   4495   8711   8707   8723     1  180.0000771  5.6484000  1
   4495   8711   8707   8723     1  180.0000771  3.5564000  2
   4495   8711   8707   8723     1  0.0000000  0.4184000  3
   4495   8711   8707   8706     1  180.0000771  0.4184000  2
   4495   8711   8707   8706     1  0.0000000  1.6024720  3
   4500   4501   4513   4525     1  0.0000000  0.6508444  3
   4500   4504   4516   4522     1  0.0000000  0.6508444  3
   4500   4507   4510   4519     1  0.0000000  0.6508444  3
   4501   4500   4504   4516     1  0.0000000  0.6508444  3
   4501   4500   4507   4510     1  0.0000000  0.6508444  3
   4501   4513   4525   8757     1  0.0000000  0.6508444  3
   4504   4500   4501   4513     1  0.0000000  0.6508444  3
   4504   4500   4507   4510     1  0.0000000  0.6508444  3
   4504   4516   4522   8734     1  0.0000000  0.6508444  3
   4507   4500   4501   4513     1  0.0000000  0.6508444  3
   4507   4500   4504   4516     1  0.0000000  0.6508444  3
   4507   4510   4519   4528     1  0.0000000  0.6508444  3
   4513   4525   8757   8753     1  180.0000771  0.4184000  2
   4513   4525   8757   8753     1  0.0000000  1.6024720  3
   4516   4522   8734   8730     1  180.0000771  0.4184000  2
   4516   4522   8734   8730     1  0.0000000  1.6024720  3
   4522   8734   8730   8729     1  180.0000771  0.4184000  2
   4522   8734   8730   8729     1  0.0000000  1.6024720  3
   4522   8734   8730   8746     1  180.0000771  5.6484000  1
   4522   8734   8730   8746     1  180.0000771  3.5564000  2
   4522   8734   8730   8746     1  0.0000000  0.4184000  3
   4525   8757   8753   8769     1  180.0000771  5.6484000  1
   4525   8757   8753   8769     1  180.0000771  3.5564000  2
   4525   8757   8753   8769     1  0.0000000  0.4184000  3
   4525   8757   8753   8752     1  180.0000771  0.4184000  2
   4525   8757   8753   8752     1  0.0000000  1.6024720  3
   4530   4531   4543   4555     1  0.0000000  0.6508444  3
   4530   4534   4546   4552     1  0.0000000  0.6508444  3
   4530   4537   4540   4549     1  0.0000000  0.6508444  3
   4531   4530   4534   4546     1  0.0000000  0.6508444  3
   4531   4530   4537   4540     1  0.0000000  0.6508444  3
   4531   4543   4555   8803     1  0.0000000  0.6508444  3
   4534   4530   4531   4543     1  0.0000000  0.6508444  3
   4534   4530   4537   4540     1  0.0000000  0.6508444  3
   4534   4546   4552   8780     1  0.0000000  0.6508444  3
   4537   4530   4531   4543     1  0.0000000  0.6508444  3
   4537   4530   4534   4546     1  0.0000000  0.6508444  3
   4537   4540   4549   4558     1  0.0000000  0.6508444  3
   4543   4555   8803   8799     1  180.0000771  0.4184000  2
   4543   4555   8803   8799     1  0.0000000  1.6024720  3
   4546   4552   8780   8776     1  180.0000771  0.4184000  2
   4546   4552   8780   8776     1  0.0000000  1.6024720  3
   4552   8780   8776   8775     1  180.0000771  0.4184000  2
   4552   8780   8776   8775     1  0.0000000  1.6024720  3
   4552   8780   8776   8792     1  180.0000771  5.6484000  1
   4552   8780   8776   8792     1  180.0000771  3.5564000  2
   4552   8780   8776   8792     1  0.0000000  0.4184000  3
   4555   8803   8799   8815     1  180.0000771  5.6484000  1
   4555   8803   8799   8815     1  180.0000771  3.5564000  2
   4555   8803   8799   8815     1  0.0000000  0.4184000  3
   4555   8803   8799   8798     1  180.0000771  0.4184000  2
   4555   8803   8799   8798     1  0.0000000  1.6024720  3
   4560   4561   4573   4585     1  0.0000000  0.6508444  3
   4560   4564   4576   4582     1  0.0000000  0.6508444  3
   4560   4567   4570   4579     1  0.0000000  0.6508444  3
   4561   4560   4564   4576     1  0.0000000  0.6508444  3
   4561   4560   4567   4570     1  0.0000000  0.6508444  3
   4561   4573   4585   8849     1  0.0000000  0.6508444  3
   4564   4560   4561   4573     1  0.0000000  0.6508444  3
   4564   4560   4567   4570     1  0.0000000  0.6508444  3
   4564   4576   4582   8826     1  0.0000000  0.6508444  3
   4567   4560   4561   4573     1  0.0000000  0.6508444  3
   4567   4560   4564   4576     1  0.0000000  0.6508444  3
   4567   4570   4579   4588     1  0.0000000  0.6508444  3
   4573   4585   8849   8845     1  180.0000771  0.4184000  2
   4573   4585   8849   8845     1  0.0000000  1.6024720  3
   4576   4582   8826   8822     1  180.0000771  0.4184000  2
   4576   4582   8826   8822     1  0.0000000  1.6024720  3
   4582   8826   8822   8821     1  180.0000771  0.4184000  2
   4582   8826   8822   8821     1  0.0000000  1.6024720  3
   4582   8826   8822   8838     1  180.0000771  5.6484000  1
   4582   8826   8822   8838     1  180.0000771  3.5564000  2
   4582   8826   8822   8838     1  0.0000000  0.4184000  3
   4585   8849   8845   8861     1  180.0000771  5.6484000  1
   4585   8849   8845   8861     1  180.0000771  3.5564000  2
   4585   8849   8845   8861     1  0.0000000  0.4184000  3
   4585   8849   8845   8844     1  180.0000771  0.4184000  2
   4585   8849   8845   8844     1  0.0000000  1.6024720  3
   4590   4591   4603   4615     1  0.0000000  0.6508444  3
   4590   4594   4606   4612     1  0.0000000  0.6508444  3
   4590   4597   4600   4609     1  0.0000000  0.6508444  3
   4591   4590   4594   4606     1  0.0000000  0.6508444  3
   4591   4590   4597   4600     1  0.0000000  0.6508444  3
   4591   4603   4615   8895     1  0.0000000  0.6508444  3
   4594   4590   4591   4603     1  0.0000000  0.6508444  3
   4594   4590   4597   4600     1  0.0000000  0.6508444  3
   4594   4606   4612   8872     1  0.0000000  0.6508444  3
   4597   4590   4591   4603     1  0.0000000  0.6508444  3
   4597   4590   4594   4606     1  0.0000000  0.6508444  3
   4597   4600   4609   4618     1  0.0000000  0.6508444  3
   4603   4615   8895   8891     1  180.0000771  0.4184000  2
   4603   4615   8895   8891     1  0.0000000  1.6024720  3
   4606   4612   8872   8868     1  180.0000771  0.4184000  2
   4606   4612   8872   8868     1  0.0000000  1.6024720  3
   4612   8872   8868   8867     1  180.0000771  0.4184000  2
   4612   8872   8868   8867     1  0.0000000  1.6024720  3
   4612   8872   8868   8884     1  180.0000771  5.6484000  1
   4612   8872   8868   8884     1  180.0000771  3.5564000  2
   4612   8872   8868   8884     1  0.0000000  0.4184000  3
   4615   8895   8891   8907     1  180.0000771  5.6484000  1
   4615   8895   8891   8907     1  180.0000771  3.5564000  2
   4615   8895   8891   8907     1  0.0000000  0.4184000  3
   4615   8895   8891   8890     1  180.0000771  0.4184000  2
   4615   8895   8891   8890     1  0.0000000  1.6024720  3
   4620   4621   4633   4645     1  0.0000000  0.6508444  3
   4620   4624   4636   4642     1  0.0000000  0.6508444  3
   4620   4627   4630   4639     1  0.0000000  0.6508444  3
   4621   4620   4624   4636     1  0.0000000  0.6508444  3
   4621   4620   4627   4630     1  0.0000000  0.6508444  3
   4621   4633   4645   8941     1  0.0000000  0.6508444  3
   4624   4620   4621   4633     1  0.0000000  0.6508444  3
   4624   4620   4627   4630     1  0.0000000  0.6508444  3
   4624   4636   4642   8918     1  0.0000000  0.6508444  3
   4627   4620   4621   4633     1  0.0000000  0.6508444  3
   4627   4620   4624   4636     1  0.0000000  0.6508444  3
   4627   4630   4639   4648     1  0.0000000  0.6508444  3
   4633   4645   8941   8937     1  180.0000771  0.4184000  2
   4633   4645   8941   8937     1  0.0000000  1.6024720  3
   4636   4642   8918   8914     1  180.0000771  0.4184000  2
   4636   4642   8918   8914     1  0.0000000  1.6024720  3
   4642   8918   8914   8913     1  180.0000771  0.4184000  2
   4642   8918   8914   8913     1  0.0000000  1.6024720  3
   4642   8918   8914   8930     1  180.0000771  5.6484000  1
   4642   8918   8914   8930     1  180.0000771  3.5564000  2
   4642   8918   8914   8930     1  0.0000000  0.4184000  3
   4645   8941   8937   8953     1  180.0000771  5.6484000  1
   4645   8941   8937   8953     1  180.0000771  3.5564000  2
   4645   8941   8937   8953     1  0.0000000  0.4184000  3
   4645   8941   8937   8936     1  180.0000771  0.4184000  2
   4645   8941   8937   8936     1  0.0000000  1.6024720  3
   4650   4651   4663   4675     1  0.0000000  0.6508444  3
   4650   4654   4666   4672     1  0.0000000  0.6508444  3
   4650   4657   4660   4669     1  0.0000000  0.6508444  3
   4651   4650   4654   4666     1  0.0000000  0.6508444  3
   4651   4650   4657   4660     1  0.0000000  0.6508444  3
   4651   4663   4675   8987     1  0.0000000  0.6508444  3
   4654   4650   4651   4663     1  0.0000000  0.6508444  3
   4654   4650   4657   4660     1  0.0000000  0.6508444  3
   4654   4666   4672   8964     1  0.0000000  0.6508444  3
   4657   4650   4651   4663     1  0.0000000  0.6508444  3
   4657   4650   4654   4666     1  0.0000000  0.6508444  3
   4657   4660   4669   4678     1  0.0000000  0.6508444  3
   4663   4675   8987   8983     1  180.0000771  0.4184000  2
   4663   4675   8987   8983     1  0.0000000  1.6024720  3
   4666   4672   8964   8960     1  180.0000771  0.4184000  2
   4666   4672   8964   8960     1  0.0000000  1.6024720  3
   4672   8964   8960   8959     1  180.0000771  0.4184000  2
   4672   8964   8960   8959     1  0.0000000  1.6024720  3
   4672   8964   8960   8976     1  180.0000771  5.6484000  1
   4672   8964   8960   8976     1  180.0000771  3.5564000  2
   4672   8964   8960   8976     1  0.0000000  0.4184000  3
   4675   8987   8983   8999     1  180.0000771  5.6484000  1
   4675   8987   8983   8999     1  180.0000771  3.5564000  2
   4675   8987   8983   8999     1  0.0000000  0.4184000  3
   4675   8987   8983   8982     1  180.0000771  0.4184000  2
   4675   8987   8983   8982     1  0.0000000  1.6024720  3
   4680   4681   4693   4705     1  0.0000000  0.6508444  3
   4680   4684   4696   4702     1  0.0000000  0.6508444  3
   4680   4687   4690   4699     1  0.0000000  0.6508444  3
   4681   4680   4684   4696     1  0.0000000  0.6508444  3
   4681   4680   4687   4690     1  0.0000000  0.6508444  3
   4681   4693   4705   9033     1  0.0000000  0.6508444  3
   4684   4680   4681   4693     1  0.0000000  0.6508444  3
   4684   4680   4687   4690     1  0.0000000  0.6508444  3
   4684   4696   4702   9010     1  0.0000000  0.6508444  3
   4687   4680   4681   4693     1  0.0000000  0.6508444  3
   4687   4680   4684   4696     1  0.0000000  0.6508444  3
   4687   4690   4699   4708     1  0.0000000  0.6508444  3
   4693   4705   9033   9029     1  180.0000771  0.4184000  2
   4693   4705   9033   9029     1  0.0000000  1.6024720  3
   4696   4702   9010   9006     1  180.0000771  0.4184000  2
   4696   4702   9010   9006     1  0.0000000  1.6024720  3
   4702   9010   9006   9005     1  180.0000771  0.4184000  2
   4702   9010   9006   9005     1  0.0000000  1.6024720  3
   4702   9010   9006   9022     1  180.0000771  5.6484000  1
   4702   9010   9006   9022     1  180.0000771  3.5564000  2
   4702   9010   9006   9022     1  0.0000000  0.4184000  3
   4705   9033   9029   9045     1  180.0000771  5.6484000  1
   4705   9033   9029   9045     1  180.0000771  3.5564000  2
   4705   9033   9029   9045     1  0.0000000  0.4184000  3
   4705   9033   9029   9028     1  180.0000771  0.4184000  2
   4705   9033   9029   9028     1  0.0000000  1.6024720  3
   4710   4711   4723   4735     1  0.0000000  0.6508444  3
   4710   4714   4726   4732     1  0.0000000  0.6508444  3
   4710   4717   4720   4729     1  0.0000000  0.6508444  3
   4711   4710   4714   4726     1  0.0000000  0.6508444  3
   4711   4710   4717   4720     1  0.0000000  0.6508444  3
   4711   4723   4735   9079     1  0.0000000  0.6508444  3
   4714   4710   4711   4723     1  0.0000000  0.6508444  3
   4714   4710   4717   4720     1  0.0000000  0.6508444  3
   4714   4726   4732   9056     1  0.0000000  0.6508444  3
   4717   4710   4711   4723     1  0.0000000  0.6508444  3
   4717   4710   4714   4726     1  0.0000000  0.6508444  3
   4717   4720   4729   4738     1  0.0000000  0.6508444  3
   4723   4735   9079   9075     1  180.0000771  0.4184000  2
   4723   4735   9079   9075     1  0.0000000  1.6024720  3
   4726   4732   9056   9052     1  180.0000771  0.4184000  2
   4726   4732   9056   9052     1  0.0000000  1.6024720  3
   4732   9056   9052   9051     1  180.0000771  0.4184000  2
   4732   9056   9052   9051     1  0.0000000  1.6024720  3
   4732   9056   9052   9068     1  180.0000771  5.6484000  1
   4732   9056   9052   9068     1  180.0000771  3.5564000  2
   4732   9056   9052   9068     1  0.0000000  0.4184000  3
   4735   9079   9075   9091     1  180.0000771  5.6484000  1
   4735   9079   9075   9091     1  180.0000771  3.5564000  2
   4735   9079   9075   9091     1  0.0000000  0.4184000  3
   4735   9079   9075   9074     1  180.0000771  0.4184000  2
   4735   9079   9075   9074     1  0.0000000  1.6024720  3
   4740   4741   4753   4765     1  0.0000000  0.6508444  3
   4740   4744   4756   4762     1  0.0000000  0.6508444  3
   4740   4747   4750   4759     1  0.0000000  0.6508444  3
   4741   4740   4744   4756     1  0.0000000  0.6508444  3
   4741   4740   4747   4750     1  0.0000000  0.6508444  3
   4741   4753   4765   9125     1  0.0000000  0.6508444  3
   4744   4740   4741   4753     1  0.0000000  0.6508444  3
   4744   4740   4747   4750     1  0.0000000  0.6508444  3
   4744   4756   4762   9102     1  0.0000000  0.6508444  3
   4747   4740   4741   4753     1  0.0000000  0.6508444  3
   4747   4740   4744   4756     1  0.0000000  0.6508444  3
   4747   4750   4759   4768     1  0.0000000  0.6508444  3
   4753   4765   9125   9121     1  180.0000771  0.4184000  2
   4753   4765   9125   9121     1  0.0000000  1.6024720  3
   4756   4762   9102   9098     1  180.0000771  0.4184000  2
   4756   4762   9102   9098     1  0.0000000  1.6024720  3
   4762   9102   9098   9097     1  180.0000771  0.4184000  2
   4762   9102   9098   9097     1  0.0000000  1.6024720  3
   4762   9102   9098   9114     1  180.0000771  5.6484000  1
   4762   9102   9098   9114     1  180.0000771  3.5564000  2
   4762   9102   9098   9114     1  0.0000000  0.4184000  3
   4765   9125   9121   9137     1  180.0000771  5.6484000  1
   4765   9125   9121   9137     1  180.0000771  3.5564000  2
   4765   9125   9121   9137     1  0.0000000  0.4184000  3
   4765   9125   9121   9120     1  180.0000771  0.4184000  2
   4765   9125   9121   9120     1  0.0000000  1.6024720  3
   4770   4771   4783   4795     1  0.0000000  0.6508444  3
   4770   4774   4786   4792     1  0.0000000  0.6508444  3
   4770   4777   4780   4789     1  0.0000000  0.6508444  3
   4771   4770   4774   4786     1  0.0000000  0.6508444  3
   4771   4770   4777   4780     1  0.0000000  0.6508444  3
   4771   4783   4795   9171     1  0.0000000  0.6508444  3
   4774   4770   4771   4783     1  0.0000000  0.6508444  3
   4774   4770   4777   4780     1  0.0000000  0.6508444  3
   4774   4786   4792   9148     1  0.0000000  0.6508444  3
   4777   4770   4771   4783     1  0.0000000  0.6508444  3
   4777   4770   4774   4786     1  0.0000000  0.6508444  3
   4777   4780   4789   4798     1  0.0000000  0.6508444  3
   4783   4795   9171   9167     1  180.0000771  0.4184000  2
   4783   4795   9171   9167     1  0.0000000  1.6024720  3
   4786   4792   9148   9144     1  180.0000771  0.4184000  2
   4786   4792   9148   9144     1  0.0000000  1.6024720  3
   4792   9148   9144   9143     1  180.0000771  0.4184000  2
   4792   9148   9144   9143     1  0.0000000  1.6024720  3
   4792   9148   9144   9160     1  180.0000771  5.6484000  1
   4792   9148   9144   9160     1  180.0000771  3.5564000  2
   4792   9148   9144   9160     1  0.0000000  0.4184000  3
   4795   9171   9167   9183     1  180.0000771  5.6484000  1
   4795   9171   9167   9183     1  180.0000771  3.5564000  2
   4795   9171   9167   9183     1  0.0000000  0.4184000  3
   4795   9171   9167   9166     1  180.0000771  0.4184000  2
   4795   9171   9167   9166     1  0.0000000  1.6024720  3
   4800   4801   4813   4825     1  0.0000000  0.6508444  3
   4800   4804   4816   4822     1  0.0000000  0.6508444  3
   4800   4807   4810   4819     1  0.0000000  0.6508444  3
   4801   4800   4804   4816     1  0.0000000  0.6508444  3
   4801   4800   4807   4810     1  0.0000000  0.6508444  3
   4801   4813   4825   9217     1  0.0000000  0.6508444  3
   4804   4800   4801   4813     1  0.0000000  0.6508444  3
   4804   4800   4807   4810     1  0.0000000  0.6508444  3
   4804   4816   4822   9194     1  0.0000000  0.6508444  3
   4807   4800   4801   4813     1  0.0000000  0.6508444  3
   4807   4800   4804   4816     1  0.0000000  0.6508444  3
   4807   4810   4819   4828     1  0.0000000  0.6508444  3
   4813   4825   9217   9213     1  180.0000771  0.4184000  2
   4813   4825   9217   9213     1  0.0000000  1.6024720  3
   4816   4822   9194   9190     1  180.0000771  0.4184000  2
   4816   4822   9194   9190     1  0.0000000  1.6024720  3
   4822   9194   9190   9189     1  180.0000771  0.4184000  2
   4822   9194   9190   9189     1  0.0000000  1.6024720  3
   4822   9194   9190   9206     1  180.0000771  5.6484000  1
   4822   9194   9190   9206     1  180.0000771  3.5564000  2
   4822   9194   9190   9206     1  0.0000000  0.4184000  3
   4825   9217   9213   9229     1  180.0000771  5.6484000  1
   4825   9217   9213   9229     1  180.0000771  3.5564000  2
   4825   9217   9213   9229     1  0.0000000  0.4184000  3
   4825   9217   9213   9212     1  180.0000771  0.4184000  2
   4825   9217   9213   9212     1  0.0000000  1.6024720  3
   4830   4831   4843   4855     1  0.0000000  0.6508444  3
   4830   4834   4846   4852     1  0.0000000  0.6508444  3
   4830   4837   4840   4849     1  0.0000000  0.6508444  3
   4831   4830   4834   4846     1  0.0000000  0.6508444  3
   4831   4830   4837   4840     1  0.0000000  0.6508444  3
   4831   4843   4855   9263     1  0.0000000  0.6508444  3
   4834   4830   4831   4843     1  0.0000000  0.6508444  3
   4834   4830   4837   4840     1  0.0000000  0.6508444  3
   4834   4846   4852   9240     1  0.0000000  0.6508444  3
   4837   4830   4831   4843     1  0.0000000  0.6508444  3
   4837   4830   4834   4846     1  0.0000000  0.6508444  3
   4837   4840   4849   4858     1  0.0000000  0.6508444  3
   4843   4855   9263   9259     1  180.0000771  0.4184000  2
   4843   4855   9263   9259     1  0.0000000  1.6024720  3
   4846   4852   9240   9236     1  180.0000771  0.4184000  2
   4846   4852   9240   9236     1  0.0000000  1.6024720  3
   4852   9240   9236   9235     1  180.0000771  0.4184000  2
   4852   9240   9236   9235     1  0.0000000  1.6024720  3
   4852   9240   9236   9252     1  180.0000771  5.6484000  1
   4852   9240   9236   9252     1  180.0000771  3.5564000  2
   4852   9240   9236   9252     1  0.0000000  0.4184000  3
   4855   9263   9259   9275     1  180.0000771  5.6484000  1
   4855   9263   9259   9275     1  180.0000771  3.5564000  2
   4855   9263   9259   9275     1  0.0000000  0.4184000  3
   4855   9263   9259   9258     1  180.0000771  0.4184000  2
   4855   9263   9259   9258     1  0.0000000  1.6024720  3
   4860   4861   4873   4885     1  0.0000000  0.6508444  3
   4860   4864   4876   4882     1  0.0000000  0.6508444  3
   4860   4867   4870   4879     1  0.0000000  0.6508444  3
   4861   4860   4864   4876     1  0.0000000  0.6508444  3
   4861   4860   4867   4870     1  0.0000000  0.6508444  3
   4861   4873   4885   9309     1  0.0000000  0.6508444  3
   4864   4860   4861   4873     1  0.0000000  0.6508444  3
   4864   4860   4867   4870     1  0.0000000  0.6508444  3
   4864   4876   4882   9286     1  0.0000000  0.6508444  3
   4867   4860   4861   4873     1  0.0000000  0.6508444  3
   4867   4860   4864   4876     1  0.0000000  0.6508444  3
   4867   4870   4879   4888     1  0.0000000  0.6508444  3
   4873   4885   9309   9305     1  180.0000771  0.4184000  2
   4873   4885   9309   9305     1  0.0000000  1.6024720  3
   4876   4882   9286   9282     1  180.0000771  0.4184000  2
   4876   4882   9286   9282     1  0.0000000  1.6024720  3
   4882   9286   9282   9281     1  180.0000771  0.4184000  2
   4882   9286   9282   9281     1  0.0000000  1.6024720  3
   4882   9286   9282   9298     1  180.0000771  5.6484000  1
   4882   9286   9282   9298     1  180.0000771  3.5564000  2
   4882   9286   9282   9298     1  0.0000000  0.4184000  3
   4885   9309   9305   9321     1  180.0000771  5.6484000  1
   4885   9309   9305   9321     1  180.0000771  3.5564000  2
   4885   9309   9305   9321     1  0.0000000  0.4184000  3
   4885   9309   9305   9304     1  180.0000771  0.4184000  2
   4885   9309   9305   9304     1  0.0000000  1.6024720  3
   4890   4891   4903   4915     1  0.0000000  0.6508444  3
   4890   4894   4906   4912     1  0.0000000  0.6508444  3
   4890   4897   4900   4909     1  0.0000000  0.6508444  3
   4891   4890   4894   4906     1  0.0000000  0.6508444  3
   4891   4890   4897   4900     1  0.0000000  0.6508444  3
   4891   4903   4915   9355     1  0.0000000  0.6508444  3
   4894   4890   4891   4903     1  0.0000000  0.6508444  3
   4894   4890   4897   4900     1  0.0000000  0.6508444  3
   4894   4906   4912   9332     1  0.0000000  0.6508444  3
   4897   4890   4891   4903     1  0.0000000  0.6508444  3
   4897   4890   4894   4906     1  0.0000000  0.6508444  3
   4897   4900   4909   4918     1  0.0000000  0.6508444  3
   4903   4915   9355   9351     1  180.0000771  0.4184000  2
   4903   4915   9355   9351     1  0.0000000  1.6024720  3
   4906   4912   9332   9328     1  180.0000771  0.4184000  2
   4906   4912   9332   9328     1  0.0000000  1.6024720  3
   4912   9332   9328   9327     1  180.0000771  0.4184000  2
   4912   9332   9328   9327     1  0.0000000  1.6024720  3
   4912   9332   9328   9344     1  180.0000771  5.6484000  1
   4912   9332   9328   9344     1  180.0000771  3.5564000  2
   4912   9332   9328   9344     1  0.0000000  0.4184000  3
   4915   9355   9351   9367     1  180.0000771  5.6484000  1
   4915   9355   9351   9367     1  180.0000771  3.5564000  2
   4915   9355   9351   9367     1  0.0000000  0.4184000  3
   4915   9355   9351   9350     1  180.0000771  0.4184000  2
   4915   9355   9351   9350     1  0.0000000  1.6024720  3
   4920   4921   4933   4945     1  0.0000000  0.6508444  3
   4920   4924   4936   4942     1  0.0000000  0.6508444  3
   4920   4927   4930   4939     1  0.0000000  0.6508444  3
   4921   4920   4924   4936     1  0.0000000  0.6508444  3
   4921   4920   4927   4930     1  0.0000000  0.6508444  3
   4921   4933   4945   9401     1  0.0000000  0.6508444  3
   4924   4920   4921   4933     1  0.0000000  0.6508444  3
   4924   4920   4927   4930     1  0.0000000  0.6508444  3
   4924   4936   4942   9378     1  0.0000000  0.6508444  3
   4927   4920   4921   4933     1  0.0000000  0.6508444  3
   4927   4920   4924   4936     1  0.0000000  0.6508444  3
   4927   4930   4939   4948     1  0.0000000  0.6508444  3
   4933   4945   9401   9397     1  180.0000771  0.4184000  2
   4933   4945   9401   9397     1  0.0000000  1.6024720  3
   4936   4942   9378   9374     1  180.0000771  0.4184000  2
   4936   4942   9378   9374     1  0.0000000  1.6024720  3
   4942   9378   9374   9373     1  180.0000771  0.4184000  2
   4942   9378   9374   9373     1  0.0000000  1.6024720  3
   4942   9378   9374   9390     1  180.0000771  5.6484000  1
   4942   9378   9374   9390     1  180.0000771  3.5564000  2
   4942   9378   9374   9390     1  0.0000000  0.4184000  3
   4945   9401   9397   9413     1  180.0000771  5.6484000  1
   4945   9401   9397   9413     1  180.0000771  3.5564000  2
   4945   9401   9397   9413     1  0.0000000  0.4184000  3
   4945   9401   9397   9396     1  180.0000771  0.4184000  2
   4945   9401   9397   9396     1  0.0000000  1.6024720  3
   4950   4951   4963   4975     1  0.0000000  0.6508444  3
   4950   4954   4966   4972     1  0.0000000  0.6508444  3
   4950   4957   4960   4969     1  0.0000000  0.6508444  3
   4951   4950   4954   4966     1  0.0000000  0.6508444  3
   4951   4950   4957   4960     1  0.0000000  0.6508444  3
   4951   4963   4975   9447     1  0.0000000  0.6508444  3
   4954   4950   4951   4963     1  0.0000000  0.6508444  3
   4954   4950   4957   4960     1  0.0000000  0.6508444  3
   4954   4966   4972   9424     1  0.0000000  0.6508444  3
   4957   4950   4951   4963     1  0.0000000  0.6508444  3
   4957   4950   4954   4966     1  0.0000000  0.6508444  3
   4957   4960   4969   4978     1  0.0000000  0.6508444  3
   4963   4975   9447   9443     1  180.0000771  0.4184000  2
   4963   4975   9447   9443     1  0.0000000  1.6024720  3
   4966   4972   9424   9420     1  180.0000771  0.4184000  2
   4966   4972   9424   9420     1  0.0000000  1.6024720  3
   4972   9424   9420   9419     1  180.0000771  0.4184000  2
   4972   9424   9420   9419     1  0.0000000  1.6024720  3
   4972   9424   9420   9436     1  180.0000771  5.6484000  1
   4972   9424   9420   9436     1  180.0000771  3.5564000  2
   4972   9424   9420   9436     1  0.0000000  0.4184000  3
   4975   9447   9443   9459     1  180.0000771  5.6484000  1
   4975   9447   9443   9459     1  180.0000771  3.5564000  2
   4975   9447   9443   9459     1  0.0000000  0.4184000  3
   4975   9447   9443   9442     1  180.0000771  0.4184000  2
   4975   9447   9443   9442     1  0.0000000  1.6024720  3
   4980   4981   4993   5005     1  0.0000000  0.6508444  3
   4980   4984   4996   5002     1  0.0000000  0.6508444  3
   4980   4987   4990   4999     1  0.0000000  0.6508444  3
   4981   4980   4984   4996     1  0.0000000  0.6508444  3
   4981   4980   4987   4990     1  0.0000000  0.6508444  3
   4981   4993   5005   9493     1  0.0000000  0.6508444  3
   4984   4980   4981   4993     1  0.0000000  0.6508444  3
   4984   4980   4987   4990     1  0.0000000  0.6508444  3
   4984   4996   5002   9470     1  0.0000000  0.6508444  3
   4987   4980   4981   4993     1  0.0000000  0.6508444  3
   4987   4980   4984   4996     1  0.0000000  0.6508444  3
   4987   4990   4999   5008     1  0.0000000  0.6508444  3
   4993   5005   9493   9489     1  180.0000771  0.4184000  2
   4993   5005   9493   9489     1  0.0000000  1.6024720  3
   4996   5002   9470   9466     1  180.0000771  0.4184000  2
   4996   5002   9470   9466     1  0.0000000  1.6024720  3
   5002   9470   9466   9465     1  180.0000771  0.4184000  2
   5002   9470   9466   9465     1  0.0000000  1.6024720  3
   5002   9470   9466   9482     1  180.0000771  5.6484000  1
   5002   9470   9466   9482     1  180.0000771  3.5564000  2
   5002   9470   9466   9482     1  0.0000000  0.4184000  3
   5005   9493   9489   9505     1  180.0000771  5.6484000  1
   5005   9493   9489   9505     1  180.0000771  3.5564000  2
   5005   9493   9489   9505     1  0.0000000  0.4184000  3
   5005   9493   9489   9488     1  180.0000771  0.4184000  2
   5005   9493   9489   9488     1  0.0000000  1.6024720  3
   5010   5011   5023   5035     1  0.0000000  0.6508444  3
   5010   5014   5026   5032     1  0.0000000  0.6508444  3
   5010   5017   5020   5029     1  0.0000000  0.6508444  3
   5011   5010   5014   5026     1  0.0000000  0.6508444  3
   5011   5010   5017   5020     1  0.0000000  0.6508444  3
   5011   5023   5035   9539     1  0.0000000  0.6508444  3
   5014   5010   5011   5023     1  0.0000000  0.6508444  3
   5014   5010   5017   5020     1  0.0000000  0.6508444  3
   5014   5026   5032   9516     1  0.0000000  0.6508444  3
   5017   5010   5011   5023     1  0.0000000  0.6508444  3
   5017   5010   5014   5026     1  0.0000000  0.6508444  3
   5017   5020   5029   5038     1  0.0000000  0.6508444  3
   5023   5035   9539   9535     1  180.0000771  0.4184000  2
   5023   5035   9539   9535     1  0.0000000  1.6024720  3
   5026   5032   9516   9512     1  180.0000771  0.4184000  2
   5026   5032   9516   9512     1  0.0000000  1.6024720  3
   5032   9516   9512   9511     1  180.0000771  0.4184000  2
   5032   9516   9512   9511     1  0.0000000  1.6024720  3
   5032   9516   9512   9528     1  180.0000771  5.6484000  1
   5032   9516   9512   9528     1  180.0000771  3.5564000  2
   5032   9516   9512   9528     1  0.0000000  0.4184000  3
   5035   9539   9535   9551     1  180.0000771  5.6484000  1
   5035   9539   9535   9551     1  180.0000771  3.5564000  2
   5035   9539   9535   9551     1  0.0000000  0.4184000  3
   5035   9539   9535   9534     1  180.0000771  0.4184000  2
   5035   9539   9535   9534     1  0.0000000  1.6024720  3
   5040   5041   5053   5065     1  0.0000000  0.6508444  3
   5040   5044   5056   5062     1  0.0000000  0.6508444  3
   5040   5047   5050   5059     1  0.0000000  0.6508444  3
   5041   5040   5044   5056     1  0.0000000  0.6508444  3
   5041   5040   5047   5050     1  0.0000000  0.6508444  3
   5041   5053   5065   9585     1  0.0000000  0.6508444  3
   5044   5040   5041   5053     1  0.0000000  0.6508444  3
   5044   5040   5047   5050     1  0.0000000  0.6508444  3
   5044   5056   5062   9562     1  0.0000000  0.6508444  3
   5047   5040   5041   5053     1  0.0000000  0.6508444  3
   5047   5040   5044   5056     1  0.0000000  0.6508444  3
   5047   5050   5059   5068     1  0.0000000  0.6508444  3
   5053   5065   9585   9581     1  180.0000771  0.4184000  2
   5053   5065   9585   9581     1  0.0000000  1.6024720  3
   5056   5062   9562   9558     1  180.0000771  0.4184000  2
   5056   5062   9562   9558     1  0.0000000  1.6024720  3
   5062   9562   9558   9557     1  180.0000771  0.4184000  2
   5062   9562   9558   9557     1  0.0000000  1.6024720  3
   5062   9562   9558   9574     1  180.0000771  5.6484000  1
   5062   9562   9558   9574     1  180.0000771  3.5564000  2
   5062   9562   9558   9574     1  0.0000000  0.4184000  3
   5065   9585   9581   9597     1  180.0000771  5.6484000  1
   5065   9585   9581   9597     1  180.0000771  3.5564000  2
   5065   9585   9581   9597     1  0.0000000  0.4184000  3
   5065   9585   9581   9580     1  180.0000771  0.4184000  2
   5065   9585   9581   9580     1  0.0000000  1.6024720  3
   5070   5071   5083   5095     1  0.0000000  0.6508444  3
   5070   5074   5086   5092     1  0.0000000  0.6508444  3
   5070   5077   5080   5089     1  0.0000000  0.6508444  3
   5071   5070   5074   5086     1  0.0000000  0.6508444  3
   5071   5070   5077   5080     1  0.0000000  0.6508444  3
   5071   5083   5095   9631     1  0.0000000  0.6508444  3
   5074   5070   5071   5083     1  0.0000000  0.6508444  3
   5074   5070   5077   5080     1  0.0000000  0.6508444  3
   5074   5086   5092   9608     1  0.0000000  0.6508444  3
   5077   5070   5071   5083     1  0.0000000  0.6508444  3
   5077   5070   5074   5086     1  0.0000000  0.6508444  3
   5077   5080   5089   5098     1  0.0000000  0.6508444  3
   5083   5095   9631   9627     1  180.0000771  0.4184000  2
   5083   5095   9631   9627     1  0.0000000  1.6024720  3
   5086   5092   9608   9604     1  180.0000771  0.4184000  2
   5086   5092   9608   9604     1  0.0000000  1.6024720  3
   5092   9608   9604   9603     1  180.0000771  0.4184000  2
   5092   9608   9604   9603     1  0.0000000  1.6024720  3
   5092   9608   9604   9620     1  180.0000771  5.6484000  1
   5092   9608   9604   9620     1  180.0000771  3.5564000  2
   5092   9608   9604   9620     1  0.0000000  0.4184000  3
   5095   9631   9627   9643     1  180.0000771  5.6484000  1
   5095   9631   9627   9643     1  180.0000771  3.5564000  2
   5095   9631   9627   9643     1  0.0000000  0.4184000  3
   5095   9631   9627   9626     1  180.0000771  0.4184000  2
   5095   9631   9627   9626     1  0.0000000  1.6024720  3
   5100   5101   5113   5125     1  0.0000000  0.6508444  3
   5100   5104   5116   5122     1  0.0000000  0.6508444  3
   5100   5107   5110   5119     1  0.0000000  0.6508444  3
   5101   5100   5104   5116     1  0.0000000  0.6508444  3
   5101   5100   5107   5110     1  0.0000000  0.6508444  3
   5101   5113   5125   9677     1  0.0000000  0.6508444  3
   5104   5100   5101   5113     1  0.0000000  0.6508444  3
   5104   5100   5107   5110     1  0.0000000  0.6508444  3
   5104   5116   5122   9654     1  0.0000000  0.6508444  3
   5107   5100   5101   5113     1  0.0000000  0.6508444  3
   5107   5100   5104   5116     1  0.0000000  0.6508444  3
   5107   5110   5119   5128     1  0.0000000  0.6508444  3
   5113   5125   9677   9673     1  180.0000771  0.4184000  2
   5113   5125   9677   9673     1  0.0000000  1.6024720  3
   5116   5122   9654   9650     1  180.0000771  0.4184000  2
   5116   5122   9654   9650     1  0.0000000  1.6024720  3
   5122   9654   9650   9649     1  180.0000771  0.4184000  2
   5122   9654   9650   9649     1  0.0000000  1.6024720  3
   5122   9654   9650   9666     1  180.0000771  5.6484000  1
   5122   9654   9650   9666     1  180.0000771  3.5564000  2
   5122   9654   9650   9666     1  0.0000000  0.4184000  3
   5125   9677   9673   9689     1  180.0000771  5.6484000  1
   5125   9677   9673   9689     1  180.0000771  3.5564000  2
   5125   9677   9673   9689     1  0.0000000  0.4184000  3
   5125   9677   9673   9672     1  180.0000771  0.4184000  2
   5125   9677   9673   9672     1  0.0000000  1.6024720  3
   5130   5131   5143   5155     1  0.0000000  0.6508444  3
   5130   5134   5146   5152     1  0.0000000  0.6508444  3
   5130   5137   5140   5149     1  0.0000000  0.6508444  3
   5131   5130   5134   5146     1  0.0000000  0.6508444  3
   5131   5130   5137   5140     1  0.0000000  0.6508444  3
   5131   5143   5155   9723     1  0.0000000  0.6508444  3
   5134   5130   5131   5143     1  0.0000000  0.6508444  3
   5134   5130   5137   5140     1  0.0000000  0.6508444  3
   5134   5146   5152   9700     1  0.0000000  0.6508444  3
   5137   5130   5131   5143     1  0.0000000  0.6508444  3
   5137   5130   5134   5146     1  0.0000000  0.6508444  3
   5137   5140   5149   5158     1  0.0000000  0.6508444  3
   5143   5155   9723   9719     1  180.0000771  0.4184000  2
   5143   5155   9723   9719     1  0.0000000  1.6024720  3
   5146   5152   9700   9696     1  180.0000771  0.4184000  2
   5146   5152   9700   9696     1  0.0000000  1.6024720  3
   5152   9700   9696   9695     1  180.0000771  0.4184000  2
   5152   9700   9696   9695     1  0.0000000  1.6024720  3
   5152   9700   9696   9712     1  180.0000771  5.6484000  1
   5152   9700   9696   9712     1  180.0000771  3.5564000  2
   5152   9700   9696   9712     1  0.0000000  0.4184000  3
   5155   9723   9719   9735     1  180.0000771  5.6484000  1
   5155   9723   9719   9735     1  180.0000771  3.5564000  2
   5155   9723   9719   9735     1  0.0000000  0.4184000  3
   5155   9723   9719   9718     1  180.0000771  0.4184000  2
   5155   9723   9719   9718     1  0.0000000  1.6024720  3
   5160   5161   5173   5185     1  0.0000000  0.6508444  3
   5160   5164   5176   5182     1  0.0000000  0.6508444  3
   5160   5167   5170   5179     1  0.0000000  0.6508444  3
   5161   5160   5164   5176     1  0.0000000  0.6508444  3
   5161   5160   5167   5170     1  0.0000000  0.6508444  3
   5161   5173   5185   9769     1  0.0000000  0.6508444  3
   5164   5160   5161   5173     1  0.0000000  0.6508444  3
   5164   5160   5167   5170     1  0.0000000  0.6508444  3
   5164   5176   5182   9746     1  0.0000000  0.6508444  3
   5167   5160   5161   5173     1  0.0000000  0.6508444  3
   5167   5160   5164   5176     1  0.0000000  0.6508444  3
   5167   5170   5179   5188     1  0.0000000  0.6508444  3
   5173   5185   9769   9765     1  180.0000771  0.4184000  2
   5173   5185   9769   9765     1  0.0000000  1.6024720  3
   5176   5182   9746   9742     1  180.0000771  0.4184000  2
   5176   5182   9746   9742     1  0.0000000  1.6024720  3
   5182   9746   9742   9741     1  180.0000771  0.4184000  2
   5182   9746   9742   9741     1  0.0000000  1.6024720  3
   5182   9746   9742   9758     1  180.0000771  5.6484000  1
   5182   9746   9742   9758     1  180.0000771  3.5564000  2
   5182   9746   9742   9758     1  0.0000000  0.4184000  3
   5185   9769   9765   9781     1  180.0000771  5.6484000  1
   5185   9769   9765   9781     1  180.0000771  3.5564000  2
   5185   9769   9765   9781     1  0.0000000  0.4184000  3
   5185   9769   9765   9764     1  180.0000771  0.4184000  2
   5185   9769   9765   9764     1  0.0000000  1.6024720  3
   5190   5191   5203   5215     1  0.0000000  0.6508444  3
   5190   5194   5206   5212     1  0.0000000  0.6508444  3
   5190   5197   5200   5209     1  0.0000000  0.6508444  3
   5191   5190   5194   5206     1  0.0000000  0.6508444  3
   5191   5190   5197   5200     1  0.0000000  0.6508444  3
   5191   5203   5215   9815     1  0.0000000  0.6508444  3
   5194   5190   5191   5203     1  0.0000000  0.6508444  3
   5194   5190   5197   5200     1  0.0000000  0.6508444  3
   5194   5206   5212   9792     1  0.0000000  0.6508444  3
   5197   5190   5191   5203     1  0.0000000  0.6508444  3
   5197   5190   5194   5206     1  0.0000000  0.6508444  3
   5197   5200   5209   5218     1  0.0000000  0.6508444  3
   5203   5215   9815   9811     1  180.0000771  0.4184000  2
   5203   5215   9815   9811     1  0.0000000  1.6024720  3
   5206   5212   9792   9788     1  180.0000771  0.4184000  2
   5206   5212   9792   9788     1  0.0000000  1.6024720  3
   5212   9792   9788   9787     1  180.0000771  0.4184000  2
   5212   9792   9788   9787     1  0.0000000  1.6024720  3
   5212   9792   9788   9804     1  180.0000771  5.6484000  1
   5212   9792   9788   9804     1  180.0000771  3.5564000  2
   5212   9792   9788   9804     1  0.0000000  0.4184000  3
   5215   9815   9811   9827     1  180.0000771  5.6484000  1
   5215   9815   9811   9827     1  180.0000771  3.5564000  2
   5215   9815   9811   9827     1  0.0000000  0.4184000  3
   5215   9815   9811   9810     1  180.0000771  0.4184000  2
   5215   9815   9811   9810     1  0.0000000  1.6024720  3
   5220   5221   5233   5245     1  0.0000000  0.6508444  3
   5220   5224   5236   5242     1  0.0000000  0.6508444  3
   5220   5227   5230   5239     1  0.0000000  0.6508444  3
   5221   5220   5224   5236     1  0.0000000  0.6508444  3
   5221   5220   5227   5230     1  0.0000000  0.6508444  3
   5221   5233   5245   9861     1  0.0000000  0.6508444  3
   5224   5220   5221   5233     1  0.0000000  0.6508444  3
   5224   5220   5227   5230     1  0.0000000  0.6508444  3
   5224   5236   5242   9838     1  0.0000000  0.6508444  3
   5227   5220   5221   5233     1  0.0000000  0.6508444  3
   5227   5220   5224   5236     1  0.0000000  0.6508444  3
   5227   5230   5239   5248     1  0.0000000  0.6508444  3
   5233   5245   9861   9857     1  180.0000771  0.4184000  2
   5233   5245   9861   9857     1  0.0000000  1.6024720  3
   5236   5242   9838   9834     1  180.0000771  0.4184000  2
   5236   5242   9838   9834     1  0.0000000  1.6024720  3
   5242   9838   9834   9833     1  180.0000771  0.4184000  2
   5242   9838   9834   9833     1  0.0000000  1.6024720  3
   5242   9838   9834   9850     1  180.0000771  5.6484000  1
   5242   9838   9834   9850     1  180.0000771  3.5564000  2
   5242   9838   9834   9850     1  0.0000000  0.4184000  3
   5245   9861   9857   9873     1  180.0000771  5.6484000  1
   5245   9861   9857   9873     1  180.0000771  3.5564000  2
   5245   9861   9857   9873     1  0.0000000  0.4184000  3
   5245   9861   9857   9856     1  180.0000771  0.4184000  2
   5245   9861   9857   9856     1  0.0000000  1.6024720  3
   5250   5251   5263   5275     1  0.0000000  0.6508444  3
   5250   5254   5266   5272     1  0.0000000  0.6508444  3
   5250   5257   5260   5269     1  0.0000000  0.6508444  3
   5251   5250   5254   5266     1  0.0000000  0.6508444  3
   5251   5250   5257   5260     1  0.0000000  0.6508444  3
   5251   5263   5275   9907     1  0.0000000  0.6508444  3
   5254   5250   5251   5263     1  0.0000000  0.6508444  3
   5254   5250   5257   5260     1  0.0000000  0.6508444  3
   5254   5266   5272   9884     1  0.0000000  0.6508444  3
   5257   5250   5251   5263     1  0.0000000  0.6508444  3
   5257   5250   5254   5266     1  0.0000000  0.6508444  3
   5257   5260   5269   5278     1  0.0000000  0.6508444  3
   5263   5275   9907   9903     1  180.0000771  0.4184000  2
   5263   5275   9907   9903     1  0.0000000  1.6024720  3
   5266   5272   9884   9880     1  180.0000771  0.4184000  2
   5266   5272   9884   9880     1  0.0000000  1.6024720  3
   5272   9884   9880   9879     1  180.0000771  0.4184000  2
   5272   9884   9880   9879     1  0.0000000  1.6024720  3
   5272   9884   9880   9896     1  180.0000771  5.6484000  1
   5272   9884   9880   9896     1  180.0000771  3.5564000  2
   5272   9884   9880   9896     1  0.0000000  0.4184000  3
   5275   9907   9903   9919     1  180.0000771  5.6484000  1
   5275   9907   9903   9919     1  180.0000771  3.5564000  2
   5275   9907   9903   9919     1  0.0000000  0.4184000  3
   5275   9907   9903   9902     1  180.0000771  0.4184000  2
   5275   9907   9903   9902     1  0.0000000  1.6024720  3
   5280   5281   5293   5305     1  0.0000000  0.6508444  3
   5280   5284   5296   5302     1  0.0000000  0.6508444  3
   5280   5287   5290   5299     1  0.0000000  0.6508444  3
   5281   5280   5284   5296     1  0.0000000  0.6508444  3
   5281   5280   5287   5290     1  0.0000000  0.6508444  3
   5281   5293   5305   9953     1  0.0000000  0.6508444  3
   5284   5280   5281   5293     1  0.0000000  0.6508444  3
   5284   5280   5287   5290     1  0.0000000  0.6508444  3
   5284   5296   5302   9930     1  0.0000000  0.6508444  3
   5287   5280   5281   5293     1  0.0000000  0.6508444  3
   5287   5280   5284   5296     1  0.0000000  0.6508444  3
   5287   5290   5299   5308     1  0.0000000  0.6508444  3
   5293   5305   9953   9949     1  180.0000771  0.4184000  2
   5293   5305   9953   9949     1  0.0000000  1.6024720  3
   5296   5302   9930   9926     1  180.0000771  0.4184000  2
   5296   5302   9930   9926     1  0.0000000  1.6024720  3
   5302   9930   9926   9925     1  180.0000771  0.4184000  2
   5302   9930   9926   9925     1  0.0000000  1.6024720  3
   5302   9930   9926   9942     1  180.0000771  5.6484000  1
   5302   9930   9926   9942     1  180.0000771  3.5564000  2
   5302   9930   9926   9942     1  0.0000000  0.4184000  3
   5305   9953   9949   9965     1  180.0000771  5.6484000  1
   5305   9953   9949   9965     1  180.0000771  3.5564000  2
   5305   9953   9949   9965     1  0.0000000  0.4184000  3
   5305   9953   9949   9948     1  180.0000771  0.4184000  2
   5305   9953   9949   9948     1  0.0000000  1.6024720  3
   5310   5311   5323   5335     1  0.0000000  0.6508444  3
   5310   5314   5326   5332     1  0.0000000  0.6508444  3
   5310   5317   5320   5329     1  0.0000000  0.6508444  3
   5311   5310   5314   5326     1  0.0000000  0.6508444  3
   5311   5310   5317   5320     1  0.0000000  0.6508444  3
   5311   5323   5335   9999     1  0.0000000  0.6508444  3
   5314   5310   5311   5323     1  0.0000000  0.6508444  3
   5314   5310   5317   5320     1  0.0000000  0.6508444  3
   5314   5326   5332   9976     1  0.0000000  0.6508444  3
   5317   5310   5311   5323     1  0.0000000  0.6508444  3
   5317   5310   5314   5326     1  0.0000000  0.6508444  3
   5317   5320   5329   5338     1  0.0000000  0.6508444  3
   5323   5335   9999   9995     1  180.0000771  0.4184000  2
   5323   5335   9999   9995     1  0.0000000  1.6024720  3
   5326   5332   9976   9972     1  180.0000771  0.4184000  2
   5326   5332   9976   9972     1  0.0000000  1.6024720  3
   5332   9976   9972   9971     1  180.0000771  0.4184000  2
   5332   9976   9972   9971     1  0.0000000  1.6024720  3
   5332   9976   9972   9988     1  180.0000771  5.6484000  1
   5332   9976   9972   9988     1  180.0000771  3.5564000  2
   5332   9976   9972   9988     1  0.0000000  0.4184000  3
   5335   9999   9995  10011     1  180.0000771  5.6484000  1
   5335   9999   9995  10011     1  180.0000771  3.5564000  2
   5335   9999   9995  10011     1  0.0000000  0.4184000  3
   5335   9999   9995   9994     1  180.0000771  0.4184000  2
   5335   9999   9995   9994     1  0.0000000  1.6024720  3
   5340   5341   5353   5365     1  0.0000000  0.6508444  3
   5340   5344   5356   5362     1  0.0000000  0.6508444  3
   5340   5347   5350   5359     1  0.0000000  0.6508444  3
   5341   5340   5344   5356     1  0.0000000  0.6508444  3
   5341   5340   5347   5350     1  0.0000000  0.6508444  3
   5341   5353   5365  10045     1  0.0000000  0.6508444  3
   5344   5340   5341   5353     1  0.0000000  0.6508444  3
   5344   5340   5347   5350     1  0.0000000  0.6508444  3
   5344   5356   5362  10022     1  0.0000000  0.6508444  3
   5347   5340   5341   5353     1  0.0000000  0.6508444  3
   5347   5340   5344   5356     1  0.0000000  0.6508444  3
   5347   5350   5359   5368     1  0.0000000  0.6508444  3
   5353   5365  10045  10041     1  180.0000771  0.4184000  2
   5353   5365  10045  10041     1  0.0000000  1.6024720  3
   5356   5362  10022  10018     1  180.0000771  0.4184000  2
   5356   5362  10022  10018     1  0.0000000  1.6024720  3
   5362  10022  10018  10017     1  180.0000771  0.4184000  2
   5362  10022  10018  10017     1  0.0000000  1.6024720  3
   5362  10022  10018  10034     1  180.0000771  5.6484000  1
   5362  10022  10018  10034     1  180.0000771  3.5564000  2
   5362  10022  10018  10034     1  0.0000000  0.4184000  3
   5365  10045  10041  10057     1  180.0000771  5.6484000  1
   5365  10045  10041  10057     1  180.0000771  3.5564000  2
   5365  10045  10041  10057     1  0.0000000  0.4184000  3
   5365  10045  10041  10040     1  180.0000771  0.4184000  2
   5365  10045  10041  10040     1  0.0000000  1.6024720  3
   5370   5371   5383   5395     1  0.0000000  0.6508444  3
   5370   5374   5386   5392     1  0.0000000  0.6508444  3
   5370   5377   5380   5389     1  0.0000000  0.6508444  3
   5371   5370   5374   5386     1  0.0000000  0.6508444  3
   5371   5370   5377   5380     1  0.0000000  0.6508444  3
   5371   5383   5395  10091     1  0.0000000  0.6508444  3
   5374   5370   5371   5383     1  0.0000000  0.6508444  3
   5374   5370   5377   5380     1  0.0000000  0.6508444  3
   5374   5386   5392  10068     1  0.0000000  0.6508444  3
   5377   5370   5371   5383     1  0.0000000  0.6508444  3
   5377   5370   5374   5386     1  0.0000000  0.6508444  3
   5377   5380   5389   5398     1  0.0000000  0.6508444  3
   5383   5395  10091  10087     1  180.0000771  0.4184000  2
   5383   5395  10091  10087     1  0.0000000  1.6024720  3
   5386   5392  10068  10064     1  180.0000771  0.4184000  2
   5386   5392  10068  10064     1  0.0000000  1.6024720  3
   5392  10068  10064  10063     1  180.0000771  0.4184000  2
   5392  10068  10064  10063     1  0.0000000  1.6024720  3
   5392  10068  10064  10080     1  180.0000771  5.6484000  1
   5392  10068  10064  10080     1  180.0000771  3.5564000  2
   5392  10068  10064  10080     1  0.0000000  0.4184000  3
   5395  10091  10087  10103     1  180.0000771  5.6484000  1
   5395  10091  10087  10103     1  180.0000771  3.5564000  2
   5395  10091  10087  10103     1  0.0000000  0.4184000  3
   5395  10091  10087  10086     1  180.0000771  0.4184000  2
   5395  10091  10087  10086     1  0.0000000  1.6024720  3
   5400   5401   5413   5425     1  0.0000000  0.6508444  3
   5400   5404   5416   5422     1  0.0000000  0.6508444  3
   5400   5407   5410   5419     1  0.0000000  0.6508444  3
   5401   5400   5404   5416     1  0.0000000  0.6508444  3
   5401   5400   5407   5410     1  0.0000000  0.6508444  3
   5401   5413   5425  10137     1  0.0000000  0.6508444  3
   5404   5400   5401   5413     1  0.0000000  0.6508444  3
   5404   5400   5407   5410     1  0.0000000  0.6508444  3
   5404   5416   5422  10114     1  0.0000000  0.6508444  3
   5407   5400   5401   5413     1  0.0000000  0.6508444  3
   5407   5400   5404   5416     1  0.0000000  0.6508444  3
   5407   5410   5419   5428     1  0.0000000  0.6508444  3
   5413   5425  10137  10133     1  180.0000771  0.4184000  2
   5413   5425  10137  10133     1  0.0000000  1.6024720  3
   5416   5422  10114  10110     1  180.0000771  0.4184000  2
   5416   5422  10114  10110     1  0.0000000  1.6024720  3
   5422  10114  10110  10109     1  180.0000771  0.4184000  2
   5422  10114  10110  10109     1  0.0000000  1.6024720  3
   5422  10114  10110  10126     1  180.0000771  5.6484000  1
   5422  10114  10110  10126     1  180.0000771  3.5564000  2
   5422  10114  10110  10126     1  0.0000000  0.4184000  3
   5425  10137  10133  10149     1  180.0000771  5.6484000  1
   5425  10137  10133  10149     1  180.0000771  3.5564000  2
   5425  10137  10133  10149     1  0.0000000  0.4184000  3
   5425  10137  10133  10132     1  180.0000771  0.4184000  2
   5425  10137  10133  10132     1  0.0000000  1.6024720  3
   5430   5431   5443   5455     1  0.0000000  0.6508444  3
   5430   5434   5446   5452     1  0.0000000  0.6508444  3
   5430   5437   5440   5449     1  0.0000000  0.6508444  3
   5431   5430   5434   5446     1  0.0000000  0.6508444  3
   5431   5430   5437   5440     1  0.0000000  0.6508444  3
   5431   5443   5455  10183     1  0.0000000  0.6508444  3
   5434   5430   5431   5443     1  0.0000000  0.6508444  3
   5434   5430   5437   5440     1  0.0000000  0.6508444  3
   5434   5446   5452  10160     1  0.0000000  0.6508444  3
   5437   5430   5431   5443     1  0.0000000  0.6508444  3
   5437   5430   5434   5446     1  0.0000000  0.6508444  3
   5437   5440   5449   5458     1  0.0000000  0.6508444  3
   5443   5455  10183  10179     1  180.0000771  0.4184000  2
   5443   5455  10183  10179     1  0.0000000  1.6024720  3
   5446   5452  10160  10156     1  180.0000771  0.4184000  2
   5446   5452  10160  10156     1  0.0000000  1.6024720  3
   5452  10160  10156  10155     1  180.0000771  0.4184000  2
   5452  10160  10156  10155     1  0.0000000  1.6024720  3
   5452  10160  10156  10172     1  180.0000771  5.6484000  1
   5452  10160  10156  10172     1  180.0000771  3.5564000  2
   5452  10160  10156  10172     1  0.0000000  0.4184000  3
   5455  10183  10179  10195     1  180.0000771  5.6484000  1
   5455  10183  10179  10195     1  180.0000771  3.5564000  2
   5455  10183  10179  10195     1  0.0000000  0.4184000  3
   5455  10183  10179  10178     1  180.0000771  0.4184000  2
   5455  10183  10179  10178     1  0.0000000  1.6024720  3
   5460   5461   5473   5485     1  0.0000000  0.6508444  3
   5460   5464   5476   5482     1  0.0000000  0.6508444  3
   5460   5467   5470   5479     1  0.0000000  0.6508444  3
   5461   5460   5464   5476     1  0.0000000  0.6508444  3
   5461   5460   5467   5470     1  0.0000000  0.6508444  3
   5461   5473   5485  10229     1  0.0000000  0.6508444  3
   5464   5460   5461   5473     1  0.0000000  0.6508444  3
   5464   5460   5467   5470     1  0.0000000  0.6508444  3
   5464   5476   5482  10206     1  0.0000000  0.6508444  3
   5467   5460   5461   5473     1  0.0000000  0.6508444  3
   5467   5460   5464   5476     1  0.0000000  0.6508444  3
   5467   5470   5479   5488     1  0.0000000  0.6508444  3
   5473   5485  10229  10225     1  180.0000771  0.4184000  2
   5473   5485  10229  10225     1  0.0000000  1.6024720  3
   5476   5482  10206  10202     1  180.0000771  0.4184000  2
   5476   5482  10206  10202     1  0.0000000  1.6024720  3
   5482  10206  10202  10201     1  180.0000771  0.4184000  2
   5482  10206  10202  10201     1  0.0000000  1.6024720  3
   5482  10206  10202  10218     1  180.0000771  5.6484000  1
   5482  10206  10202  10218     1  180.0000771  3.5564000  2
   5482  10206  10202  10218     1  0.0000000  0.4184000  3
   5485  10229  10225  10241     1  180.0000771  5.6484000  1
   5485  10229  10225  10241     1  180.0000771  3.5564000  2
   5485  10229  10225  10241     1  0.0000000  0.4184000  3
   5485  10229  10225  10224     1  180.0000771  0.4184000  2
   5485  10229  10225  10224     1  0.0000000  1.6024720  3
   5490   5491   5503   5515     1  0.0000000  0.6508444  3
   5490   5494   5506   5512     1  0.0000000  0.6508444  3
   5490   5497   5500   5509     1  0.0000000  0.6508444  3
   5491   5490   5494   5506     1  0.0000000  0.6508444  3
   5491   5490   5497   5500     1  0.0000000  0.6508444  3
   5491   5503   5515  10275     1  0.0000000  0.6508444  3
   5494   5490   5491   5503     1  0.0000000  0.6508444  3
   5494   5490   5497   5500     1  0.0000000  0.6508444  3
   5494   5506   5512  10252     1  0.0000000  0.6508444  3
   5497   5490   5491   5503     1  0.0000000  0.6508444  3
   5497   5490   5494   5506     1  0.0000000  0.6508444  3
   5497   5500   5509   5518     1  0.0000000  0.6508444  3
   5503   5515  10275  10271     1  180.0000771  0.4184000  2
   5503   5515  10275  10271     1  0.0000000  1.6024720  3
   5506   5512  10252  10248     1  180.0000771  0.4184000  2
   5506   5512  10252  10248     1  0.0000000  1.6024720  3
   5512  10252  10248  10247     1  180.0000771  0.4184000  2
   5512  10252  10248  10247     1  0.0000000  1.6024720  3
   5512  10252  10248  10264     1  180.0000771  5.6484000  1
   5512  10252  10248  10264     1  180.0000771  3.5564000  2
   5512  10252  10248  10264     1  0.0000000  0.4184000  3
   5515  10275  10271  10287     1  180.0000771  5.6484000  1
   5515  10275  10271  10287     1  180.0000771  3.5564000  2
   5515  10275  10271  10287     1  0.0000000  0.4184000  3
   5515  10275  10271  10270     1  180.0000771  0.4184000  2
   5515  10275  10271  10270     1  0.0000000  1.6024720  3
   5520   5521   5533   5545     1  0.0000000  0.6508444  3
   5520   5524   5536   5542     1  0.0000000  0.6508444  3
   5520   5527   5530   5539     1  0.0000000  0.6508444  3
   5521   5520   5524   5536     1  0.0000000  0.6508444  3
   5521   5520   5527   5530     1  0.0000000  0.6508444  3
   5521   5533   5545  10321     1  0.0000000  0.6508444  3
   5524   5520   5521   5533     1  0.0000000  0.6508444  3
   5524   5520   5527   5530     1  0.0000000  0.6508444  3
   5524   5536   5542  10298     1  0.0000000  0.6508444  3
   5527   5520   5521   5533     1  0.0000000  0.6508444  3
   5527   5520   5524   5536     1  0.0000000  0.6508444  3
   5527   5530   5539   5548     1  0.0000000  0.6508444  3
   5533   5545  10321  10317     1  180.0000771  0.4184000  2
   5533   5545  10321  10317     1  0.0000000  1.6024720  3
   5536   5542  10298  10294     1  180.0000771  0.4184000  2
   5536   5542  10298  10294     1  0.0000000  1.6024720  3
   5542  10298  10294  10293     1  180.0000771  0.4184000  2
   5542  10298  10294  10293     1  0.0000000  1.6024720  3
   5542  10298  10294  10310     1  180.0000771  5.6484000  1
   5542  10298  10294  10310     1  180.0000771  3.5564000  2
   5542  10298  10294  10310     1  0.0000000  0.4184000  3
   5545  10321  10317  10333     1  180.0000771  5.6484000  1
   5545  10321  10317  10333     1  180.0000771  3.5564000  2
   5545  10321  10317  10333     1  0.0000000  0.4184000  3
   5545  10321  10317  10316     1  180.0000771  0.4184000  2
   5545  10321  10317  10316     1  0.0000000  1.6024720  3
   5550   5551   5563   5575     1  0.0000000  0.6508444  3
   5550   5554   5566   5572     1  0.0000000  0.6508444  3
   5550   5557   5560   5569     1  0.0000000  0.6508444  3
   5551   5550   5554   5566     1  0.0000000  0.6508444  3
   5551   5550   5557   5560     1  0.0000000  0.6508444  3
   5551   5563   5575  10367     1  0.0000000  0.6508444  3
   5554   5550   5551   5563     1  0.0000000  0.6508444  3
   5554   5550   5557   5560     1  0.0000000  0.6508444  3
   5554   5566   5572  10344     1  0.0000000  0.6508444  3
   5557   5550   5551   5563     1  0.0000000  0.6508444  3
   5557   5550   5554   5566     1  0.0000000  0.6508444  3
   5557   5560   5569   5578     1  0.0000000  0.6508444  3
   5563   5575  10367  10363     1  180.0000771  0.4184000  2
   5563   5575  10367  10363     1  0.0000000  1.6024720  3
   5566   5572  10344  10340     1  180.0000771  0.4184000  2
   5566   5572  10344  10340     1  0.0000000  1.6024720  3
   5572  10344  10340  10339     1  180.0000771  0.4184000  2
   5572  10344  10340  10339     1  0.0000000  1.6024720  3
   5572  10344  10340  10356     1  180.0000771  5.6484000  1
   5572  10344  10340  10356     1  180.0000771  3.5564000  2
   5572  10344  10340  10356     1  0.0000000  0.4184000  3
   5575  10367  10363  10379     1  180.0000771  5.6484000  1
   5575  10367  10363  10379     1  180.0000771  3.5564000  2
   5575  10367  10363  10379     1  0.0000000  0.4184000  3
   5575  10367  10363  10362     1  180.0000771  0.4184000  2
   5575  10367  10363  10362     1  0.0000000  1.6024720  3
   5580   5581   5593   5605     1  0.0000000  0.6508444  3
   5580   5584   5596   5602     1  0.0000000  0.6508444  3
   5580   5587   5590   5599     1  0.0000000  0.6508444  3
   5581   5580   5584   5596     1  0.0000000  0.6508444  3
   5581   5580   5587   5590     1  0.0000000  0.6508444  3
   5581   5593   5605  10413     1  0.0000000  0.6508444  3
   5584   5580   5581   5593     1  0.0000000  0.6508444  3
   5584   5580   5587   5590     1  0.0000000  0.6508444  3
   5584   5596   5602  10390     1  0.0000000  0.6508444  3
   5587   5580   5581   5593     1  0.0000000  0.6508444  3
   5587   5580   5584   5596     1  0.0000000  0.6508444  3
   5587   5590   5599   5608     1  0.0000000  0.6508444  3
   5593   5605  10413  10409     1  180.0000771  0.4184000  2
   5593   5605  10413  10409     1  0.0000000  1.6024720  3
   5596   5602  10390  10386     1  180.0000771  0.4184000  2
   5596   5602  10390  10386     1  0.0000000  1.6024720  3
   5602  10390  10386  10385     1  180.0000771  0.4184000  2
   5602  10390  10386  10385     1  0.0000000  1.6024720  3
   5602  10390  10386  10402     1  180.0000771  5.6484000  1
   5602  10390  10386  10402     1  180.0000771  3.5564000  2
   5602  10390  10386  10402     1  0.0000000  0.4184000  3
   5605  10413  10409  10425     1  180.0000771  5.6484000  1
   5605  10413  10409  10425     1  180.0000771  3.5564000  2
   5605  10413  10409  10425     1  0.0000000  0.4184000  3
   5605  10413  10409  10408     1  180.0000771  0.4184000  2
   5605  10413  10409  10408     1  0.0000000  1.6024720  3
   5610   5611   5623   5635     1  0.0000000  0.6508444  3
   5610   5614   5626   5632     1  0.0000000  0.6508444  3
   5610   5617   5620   5629     1  0.0000000  0.6508444  3
   5611   5610   5614   5626     1  0.0000000  0.6508444  3
   5611   5610   5617   5620     1  0.0000000  0.6508444  3
   5611   5623   5635  10459     1  0.0000000  0.6508444  3
   5614   5610   5611   5623     1  0.0000000  0.6508444  3
   5614   5610   5617   5620     1  0.0000000  0.6508444  3
   5614   5626   5632  10436     1  0.0000000  0.6508444  3
   5617   5610   5611   5623     1  0.0000000  0.6508444  3
   5617   5610   5614   5626     1  0.0000000  0.6508444  3
   5617   5620   5629   5638     1  0.0000000  0.6508444  3
   5623   5635  10459  10455     1  180.0000771  0.4184000  2
   5623   5635  10459  10455     1  0.0000000  1.6024720  3
   5626   5632  10436  10432     1  180.0000771  0.4184000  2
   5626   5632  10436  10432     1  0.0000000  1.6024720  3
   5632  10436  10432  10431     1  180.0000771  0.4184000  2
   5632  10436  10432  10431     1  0.0000000  1.6024720  3
   5632  10436  10432  10448     1  180.0000771  5.6484000  1
   5632  10436  10432  10448     1  180.0000771  3.5564000  2
   5632  10436  10432  10448     1  0.0000000  0.4184000  3
   5635  10459  10455  10471     1  180.0000771  5.6484000  1
   5635  10459  10455  10471     1  180.0000771  3.5564000  2
   5635  10459  10455  10471     1  0.0000000  0.4184000  3
   5635  10459  10455  10454     1  180.0000771  0.4184000  2
   5635  10459  10455  10454     1  0.0000000  1.6024720  3
   5640   5641   5653   5665     1  0.0000000  0.6508444  3
   5640   5644   5656   5662     1  0.0000000  0.6508444  3
   5640   5647   5650   5659     1  0.0000000  0.6508444  3
   5641   5640   5644   5656     1  0.0000000  0.6508444  3
   5641   5640   5647   5650     1  0.0000000  0.6508444  3
   5641   5653   5665  10505     1  0.0000000  0.6508444  3
   5644   5640   5641   5653     1  0.0000000  0.6508444  3
   5644   5640   5647   5650     1  0.0000000  0.6508444  3
   5644   5656   5662  10482     1  0.0000000  0.6508444  3
   5647   5640   5641   5653     1  0.0000000  0.6508444  3
   5647   5640   5644   5656     1  0.0000000  0.6508444  3
   5647   5650   5659   5668     1  0.0000000  0.6508444  3
   5653   5665  10505  10501     1  180.0000771  0.4184000  2
   5653   5665  10505  10501     1  0.0000000  1.6024720  3
   5656   5662  10482  10478     1  180.0000771  0.4184000  2
   5656   5662  10482  10478     1  0.0000000  1.6024720  3
   5662  10482  10478  10477     1  180.0000771  0.4184000  2
   5662  10482  10478  10477     1  0.0000000  1.6024720  3
   5662  10482  10478  10494     1  180.0000771  5.6484000  1
   5662  10482  10478  10494     1  180.0000771  3.5564000  2
   5662  10482  10478  10494     1  0.0000000  0.4184000  3
   5665  10505  10501  10517     1  180.0000771  5.6484000  1
   5665  10505  10501  10517     1  180.0000771  3.5564000  2
   5665  10505  10501  10517     1  0.0000000  0.4184000  3
   5665  10505  10501  10500     1  180.0000771  0.4184000  2
   5665  10505  10501  10500     1  0.0000000  1.6024720  3
   5670   5671   5683   5695     1  0.0000000  0.6508444  3
   5670   5674   5686   5692     1  0.0000000  0.6508444  3
   5670   5677   5680   5689     1  0.0000000  0.6508444  3
   5671   5670   5674   5686     1  0.0000000  0.6508444  3
   5671   5670   5677   5680     1  0.0000000  0.6508444  3
   5671   5683   5695  10551     1  0.0000000  0.6508444  3
   5674   5670   5671   5683     1  0.0000000  0.6508444  3
   5674   5670   5677   5680     1  0.0000000  0.6508444  3
   5674   5686   5692  10528     1  0.0000000  0.6508444  3
   5677   5670   5671   5683     1  0.0000000  0.6508444  3
   5677   5670   5674   5686     1  0.0000000  0.6508444  3
   5677   5680   5689   5698     1  0.0000000  0.6508444  3
   5683   5695  10551  10547     1  180.0000771  0.4184000  2
   5683   5695  10551  10547     1  0.0000000  1.6024720  3
   5686   5692  10528  10524     1  180.0000771  0.4184000  2
   5686   5692  10528  10524     1  0.0000000  1.6024720  3
   5692  10528  10524  10523     1  180.0000771  0.4184000  2
   5692  10528  10524  10523     1  0.0000000  1.6024720  3
   5692  10528  10524  10540     1  180.0000771  5.6484000  1
   5692  10528  10524  10540     1  180.0000771  3.5564000  2
   5692  10528  10524  10540     1  0.0000000  0.4184000  3
   5695  10551  10547  10563     1  180.0000771  5.6484000  1
   5695  10551  10547  10563     1  180.0000771  3.5564000  2
   5695  10551  10547  10563     1  0.0000000  0.4184000  3
   5695  10551  10547  10546     1  180.0000771  0.4184000  2
   5695  10551  10547  10546     1  0.0000000  1.6024720  3
   5700   5701   5713   5725     1  0.0000000  0.6508444  3
   5700   5704   5716   5722     1  0.0000000  0.6508444  3
   5700   5707   5710   5719     1  0.0000000  0.6508444  3
   5701   5700   5704   5716     1  0.0000000  0.6508444  3
   5701   5700   5707   5710     1  0.0000000  0.6508444  3
   5701   5713   5725  10597     1  0.0000000  0.6508444  3
   5704   5700   5701   5713     1  0.0000000  0.6508444  3
   5704   5700   5707   5710     1  0.0000000  0.6508444  3
   5704   5716   5722  10574     1  0.0000000  0.6508444  3
   5707   5700   5701   5713     1  0.0000000  0.6508444  3
   5707   5700   5704   5716     1  0.0000000  0.6508444  3
   5707   5710   5719   5728     1  0.0000000  0.6508444  3
   5713   5725  10597  10593     1  180.0000771  0.4184000  2
   5713   5725  10597  10593     1  0.0000000  1.6024720  3
   5716   5722  10574  10570     1  180.0000771  0.4184000  2
   5716   5722  10574  10570     1  0.0000000  1.6024720  3
   5722  10574  10570  10569     1  180.0000771  0.4184000  2
   5722  10574  10570  10569     1  0.0000000  1.6024720  3
   5722  10574  10570  10586     1  180.0000771  5.6484000  1
   5722  10574  10570  10586     1  180.0000771  3.5564000  2
   5722  10574  10570  10586     1  0.0000000  0.4184000  3
   5725  10597  10593  10609     1  180.0000771  5.6484000  1
   5725  10597  10593  10609     1  180.0000771  3.5564000  2
   5725  10597  10593  10609     1  0.0000000  0.4184000  3
   5725  10597  10593  10592     1  180.0000771  0.4184000  2
   5725  10597  10593  10592     1  0.0000000  1.6024720  3
   5730   5731   5743   5755     1  0.0000000  0.6508444  3
   5730   5734   5746   5752     1  0.0000000  0.6508444  3
   5730   5737   5740   5749     1  0.0000000  0.6508444  3
   5731   5730   5734   5746     1  0.0000000  0.6508444  3
   5731   5730   5737   5740     1  0.0000000  0.6508444  3
   5731   5743   5755  10643     1  0.0000000  0.6508444  3
   5734   5730   5731   5743     1  0.0000000  0.6508444  3
   5734   5730   5737   5740     1  0.0000000  0.6508444  3
   5734   5746   5752  10620     1  0.0000000  0.6508444  3
   5737   5730   5731   5743     1  0.0000000  0.6508444  3
   5737   5730   5734   5746     1  0.0000000  0.6508444  3
   5737   5740   5749   5758     1  0.0000000  0.6508444  3
   5743   5755  10643  10639     1  180.0000771  0.4184000  2
   5743   5755  10643  10639     1  0.0000000  1.6024720  3
   5746   5752  10620  10616     1  180.0000771  0.4184000  2
   5746   5752  10620  10616     1  0.0000000  1.6024720  3
   5752  10620  10616  10615     1  180.0000771  0.4184000  2
   5752  10620  10616  10615     1  0.0000000  1.6024720  3
   5752  10620  10616  10632     1  180.0000771  5.6484000  1
   5752  10620  10616  10632     1  180.0000771  3.5564000  2
   5752  10620  10616  10632     1  0.0000000  0.4184000  3
   5755  10643  10639  10655     1  180.0000771  5.6484000  1
   5755  10643  10639  10655     1  180.0000771  3.5564000  2
   5755  10643  10639  10655     1  0.0000000  0.4184000  3
   5755  10643  10639  10638     1  180.0000771  0.4184000  2
   5755  10643  10639  10638     1  0.0000000  1.6024720  3
   5760   5761   5773   5785     1  0.0000000  0.6508444  3
   5760   5764   5776   5782     1  0.0000000  0.6508444  3
   5760   5767   5770   5779     1  0.0000000  0.6508444  3
   5761   5760   5764   5776     1  0.0000000  0.6508444  3
   5761   5760   5767   5770     1  0.0000000  0.6508444  3
   5761   5773   5785  10689     1  0.0000000  0.6508444  3
   5764   5760   5761   5773     1  0.0000000  0.6508444  3
   5764   5760   5767   5770     1  0.0000000  0.6508444  3
   5764   5776   5782  10666     1  0.0000000  0.6508444  3
   5767   5760   5761   5773     1  0.0000000  0.6508444  3
   5767   5760   5764   5776     1  0.0000000  0.6508444  3
   5767   5770   5779   5788     1  0.0000000  0.6508444  3
   5773   5785  10689  10685     1  180.0000771  0.4184000  2
   5773   5785  10689  10685     1  0.0000000  1.6024720  3
   5776   5782  10666  10662     1  180.0000771  0.4184000  2
   5776   5782  10666  10662     1  0.0000000  1.6024720  3
   5782  10666  10662  10661     1  180.0000771  0.4184000  2
   5782  10666  10662  10661     1  0.0000000  1.6024720  3
   5782  10666  10662  10678     1  180.0000771  5.6484000  1
   5782  10666  10662  10678     1  180.0000771  3.5564000  2
   5782  10666  10662  10678     1  0.0000000  0.4184000  3
   5785  10689  10685  10701     1  180.0000771  5.6484000  1
   5785  10689  10685  10701     1  180.0000771  3.5564000  2
   5785  10689  10685  10701     1  0.0000000  0.4184000  3
   5785  10689  10685  10684     1  180.0000771  0.4184000  2
   5785  10689  10685  10684     1  0.0000000  1.6024720  3
   5790   5791   5803   5815     1  0.0000000  0.6508444  3
   5790   5794   5806   5812     1  0.0000000  0.6508444  3
   5790   5797   5800   5809     1  0.0000000  0.6508444  3
   5791   5790   5794   5806     1  0.0000000  0.6508444  3
   5791   5790   5797   5800     1  0.0000000  0.6508444  3
   5791   5803   5815  10735     1  0.0000000  0.6508444  3
   5794   5790   5791   5803     1  0.0000000  0.6508444  3
   5794   5790   5797   5800     1  0.0000000  0.6508444  3
   5794   5806   5812  10712     1  0.0000000  0.6508444  3
   5797   5790   5791   5803     1  0.0000000  0.6508444  3
   5797   5790   5794   5806     1  0.0000000  0.6508444  3
   5797   5800   5809   5818     1  0.0000000  0.6508444  3
   5803   5815  10735  10731     1  180.0000771  0.4184000  2
   5803   5815  10735  10731     1  0.0000000  1.6024720  3
   5806   5812  10712  10708     1  180.0000771  0.4184000  2
   5806   5812  10712  10708     1  0.0000000  1.6024720  3
   5812  10712  10708  10707     1  180.0000771  0.4184000  2
   5812  10712  10708  10707     1  0.0000000  1.6024720  3
   5812  10712  10708  10724     1  180.0000771  5.6484000  1
   5812  10712  10708  10724     1  180.0000771  3.5564000  2
   5812  10712  10708  10724     1  0.0000000  0.4184000  3
   5815  10735  10731  10747     1  180.0000771  5.6484000  1
   5815  10735  10731  10747     1  180.0000771  3.5564000  2
   5815  10735  10731  10747     1  0.0000000  0.4184000  3
   5815  10735  10731  10730     1  180.0000771  0.4184000  2
   5815  10735  10731  10730     1  0.0000000  1.6024720  3
   5820   5821   5833   5845     1  0.0000000  0.6508444  3
   5820   5824   5836   5842     1  0.0000000  0.6508444  3
   5820   5827   5830   5839     1  0.0000000  0.6508444  3
   5821   5820   5824   5836     1  0.0000000  0.6508444  3
   5821   5820   5827   5830     1  0.0000000  0.6508444  3
   5821   5833   5845  10781     1  0.0000000  0.6508444  3
   5824   5820   5821   5833     1  0.0000000  0.6508444  3
   5824   5820   5827   5830     1  0.0000000  0.6508444  3
   5824   5836   5842  10758     1  0.0000000  0.6508444  3
   5827   5820   5821   5833     1  0.0000000  0.6508444  3
   5827   5820   5824   5836     1  0.0000000  0.6508444  3
   5827   5830   5839   5848     1  0.0000000  0.6508444  3
   5833   5845  10781  10777     1  180.0000771  0.4184000  2
   5833   5845  10781  10777     1  0.0000000  1.6024720  3
   5836   5842  10758  10754     1  180.0000771  0.4184000  2
   5836   5842  10758  10754     1  0.0000000  1.6024720  3
   5842  10758  10754  10753     1  180.0000771  0.4184000  2
   5842  10758  10754  10753     1  0.0000000  1.6024720  3
   5842  10758  10754  10770     1  180.0000771  5.6484000  1
   5842  10758  10754  10770     1  180.0000771  3.5564000  2
   5842  10758  10754  10770     1  0.0000000  0.4184000  3
   5845  10781  10777  10793     1  180.0000771  5.6484000  1
   5845  10781  10777  10793     1  180.0000771  3.5564000  2
   5845  10781  10777  10793     1  0.0000000  0.4184000  3
   5845  10781  10777  10776     1  180.0000771  0.4184000  2
   5845  10781  10777  10776     1  0.0000000  1.6024720  3
   5850   5851   5863   5875     1  0.0000000  0.6508444  3
   5850   5854   5866   5872     1  0.0000000  0.6508444  3
   5850   5857   5860   5869     1  0.0000000  0.6508444  3
   5851   5850   5854   5866     1  0.0000000  0.6508444  3
   5851   5850   5857   5860     1  0.0000000  0.6508444  3
   5851   5863   5875  10827     1  0.0000000  0.6508444  3
   5854   5850   5851   5863     1  0.0000000  0.6508444  3
   5854   5850   5857   5860     1  0.0000000  0.6508444  3
   5854   5866   5872  10804     1  0.0000000  0.6508444  3
   5857   5850   5851   5863     1  0.0000000  0.6508444  3
   5857   5850   5854   5866     1  0.0000000  0.6508444  3
   5857   5860   5869   5878     1  0.0000000  0.6508444  3
   5863   5875  10827  10823     1  180.0000771  0.4184000  2
   5863   5875  10827  10823     1  0.0000000  1.6024720  3
   5866   5872  10804  10800     1  180.0000771  0.4184000  2
   5866   5872  10804  10800     1  0.0000000  1.6024720  3
   5872  10804  10800  10799     1  180.0000771  0.4184000  2
   5872  10804  10800  10799     1  0.0000000  1.6024720  3
   5872  10804  10800  10816     1  180.0000771  5.6484000  1
   5872  10804  10800  10816     1  180.0000771  3.5564000  2
   5872  10804  10800  10816     1  0.0000000  0.4184000  3
   5875  10827  10823  10839     1  180.0000771  5.6484000  1
   5875  10827  10823  10839     1  180.0000771  3.5564000  2
   5875  10827  10823  10839     1  0.0000000  0.4184000  3
   5875  10827  10823  10822     1  180.0000771  0.4184000  2
   5875  10827  10823  10822     1  0.0000000  1.6024720  3
   5880   5881   5893   5905     1  0.0000000  0.6508444  3
   5880   5884   5896   5902     1  0.0000000  0.6508444  3
   5880   5887   5890   5899     1  0.0000000  0.6508444  3
   5881   5880   5884   5896     1  0.0000000  0.6508444  3
   5881   5880   5887   5890     1  0.0000000  0.6508444  3
   5881   5893   5905  10873     1  0.0000000  0.6508444  3
   5884   5880   5881   5893     1  0.0000000  0.6508444  3
   5884   5880   5887   5890     1  0.0000000  0.6508444  3
   5884   5896   5902  10850     1  0.0000000  0.6508444  3
   5887   5880   5881   5893     1  0.0000000  0.6508444  3
   5887   5880   5884   5896     1  0.0000000  0.6508444  3
   5887   5890   5899   5908     1  0.0000000  0.6508444  3
   5893   5905  10873  10869     1  180.0000771  0.4184000  2
   5893   5905  10873  10869     1  0.0000000  1.6024720  3
   5896   5902  10850  10846     1  180.0000771  0.4184000  2
   5896   5902  10850  10846     1  0.0000000  1.6024720  3
   5902  10850  10846  10845     1  180.0000771  0.4184000  2
   5902  10850  10846  10845     1  0.0000000  1.6024720  3
   5902  10850  10846  10862     1  180.0000771  5.6484000  1
   5902  10850  10846  10862     1  180.0000771  3.5564000  2
   5902  10850  10846  10862     1  0.0000000  0.4184000  3
   5905  10873  10869  10885     1  180.0000771  5.6484000  1
   5905  10873  10869  10885     1  180.0000771  3.5564000  2
   5905  10873  10869  10885     1  0.0000000  0.4184000  3
   5905  10873  10869  10868     1  180.0000771  0.4184000  2
   5905  10873  10869  10868     1  0.0000000  1.6024720  3
   5910   5911   5923   5935     1  0.0000000  0.6508444  3
   5910   5914   5926   5932     1  0.0000000  0.6508444  3
   5910   5917   5920   5929     1  0.0000000  0.6508444  3
   5911   5910   5914   5926     1  0.0000000  0.6508444  3
   5911   5910   5917   5920     1  0.0000000  0.6508444  3
   5911   5923   5935  10919     1  0.0000000  0.6508444  3
   5914   5910   5911   5923     1  0.0000000  0.6508444  3
   5914   5910   5917   5920     1  0.0000000  0.6508444  3
   5914   5926   5932  10896     1  0.0000000  0.6508444  3
   5917   5910   5911   5923     1  0.0000000  0.6508444  3
   5917   5910   5914   5926     1  0.0000000  0.6508444  3
   5917   5920   5929   5938     1  0.0000000  0.6508444  3
   5923   5935  10919  10915     1  180.0000771  0.4184000  2
   5923   5935  10919  10915     1  0.0000000  1.6024720  3
   5926   5932  10896  10892     1  180.0000771  0.4184000  2
   5926   5932  10896  10892     1  0.0000000  1.6024720  3
   5932  10896  10892  10891     1  180.0000771  0.4184000  2
   5932  10896  10892  10891     1  0.0000000  1.6024720  3
   5932  10896  10892  10908     1  180.0000771  5.6484000  1
   5932  10896  10892  10908     1  180.0000771  3.5564000  2
   5932  10896  10892  10908     1  0.0000000  0.4184000  3
   5935  10919  10915  10931     1  180.0000771  5.6484000  1
   5935  10919  10915  10931     1  180.0000771  3.5564000  2
   5935  10919  10915  10931     1  0.0000000  0.4184000  3
   5935  10919  10915  10914     1  180.0000771  0.4184000  2
   5935  10919  10915  10914     1  0.0000000  1.6024720  3
   5940   5941   5953   5965     1  0.0000000  0.6508444  3
   5940   5944   5956   5962     1  0.0000000  0.6508444  3
   5940   5947   5950   5959     1  0.0000000  0.6508444  3
   5941   5940   5944   5956     1  0.0000000  0.6508444  3
   5941   5940   5947   5950     1  0.0000000  0.6508444  3
   5941   5953   5965  10965     1  0.0000000  0.6508444  3
   5944   5940   5941   5953     1  0.0000000  0.6508444  3
   5944   5940   5947   5950     1  0.0000000  0.6508444  3
   5944   5956   5962  10942     1  0.0000000  0.6508444  3
   5947   5940   5941   5953     1  0.0000000  0.6508444  3
   5947   5940   5944   5956     1  0.0000000  0.6508444  3
   5947   5950   5959   5968     1  0.0000000  0.6508444  3
   5953   5965  10965  10961     1  180.0000771  0.4184000  2
   5953   5965  10965  10961     1  0.0000000  1.6024720  3
   5956   5962  10942  10938     1  180.0000771  0.4184000  2
   5956   5962  10942  10938     1  0.0000000  1.6024720  3
   5962  10942  10938  10937     1  180.0000771  0.4184000  2
   5962  10942  10938  10937     1  0.0000000  1.6024720  3
   5962  10942  10938  10954     1  180.0000771  5.6484000  1
   5962  10942  10938  10954     1  180.0000771  3.5564000  2
   5962  10942  10938  10954     1  0.0000000  0.4184000  3
   5965  10965  10961  10977     1  180.0000771  5.6484000  1
   5965  10965  10961  10977     1  180.0000771  3.5564000  2
   5965  10965  10961  10977     1  0.0000000  0.4184000  3
   5965  10965  10961  10960     1  180.0000771  0.4184000  2
   5965  10965  10961  10960     1  0.0000000  1.6024720  3
   5970   5971   5983   5995     1  0.0000000  0.6508444  3
   5970   5974   5986   5992     1  0.0000000  0.6508444  3
   5970   5977   5980   5989     1  0.0000000  0.6508444  3
   5971   5970   5974   5986     1  0.0000000  0.6508444  3
   5971   5970   5977   5980     1  0.0000000  0.6508444  3
   5971   5983   5995  11011     1  0.0000000  0.6508444  3
   5974   5970   5971   5983     1  0.0000000  0.6508444  3
   5974   5970   5977   5980     1  0.0000000  0.6508444  3
   5974   5986   5992  10988     1  0.0000000  0.6508444  3
   5977   5970   5971   5983     1  0.0000000  0.6508444  3
   5977   5970   5974   5986     1  0.0000000  0.6508444  3
   5977   5980   5989   5998     1  0.0000000  0.6508444  3
   5983   5995  11011  11007     1  180.0000771  0.4184000  2
   5983   5995  11011  11007     1  0.0000000  1.6024720  3
   5986   5992  10988  10984     1  180.0000771  0.4184000  2
   5986   5992  10988  10984     1  0.0000000  1.6024720  3
   5992  10988  10984  10983     1  180.0000771  0.4184000  2
   5992  10988  10984  10983     1  0.0000000  1.6024720  3
   5992  10988  10984  11000     1  180.0000771  5.6484000  1
   5992  10988  10984  11000     1  180.0000771  3.5564000  2
   5992  10988  10984  11000     1  0.0000000  0.4184000  3
   5995  11011  11007  11023     1  180.0000771  5.6484000  1
   5995  11011  11007  11023     1  180.0000771  3.5564000  2
   5995  11011  11007  11023     1  0.0000000  0.4184000  3
   5995  11011  11007  11006     1  180.0000771  0.4184000  2
   5995  11011  11007  11006     1  0.0000000  1.6024720  3
   6000   6001   6013   6025     1  0.0000000  0.6508444  3
   6000   6004   6016   6022     1  0.0000000  0.6508444  3
   6000   6007   6010   6019     1  0.0000000  0.6508444  3
   6001   6000   6004   6016     1  0.0000000  0.6508444  3
   6001   6000   6007   6010     1  0.0000000  0.6508444  3
   6001   6013   6025  11057     1  0.0000000  0.6508444  3
   6004   6000   6001   6013     1  0.0000000  0.6508444  3
   6004   6000   6007   6010     1  0.0000000  0.6508444  3
   6004   6016   6022  11034     1  0.0000000  0.6508444  3
   6007   6000   6001   6013     1  0.0000000  0.6508444  3
   6007   6000   6004   6016     1  0.0000000  0.6508444  3
   6007   6010   6019   6028     1  0.0000000  0.6508444  3
   6013   6025  11057  11053     1  180.0000771  0.4184000  2
   6013   6025  11057  11053     1  0.0000000  1.6024720  3
   6016   6022  11034  11030     1  180.0000771  0.4184000  2
   6016   6022  11034  11030     1  0.0000000  1.6024720  3
   6022  11034  11030  11029     1  180.0000771  0.4184000  2
   6022  11034  11030  11029     1  0.0000000  1.6024720  3
   6022  11034  11030  11046     1  180.0000771  5.6484000  1
   6022  11034  11030  11046     1  180.0000771  3.5564000  2
   6022  11034  11030  11046     1  0.0000000  0.4184000  3
   6025  11057  11053  11069     1  180.0000771  5.6484000  1
   6025  11057  11053  11069     1  180.0000771  3.5564000  2
   6025  11057  11053  11069     1  0.0000000  0.4184000  3
   6025  11057  11053  11052     1  180.0000771  0.4184000  2
   6025  11057  11053  11052     1  0.0000000  1.6024720  3
   6030   6031   6043   6055     1  0.0000000  0.6508444  3
   6030   6034   6046   6052     1  0.0000000  0.6508444  3
   6030   6037   6040   6049     1  0.0000000  0.6508444  3
   6031   6030   6034   6046     1  0.0000000  0.6508444  3
   6031   6030   6037   6040     1  0.0000000  0.6508444  3
   6031   6043   6055  11103     1  0.0000000  0.6508444  3
   6034   6030   6031   6043     1  0.0000000  0.6508444  3
   6034   6030   6037   6040     1  0.0000000  0.6508444  3
   6034   6046   6052  11080     1  0.0000000  0.6508444  3
   6037   6030   6031   6043     1  0.0000000  0.6508444  3
   6037   6030   6034   6046     1  0.0000000  0.6508444  3
   6037   6040   6049   6058     1  0.0000000  0.6508444  3
   6043   6055  11103  11099     1  180.0000771  0.4184000  2
   6043   6055  11103  11099     1  0.0000000  1.6024720  3
   6046   6052  11080  11076     1  180.0000771  0.4184000  2
   6046   6052  11080  11076     1  0.0000000  1.6024720  3
   6052  11080  11076  11075     1  180.0000771  0.4184000  2
   6052  11080  11076  11075     1  0.0000000  1.6024720  3
   6052  11080  11076  11092     1  180.0000771  5.6484000  1
   6052  11080  11076  11092     1  180.0000771  3.5564000  2
   6052  11080  11076  11092     1  0.0000000  0.4184000  3
   6055  11103  11099  11115     1  180.0000771  5.6484000  1
   6055  11103  11099  11115     1  180.0000771  3.5564000  2
   6055  11103  11099  11115     1  0.0000000  0.4184000  3
   6055  11103  11099  11098     1  180.0000771  0.4184000  2
   6055  11103  11099  11098     1  0.0000000  1.6024720  3
   6060   6061   6073   6085     1  0.0000000  0.6508444  3
   6060   6064   6076   6082     1  0.0000000  0.6508444  3
   6060   6067   6070   6079     1  0.0000000  0.6508444  3
   6061   6060   6064   6076     1  0.0000000  0.6508444  3
   6061   6060   6067   6070     1  0.0000000  0.6508444  3
   6061   6073   6085  11149     1  0.0000000  0.6508444  3
   6064   6060   6061   6073     1  0.0000000  0.6508444  3
   6064   6060   6067   6070     1  0.0000000  0.6508444  3
   6064   6076   6082  11126     1  0.0000000  0.6508444  3
   6067   6060   6061   6073     1  0.0000000  0.6508444  3
   6067   6060   6064   6076     1  0.0000000  0.6508444  3
   6067   6070   6079   6088     1  0.0000000  0.6508444  3
   6073   6085  11149  11145     1  180.0000771  0.4184000  2
   6073   6085  11149  11145     1  0.0000000  1.6024720  3
   6076   6082  11126  11122     1  180.0000771  0.4184000  2
   6076   6082  11126  11122     1  0.0000000  1.6024720  3
   6082  11126  11122  11121     1  180.0000771  0.4184000  2
   6082  11126  11122  11121     1  0.0000000  1.6024720  3
   6082  11126  11122  11138     1  180.0000771  5.6484000  1
   6082  11126  11122  11138     1  180.0000771  3.5564000  2
   6082  11126  11122  11138     1  0.0000000  0.4184000  3
   6085  11149  11145  11161     1  180.0000771  5.6484000  1
   6085  11149  11145  11161     1  180.0000771  3.5564000  2
   6085  11149  11145  11161     1  0.0000000  0.4184000  3
   6085  11149  11145  11144     1  180.0000771  0.4184000  2
   6085  11149  11145  11144     1  0.0000000  1.6024720  3
   6090   6091   6103   6115     1  0.0000000  0.6508444  3
   6090   6094   6106   6112     1  0.0000000  0.6508444  3
   6090   6097   6100   6109     1  0.0000000  0.6508444  3
   6091   6090   6094   6106     1  0.0000000  0.6508444  3
   6091   6090   6097   6100     1  0.0000000  0.6508444  3
   6091   6103   6115  11195     1  0.0000000  0.6508444  3
   6094   6090   6091   6103     1  0.0000000  0.6508444  3
   6094   6090   6097   6100     1  0.0000000  0.6508444  3
   6094   6106   6112  11172     1  0.0000000  0.6508444  3
   6097   6090   6091   6103     1  0.0000000  0.6508444  3
   6097   6090   6094   6106     1  0.0000000  0.6508444  3
   6097   6100   6109   6118     1  0.0000000  0.6508444  3
   6103   6115  11195  11191     1  180.0000771  0.4184000  2
   6103   6115  11195  11191     1  0.0000000  1.6024720  3
   6106   6112  11172  11168     1  180.0000771  0.4184000  2
   6106   6112  11172  11168     1  0.0000000  1.6024720  3
   6112  11172  11168  11167     1  180.0000771  0.4184000  2
   6112  11172  11168  11167     1  0.0000000  1.6024720  3
   6112  11172  11168  11184     1  180.0000771  5.6484000  1
   6112  11172  11168  11184     1  180.0000771  3.5564000  2
   6112  11172  11168  11184     1  0.0000000  0.4184000  3
   6115  11195  11191  11207     1  180.0000771  5.6484000  1
   6115  11195  11191  11207     1  180.0000771  3.5564000  2
   6115  11195  11191  11207     1  0.0000000  0.4184000  3
   6115  11195  11191  11190     1  180.0000771  0.4184000  2
   6115  11195  11191  11190     1  0.0000000  1.6024720  3
   6120   6121   6133   6145     1  0.0000000  0.6508444  3
   6120   6124   6136   6142     1  0.0000000  0.6508444  3
   6120   6127   6130   6139     1  0.0000000  0.6508444  3
   6121   6120   6124   6136     1  0.0000000  0.6508444  3
   6121   6120   6127   6130     1  0.0000000  0.6508444  3
   6121   6133   6145  11241     1  0.0000000  0.6508444  3
   6124   6120   6121   6133     1  0.0000000  0.6508444  3
   6124   6120   6127   6130     1  0.0000000  0.6508444  3
   6124   6136   6142  11218     1  0.0000000  0.6508444  3
   6127   6120   6121   6133     1  0.0000000  0.6508444  3
   6127   6120   6124   6136     1  0.0000000  0.6508444  3
   6127   6130   6139   6148     1  0.0000000  0.6508444  3
   6133   6145  11241  11237     1  180.0000771  0.4184000  2
   6133   6145  11241  11237     1  0.0000000  1.6024720  3
   6136   6142  11218  11214     1  180.0000771  0.4184000  2
   6136   6142  11218  11214     1  0.0000000  1.6024720  3
   6142  11218  11214  11213     1  180.0000771  0.4184000  2
   6142  11218  11214  11213     1  0.0000000  1.6024720  3
   6142  11218  11214  11230     1  180.0000771  5.6484000  1
   6142  11218  11214  11230     1  180.0000771  3.5564000  2
   6142  11218  11214  11230     1  0.0000000  0.4184000  3
   6145  11241  11237  11253     1  180.0000771  5.6484000  1
   6145  11241  11237  11253     1  180.0000771  3.5564000  2
   6145  11241  11237  11253     1  0.0000000  0.4184000  3
   6145  11241  11237  11236     1  180.0000771  0.4184000  2
   6145  11241  11237  11236     1  0.0000000  1.6024720  3
   6150   6151   6163   6175     1  0.0000000  0.6508444  3
   6150   6154   6166   6172     1  0.0000000  0.6508444  3
   6150   6157   6160   6169     1  0.0000000  0.6508444  3
   6151   6150   6154   6166     1  0.0000000  0.6508444  3
   6151   6150   6157   6160     1  0.0000000  0.6508444  3
   6151   6163   6175  11287     1  0.0000000  0.6508444  3
   6154   6150   6151   6163     1  0.0000000  0.6508444  3
   6154   6150   6157   6160     1  0.0000000  0.6508444  3
   6154   6166   6172  11264     1  0.0000000  0.6508444  3
   6157   6150   6151   6163     1  0.0000000  0.6508444  3
   6157   6150   6154   6166     1  0.0000000  0.6508444  3
   6157   6160   6169   6178     1  0.0000000  0.6508444  3
   6163   6175  11287  11283     1  180.0000771  0.4184000  2
   6163   6175  11287  11283     1  0.0000000  1.6024720  3
   6166   6172  11264  11260     1  180.0000771  0.4184000  2
   6166   6172  11264  11260     1  0.0000000  1.6024720  3
   6172  11264  11260  11259     1  180.0000771  0.4184000  2
   6172  11264  11260  11259     1  0.0000000  1.6024720  3
   6172  11264  11260  11276     1  180.0000771  5.6484000  1
   6172  11264  11260  11276     1  180.0000771  3.5564000  2
   6172  11264  11260  11276     1  0.0000000  0.4184000  3
   6175  11287  11283  11299     1  180.0000771  5.6484000  1
   6175  11287  11283  11299     1  180.0000771  3.5564000  2
   6175  11287  11283  11299     1  0.0000000  0.4184000  3
   6175  11287  11283  11282     1  180.0000771  0.4184000  2
   6175  11287  11283  11282     1  0.0000000  1.6024720  3
   6180   6181   6193   6205     1  0.0000000  0.6508444  3
   6180   6184   6196   6202     1  0.0000000  0.6508444  3
   6180   6187   6190   6199     1  0.0000000  0.6508444  3
   6181   6180   6184   6196     1  0.0000000  0.6508444  3
   6181   6180   6187   6190     1  0.0000000  0.6508444  3
   6181   6193   6205  11333     1  0.0000000  0.6508444  3
   6184   6180   6181   6193     1  0.0000000  0.6508444  3
   6184   6180   6187   6190     1  0.0000000  0.6508444  3
   6184   6196   6202  11310     1  0.0000000  0.6508444  3
   6187   6180   6181   6193     1  0.0000000  0.6508444  3
   6187   6180   6184   6196     1  0.0000000  0.6508444  3
   6187   6190   6199   6208     1  0.0000000  0.6508444  3
   6193   6205  11333  11329     1  180.0000771  0.4184000  2
   6193   6205  11333  11329     1  0.0000000  1.6024720  3
   6196   6202  11310  11306     1  180.0000771  0.4184000  2
   6196   6202  11310  11306     1  0.0000000  1.6024720  3
   6202  11310  11306  11305     1  180.0000771  0.4184000  2
   6202  11310  11306  11305     1  0.0000000  1.6024720  3
   6202  11310  11306  11322     1  180.0000771  5.6484000  1
   6202  11310  11306  11322     1  180.0000771  3.5564000  2
   6202  11310  11306  11322     1  0.0000000  0.4184000  3
   6205  11333  11329  11345     1  180.0000771  5.6484000  1
   6205  11333  11329  11345     1  180.0000771  3.5564000  2
   6205  11333  11329  11345     1  0.0000000  0.4184000  3
   6205  11333  11329  11328     1  180.0000771  0.4184000  2
   6205  11333  11329  11328     1  0.0000000  1.6024720  3
   6210   6211   6223   6235     1  0.0000000  0.6508444  3
   6210   6214   6226   6232     1  0.0000000  0.6508444  3
   6210   6217   6220   6229     1  0.0000000  0.6508444  3
   6211   6210   6214   6226     1  0.0000000  0.6508444  3
   6211   6210   6217   6220     1  0.0000000  0.6508444  3
   6211   6223   6235  11379     1  0.0000000  0.6508444  3
   6214   6210   6211   6223     1  0.0000000  0.6508444  3
   6214   6210   6217   6220     1  0.0000000  0.6508444  3
   6214   6226   6232  11356     1  0.0000000  0.6508444  3
   6217   6210   6211   6223     1  0.0000000  0.6508444  3
   6217   6210   6214   6226     1  0.0000000  0.6508444  3
   6217   6220   6229   6238     1  0.0000000  0.6508444  3
   6223   6235  11379  11375     1  180.0000771  0.4184000  2
   6223   6235  11379  11375     1  0.0000000  1.6024720  3
   6226   6232  11356  11352     1  180.0000771  0.4184000  2
   6226   6232  11356  11352     1  0.0000000  1.6024720  3
   6232  11356  11352  11351     1  180.0000771  0.4184000  2
   6232  11356  11352  11351     1  0.0000000  1.6024720  3
   6232  11356  11352  11368     1  180.0000771  5.6484000  1
   6232  11356  11352  11368     1  180.0000771  3.5564000  2
   6232  11356  11352  11368     1  0.0000000  0.4184000  3
   6235  11379  11375  11391     1  180.0000771  5.6484000  1
   6235  11379  11375  11391     1  180.0000771  3.5564000  2
   6235  11379  11375  11391     1  0.0000000  0.4184000  3
   6235  11379  11375  11374     1  180.0000771  0.4184000  2
   6235  11379  11375  11374     1  0.0000000  1.6024720  3
   6240   6241   6253   6265     1  0.0000000  0.6508444  3
   6240   6244   6256   6262     1  0.0000000  0.6508444  3
   6240   6247   6250   6259     1  0.0000000  0.6508444  3
   6241   6240   6244   6256     1  0.0000000  0.6508444  3
   6241   6240   6247   6250     1  0.0000000  0.6508444  3
   6241   6253   6265  11425     1  0.0000000  0.6508444  3
   6244   6240   6241   6253     1  0.0000000  0.6508444  3
   6244   6240   6247   6250     1  0.0000000  0.6508444  3
   6244   6256   6262  11402     1  0.0000000  0.6508444  3
   6247   6240   6241   6253     1  0.0000000  0.6508444  3
   6247   6240   6244   6256     1  0.0000000  0.6508444  3
   6247   6250   6259   6268     1  0.0000000  0.6508444  3
   6253   6265  11425  11421     1  180.0000771  0.4184000  2
   6253   6265  11425  11421     1  0.0000000  1.6024720  3
   6256   6262  11402  11398     1  180.0000771  0.4184000  2
   6256   6262  11402  11398     1  0.0000000  1.6024720  3
   6262  11402  11398  11397     1  180.0000771  0.4184000  2
   6262  11402  11398  11397     1  0.0000000  1.6024720  3
   6262  11402  11398  11414     1  180.0000771  5.6484000  1
   6262  11402  11398  11414     1  180.0000771  3.5564000  2
   6262  11402  11398  11414     1  0.0000000  0.4184000  3
   6265  11425  11421  11437     1  180.0000771  5.6484000  1
   6265  11425  11421  11437     1  180.0000771  3.5564000  2
   6265  11425  11421  11437     1  0.0000000  0.4184000  3
   6265  11425  11421  11420     1  180.0000771  0.4184000  2
   6265  11425  11421  11420     1  0.0000000  1.6024720  3
   6270   6271   6283   6295     1  0.0000000  0.6508444  3
   6270   6274   6286   6292     1  0.0000000  0.6508444  3
   6270   6277   6280   6289     1  0.0000000  0.6508444  3
   6271   6270   6274   6286     1  0.0000000  0.6508444  3
   6271   6270   6277   6280     1  0.0000000  0.6508444  3
   6271   6283   6295  11471     1  0.0000000  0.6508444  3
   6274   6270   6271   6283     1  0.0000000  0.6508444  3
   6274   6270   6277   6280     1  0.0000000  0.6508444  3
   6274   6286   6292  11448     1  0.0000000  0.6508444  3
   6277   6270   6271   6283     1  0.0000000  0.6508444  3
   6277   6270   6274   6286     1  0.0000000  0.6508444  3
   6277   6280   6289   6298     1  0.0000000  0.6508444  3
   6283   6295  11471  11467     1  180.0000771  0.4184000  2
   6283   6295  11471  11467     1  0.0000000  1.6024720  3
   6286   6292  11448  11444     1  180.0000771  0.4184000  2
   6286   6292  11448  11444     1  0.0000000  1.6024720  3
   6292  11448  11444  11443     1  180.0000771  0.4184000  2
   6292  11448  11444  11443     1  0.0000000  1.6024720  3
   6292  11448  11444  11460     1  180.0000771  5.6484000  1
   6292  11448  11444  11460     1  180.0000771  3.5564000  2
   6292  11448  11444  11460     1  0.0000000  0.4184000  3
   6295  11471  11467  11483     1  180.0000771  5.6484000  1
   6295  11471  11467  11483     1  180.0000771  3.5564000  2
   6295  11471  11467  11483     1  0.0000000  0.4184000  3
   6295  11471  11467  11466     1  180.0000771  0.4184000  2
   6295  11471  11467  11466     1  0.0000000  1.6024720  3
   6300   6301   6313   6325     1  0.0000000  0.6508444  3
   6300   6304   6316   6322     1  0.0000000  0.6508444  3
   6300   6307   6310   6319     1  0.0000000  0.6508444  3
   6301   6300   6304   6316     1  0.0000000  0.6508444  3
   6301   6300   6307   6310     1  0.0000000  0.6508444  3
   6301   6313   6325  11517     1  0.0000000  0.6508444  3
   6304   6300   6301   6313     1  0.0000000  0.6508444  3
   6304   6300   6307   6310     1  0.0000000  0.6508444  3
   6304   6316   6322  11494     1  0.0000000  0.6508444  3
   6307   6300   6301   6313     1  0.0000000  0.6508444  3
   6307   6300   6304   6316     1  0.0000000  0.6508444  3
   6307   6310   6319   6328     1  0.0000000  0.6508444  3
   6313   6325  11517  11513     1  180.0000771  0.4184000  2
   6313   6325  11517  11513     1  0.0000000  1.6024720  3
   6316   6322  11494  11490     1  180.0000771  0.4184000  2
   6316   6322  11494  11490     1  0.0000000  1.6024720  3
   6322  11494  11490  11489     1  180.0000771  0.4184000  2
   6322  11494  11490  11489     1  0.0000000  1.6024720  3
   6322  11494  11490  11506     1  180.0000771  5.6484000  1
   6322  11494  11490  11506     1  180.0000771  3.5564000  2
   6322  11494  11490  11506     1  0.0000000  0.4184000  3
   6325  11517  11513  11529     1  180.0000771  5.6484000  1
   6325  11517  11513  11529     1  180.0000771  3.5564000  2
   6325  11517  11513  11529     1  0.0000000  0.4184000  3
   6325  11517  11513  11512     1  180.0000771  0.4184000  2
   6325  11517  11513  11512     1  0.0000000  1.6024720  3
   6330   6331   6343   6355     1  0.0000000  0.6508444  3
   6330   6334   6346   6352     1  0.0000000  0.6508444  3
   6330   6337   6340   6349     1  0.0000000  0.6508444  3
   6331   6330   6334   6346     1  0.0000000  0.6508444  3
   6331   6330   6337   6340     1  0.0000000  0.6508444  3
   6331   6343   6355  11563     1  0.0000000  0.6508444  3
   6334   6330   6331   6343     1  0.0000000  0.6508444  3
   6334   6330   6337   6340     1  0.0000000  0.6508444  3
   6334   6346   6352  11540     1  0.0000000  0.6508444  3
   6337   6330   6331   6343     1  0.0000000  0.6508444  3
   6337   6330   6334   6346     1  0.0000000  0.6508444  3
   6337   6340   6349   6358     1  0.0000000  0.6508444  3
   6343   6355  11563  11559     1  180.0000771  0.4184000  2
   6343   6355  11563  11559     1  0.0000000  1.6024720  3
   6346   6352  11540  11536     1  180.0000771  0.4184000  2
   6346   6352  11540  11536     1  0.0000000  1.6024720  3
   6352  11540  11536  11535     1  180.0000771  0.4184000  2
   6352  11540  11536  11535     1  0.0000000  1.6024720  3
   6352  11540  11536  11552     1  180.0000771  5.6484000  1
   6352  11540  11536  11552     1  180.0000771  3.5564000  2
   6352  11540  11536  11552     1  0.0000000  0.4184000  3
   6355  11563  11559  11575     1  180.0000771  5.6484000  1
   6355  11563  11559  11575     1  180.0000771  3.5564000  2
   6355  11563  11559  11575     1  0.0000000  0.4184000  3
   6355  11563  11559  11558     1  180.0000771  0.4184000  2
   6355  11563  11559  11558     1  0.0000000  1.6024720  3
   6360   6361   6373   6385     1  0.0000000  0.6508444  3
   6360   6364   6376   6382     1  0.0000000  0.6508444  3
   6360   6367   6370   6379     1  0.0000000  0.6508444  3
   6361   6360   6364   6376     1  0.0000000  0.6508444  3
   6361   6360   6367   6370     1  0.0000000  0.6508444  3
   6361   6373   6385  11609     1  0.0000000  0.6508444  3
   6364   6360   6361   6373     1  0.0000000  0.6508444  3
   6364   6360   6367   6370     1  0.0000000  0.6508444  3
   6364   6376   6382  11586     1  0.0000000  0.6508444  3
   6367   6360   6361   6373     1  0.0000000  0.6508444  3
   6367   6360   6364   6376     1  0.0000000  0.6508444  3
   6367   6370   6379   6388     1  0.0000000  0.6508444  3
   6373   6385  11609  11605     1  180.0000771  0.4184000  2
   6373   6385  11609  11605     1  0.0000000  1.6024720  3
   6376   6382  11586  11582     1  180.0000771  0.4184000  2
   6376   6382  11586  11582     1  0.0000000  1.6024720  3
   6382  11586  11582  11581     1  180.0000771  0.4184000  2
   6382  11586  11582  11581     1  0.0000000  1.6024720  3
   6382  11586  11582  11598     1  180.0000771  5.6484000  1
   6382  11586  11582  11598     1  180.0000771  3.5564000  2
   6382  11586  11582  11598     1  0.0000000  0.4184000  3
   6385  11609  11605  11621     1  180.0000771  5.6484000  1
   6385  11609  11605  11621     1  180.0000771  3.5564000  2
   6385  11609  11605  11621     1  0.0000000  0.4184000  3
   6385  11609  11605  11604     1  180.0000771  0.4184000  2
   6385  11609  11605  11604     1  0.0000000  1.6024720  3
   6390   6391   6403   6415     1  0.0000000  0.6508444  3
   6390   6394   6406   6412     1  0.0000000  0.6508444  3
   6390   6397   6400   6409     1  0.0000000  0.6508444  3
   6391   6390   6394   6406     1  0.0000000  0.6508444  3
   6391   6390   6397   6400     1  0.0000000  0.6508444  3
   6391   6403   6415  11655     1  0.0000000  0.6508444  3
   6394   6390   6391   6403     1  0.0000000  0.6508444  3
   6394   6390   6397   6400     1  0.0000000  0.6508444  3
   6394   6406   6412  11632     1  0.0000000  0.6508444  3
   6397   6390   6391   6403     1  0.0000000  0.6508444  3
   6397   6390   6394   6406     1  0.0000000  0.6508444  3
   6397   6400   6409   6418     1  0.0000000  0.6508444  3
   6403   6415  11655  11651     1  180.0000771  0.4184000  2
   6403   6415  11655  11651     1  0.0000000  1.6024720  3
   6406   6412  11632  11628     1  180.0000771  0.4184000  2
   6406   6412  11632  11628     1  0.0000000  1.6024720  3
   6412  11632  11628  11627     1  180.0000771  0.4184000  2
   6412  11632  11628  11627     1  0.0000000  1.6024720  3
   6412  11632  11628  11644     1  180.0000771  5.6484000  1
   6412  11632  11628  11644     1  180.0000771  3.5564000  2
   6412  11632  11628  11644     1  0.0000000  0.4184000  3
   6415  11655  11651  11667     1  180.0000771  5.6484000  1
   6415  11655  11651  11667     1  180.0000771  3.5564000  2
   6415  11655  11651  11667     1  0.0000000  0.4184000  3
   6415  11655  11651  11650     1  180.0000771  0.4184000  2
   6415  11655  11651  11650     1  0.0000000  1.6024720  3
   6420   6421   6433   6445     1  0.0000000  0.6508444  3
   6420   6424   6436   6442     1  0.0000000  0.6508444  3
   6420   6427   6430   6439     1  0.0000000  0.6508444  3
   6421   6420   6424   6436     1  0.0000000  0.6508444  3
   6421   6420   6427   6430     1  0.0000000  0.6508444  3
   6421   6433   6445  11701     1  0.0000000  0.6508444  3
   6424   6420   6421   6433     1  0.0000000  0.6508444  3
   6424   6420   6427   6430     1  0.0000000  0.6508444  3
   6424   6436   6442  11678     1  0.0000000  0.6508444  3
   6427   6420   6421   6433     1  0.0000000  0.6508444  3
   6427   6420   6424   6436     1  0.0000000  0.6508444  3
   6427   6430   6439   6448     1  0.0000000  0.6508444  3
   6433   6445  11701  11697     1  180.0000771  0.4184000  2
   6433   6445  11701  11697     1  0.0000000  1.6024720  3
   6436   6442  11678  11674     1  180.0000771  0.4184000  2
   6436   6442  11678  11674     1  0.0000000  1.6024720  3
   6442  11678  11674  11673     1  180.0000771  0.4184000  2
   6442  11678  11674  11673     1  0.0000000  1.6024720  3
   6442  11678  11674  11690     1  180.0000771  5.6484000  1
   6442  11678  11674  11690     1  180.0000771  3.5564000  2
   6442  11678  11674  11690     1  0.0000000  0.4184000  3
   6445  11701  11697  11713     1  180.0000771  5.6484000  1
   6445  11701  11697  11713     1  180.0000771  3.5564000  2
   6445  11701  11697  11713     1  0.0000000  0.4184000  3
   6445  11701  11697  11696     1  180.0000771  0.4184000  2
   6445  11701  11697  11696     1  0.0000000  1.6024720  3
   6450   6451   6463   6475     1  0.0000000  0.6508444  3
   6450   6454   6466   6472     1  0.0000000  0.6508444  3
   6450   6457   6460   6469     1  0.0000000  0.6508444  3
   6451   6450   6454   6466     1  0.0000000  0.6508444  3
   6451   6450   6457   6460     1  0.0000000  0.6508444  3
   6451   6463   6475  11747     1  0.0000000  0.6508444  3
   6454   6450   6451   6463     1  0.0000000  0.6508444  3
   6454   6450   6457   6460     1  0.0000000  0.6508444  3
   6454   6466   6472  11724     1  0.0000000  0.6508444  3
   6457   6450   6451   6463     1  0.0000000  0.6508444  3
   6457   6450   6454   6466     1  0.0000000  0.6508444  3
   6457   6460   6469   6478     1  0.0000000  0.6508444  3
   6463   6475  11747  11743     1  180.0000771  0.4184000  2
   6463   6475  11747  11743     1  0.0000000  1.6024720  3
   6466   6472  11724  11720     1  180.0000771  0.4184000  2
   6466   6472  11724  11720     1  0.0000000  1.6024720  3
   6472  11724  11720  11719     1  180.0000771  0.4184000  2
   6472  11724  11720  11719     1  0.0000000  1.6024720  3
   6472  11724  11720  11736     1  180.0000771  5.6484000  1
   6472  11724  11720  11736     1  180.0000771  3.5564000  2
   6472  11724  11720  11736     1  0.0000000  0.4184000  3
   6475  11747  11743  11759     1  180.0000771  5.6484000  1
   6475  11747  11743  11759     1  180.0000771  3.5564000  2
   6475  11747  11743  11759     1  0.0000000  0.4184000  3
   6475  11747  11743  11742     1  180.0000771  0.4184000  2
   6475  11747  11743  11742     1  0.0000000  1.6024720  3
   6480   6481   6493   6505     1  0.0000000  0.6508444  3
   6480   6484   6496   6502     1  0.0000000  0.6508444  3
   6480   6487   6490   6499     1  0.0000000  0.6508444  3
   6481   6480   6484   6496     1  0.0000000  0.6508444  3
   6481   6480   6487   6490     1  0.0000000  0.6508444  3
   6481   6493   6505  11793     1  0.0000000  0.6508444  3
   6484   6480   6481   6493     1  0.0000000  0.6508444  3
   6484   6480   6487   6490     1  0.0000000  0.6508444  3
   6484   6496   6502  11770     1  0.0000000  0.6508444  3
   6487   6480   6481   6493     1  0.0000000  0.6508444  3
   6487   6480   6484   6496     1  0.0000000  0.6508444  3
   6487   6490   6499   6508     1  0.0000000  0.6508444  3
   6493   6505  11793  11789     1  180.0000771  0.4184000  2
   6493   6505  11793  11789     1  0.0000000  1.6024720  3
   6496   6502  11770  11766     1  180.0000771  0.4184000  2
   6496   6502  11770  11766     1  0.0000000  1.6024720  3
   6502  11770  11766  11765     1  180.0000771  0.4184000  2
   6502  11770  11766  11765     1  0.0000000  1.6024720  3
   6502  11770  11766  11782     1  180.0000771  5.6484000  1
   6502  11770  11766  11782     1  180.0000771  3.5564000  2
   6502  11770  11766  11782     1  0.0000000  0.4184000  3
   6505  11793  11789  11805     1  180.0000771  5.6484000  1
   6505  11793  11789  11805     1  180.0000771  3.5564000  2
   6505  11793  11789  11805     1  0.0000000  0.4184000  3
   6505  11793  11789  11788     1  180.0000771  0.4184000  2
   6505  11793  11789  11788     1  0.0000000  1.6024720  3
   6510   6511   6523   6535     1  0.0000000  0.6508444  3
   6510   6514   6526   6532     1  0.0000000  0.6508444  3
   6510   6517   6520   6529     1  0.0000000  0.6508444  3
   6511   6510   6514   6526     1  0.0000000  0.6508444  3
   6511   6510   6517   6520     1  0.0000000  0.6508444  3
   6511   6523   6535  11839     1  0.0000000  0.6508444  3
   6514   6510   6511   6523     1  0.0000000  0.6508444  3
   6514   6510   6517   6520     1  0.0000000  0.6508444  3
   6514   6526   6532  11816     1  0.0000000  0.6508444  3
   6517   6510   6511   6523     1  0.0000000  0.6508444  3
   6517   6510   6514   6526     1  0.0000000  0.6508444  3
   6517   6520   6529   6538     1  0.0000000  0.6508444  3
   6523   6535  11839  11835     1  180.0000771  0.4184000  2
   6523   6535  11839  11835     1  0.0000000  1.6024720  3
   6526   6532  11816  11812     1  180.0000771  0.4184000  2
   6526   6532  11816  11812     1  0.0000000  1.6024720  3
   6532  11816  11812  11811     1  180.0000771  0.4184000  2
   6532  11816  11812  11811     1  0.0000000  1.6024720  3
   6532  11816  11812  11828     1  180.0000771  5.6484000  1
   6532  11816  11812  11828     1  180.0000771  3.5564000  2
   6532  11816  11812  11828     1  0.0000000  0.4184000  3
   6535  11839  11835  11851     1  180.0000771  5.6484000  1
   6535  11839  11835  11851     1  180.0000771  3.5564000  2
   6535  11839  11835  11851     1  0.0000000  0.4184000  3
   6535  11839  11835  11834     1  180.0000771  0.4184000  2
   6535  11839  11835  11834     1  0.0000000  1.6024720  3
   6540   6541   6553   6565     1  0.0000000  0.6508444  3
   6540   6544   6556   6562     1  0.0000000  0.6508444  3
   6540   6547   6550   6559     1  0.0000000  0.6508444  3
   6541   6540   6544   6556     1  0.0000000  0.6508444  3
   6541   6540   6547   6550     1  0.0000000  0.6508444  3
   6541   6553   6565  11885     1  0.0000000  0.6508444  3
   6544   6540   6541   6553     1  0.0000000  0.6508444  3
   6544   6540   6547   6550     1  0.0000000  0.6508444  3
   6544   6556   6562  11862     1  0.0000000  0.6508444  3
   6547   6540   6541   6553     1  0.0000000  0.6508444  3
   6547   6540   6544   6556     1  0.0000000  0.6508444  3
   6547   6550   6559   6568     1  0.0000000  0.6508444  3
   6553   6565  11885  11881     1  180.0000771  0.4184000  2
   6553   6565  11885  11881     1  0.0000000  1.6024720  3
   6556   6562  11862  11858     1  180.0000771  0.4184000  2
   6556   6562  11862  11858     1  0.0000000  1.6024720  3
   6562  11862  11858  11857     1  180.0000771  0.4184000  2
   6562  11862  11858  11857     1  0.0000000  1.6024720  3
   6562  11862  11858  11874     1  180.0000771  5.6484000  1
   6562  11862  11858  11874     1  180.0000771  3.5564000  2
   6562  11862  11858  11874     1  0.0000000  0.4184000  3
   6565  11885  11881  11897     1  180.0000771  5.6484000  1
   6565  11885  11881  11897     1  180.0000771  3.5564000  2
   6565  11885  11881  11897     1  0.0000000  0.4184000  3
   6565  11885  11881  11880     1  180.0000771  0.4184000  2
   6565  11885  11881  11880     1  0.0000000  1.6024720  3
   6570   6571   6583   6595     1  0.0000000  0.6508444  3
   6570   6574   6586   6592     1  0.0000000  0.6508444  3
   6570   6577   6580   6589     1  0.0000000  0.6508444  3
   6571   6570   6574   6586     1  0.0000000  0.6508444  3
   6571   6570   6577   6580     1  0.0000000  0.6508444  3
   6571   6583   6595  11931     1  0.0000000  0.6508444  3
   6574   6570   6571   6583     1  0.0000000  0.6508444  3
   6574   6570   6577   6580     1  0.0000000  0.6508444  3
   6574   6586   6592  11908     1  0.0000000  0.6508444  3
   6577   6570   6571   6583     1  0.0000000  0.6508444  3
   6577   6570   6574   6586     1  0.0000000  0.6508444  3
   6577   6580   6589   6598     1  0.0000000  0.6508444  3
   6583   6595  11931  11927     1  180.0000771  0.4184000  2
   6583   6595  11931  11927     1  0.0000000  1.6024720  3
   6586   6592  11908  11904     1  180.0000771  0.4184000  2
   6586   6592  11908  11904     1  0.0000000  1.6024720  3
   6592  11908  11904  11903     1  180.0000771  0.4184000  2
   6592  11908  11904  11903     1  0.0000000  1.6024720  3
   6592  11908  11904  11920     1  180.0000771  5.6484000  1
   6592  11908  11904  11920     1  180.0000771  3.5564000  2
   6592  11908  11904  11920     1  0.0000000  0.4184000  3
   6595  11931  11927  11943     1  180.0000771  5.6484000  1
   6595  11931  11927  11943     1  180.0000771  3.5564000  2
   6595  11931  11927  11943     1  0.0000000  0.4184000  3
   6595  11931  11927  11926     1  180.0000771  0.4184000  2
   6595  11931  11927  11926     1  0.0000000  1.6024720  3
   6600   6601   6613   6625     1  0.0000000  0.6508444  3
   6600   6604   6616   6622     1  0.0000000  0.6508444  3
   6600   6607   6610   6619     1  0.0000000  0.6508444  3
   6601   6600   6604   6616     1  0.0000000  0.6508444  3
   6601   6600   6607   6610     1  0.0000000  0.6508444  3
   6601   6613   6625  11977     1  0.0000000  0.6508444  3
   6604   6600   6601   6613     1  0.0000000  0.6508444  3
   6604   6600   6607   6610     1  0.0000000  0.6508444  3
   6604   6616   6622  11954     1  0.0000000  0.6508444  3
   6607   6600   6601   6613     1  0.0000000  0.6508444  3
   6607   6600   6604   6616     1  0.0000000  0.6508444  3
   6607   6610   6619   6628     1  0.0000000  0.6508444  3
   6613   6625  11977  11973     1  180.0000771  0.4184000  2
   6613   6625  11977  11973     1  0.0000000  1.6024720  3
   6616   6622  11954  11950     1  180.0000771  0.4184000  2
   6616   6622  11954  11950     1  0.0000000  1.6024720  3
   6622  11954  11950  11949     1  180.0000771  0.4184000  2
   6622  11954  11950  11949     1  0.0000000  1.6024720  3
   6622  11954  11950  11966     1  180.0000771  5.6484000  1
   6622  11954  11950  11966     1  180.0000771  3.5564000  2
   6622  11954  11950  11966     1  0.0000000  0.4184000  3
   6625  11977  11973  11989     1  180.0000771  5.6484000  1
   6625  11977  11973  11989     1  180.0000771  3.5564000  2
   6625  11977  11973  11989     1  0.0000000  0.4184000  3
   6625  11977  11973  11972     1  180.0000771  0.4184000  2
   6625  11977  11973  11972     1  0.0000000  1.6024720  3
   6630   6631   6643   6655     1  0.0000000  0.6508444  3
   6630   6634   6646   6652     1  0.0000000  0.6508444  3
   6630   6637   6640   6649     1  0.0000000  0.6508444  3
   6631   6630   6634   6646     1  0.0000000  0.6508444  3
   6631   6630   6637   6640     1  0.0000000  0.6508444  3
   6631   6643   6655  12023     1  0.0000000  0.6508444  3
   6634   6630   6631   6643     1  0.0000000  0.6508444  3
   6634   6630   6637   6640     1  0.0000000  0.6508444  3
   6634   6646   6652  12000     1  0.0000000  0.6508444  3
   6637   6630   6631   6643     1  0.0000000  0.6508444  3
   6637   6630   6634   6646     1  0.0000000  0.6508444  3
   6637   6640   6649   6658     1  0.0000000  0.6508444  3
   6643   6655  12023  12019     1  180.0000771  0.4184000  2
   6643   6655  12023  12019     1  0.0000000  1.6024720  3
   6646   6652  12000  11996     1  180.0000771  0.4184000  2
   6646   6652  12000  11996     1  0.0000000  1.6024720  3
   6652  12000  11996  11995     1  180.0000771  0.4184000  2
   6652  12000  11996  11995     1  0.0000000  1.6024720  3
   6652  12000  11996  12012     1  180.0000771  5.6484000  1
   6652  12000  11996  12012     1  180.0000771  3.5564000  2
   6652  12000  11996  12012     1  0.0000000  0.4184000  3
   6655  12023  12019  12035     1  180.0000771  5.6484000  1
   6655  12023  12019  12035     1  180.0000771  3.5564000  2
   6655  12023  12019  12035     1  0.0000000  0.4184000  3
   6655  12023  12019  12018     1  180.0000771  0.4184000  2
   6655  12023  12019  12018     1  0.0000000  1.6024720  3
   6660   6661   6673   6685     1  0.0000000  0.6508444  3
   6660   6664   6676   6682     1  0.0000000  0.6508444  3
   6660   6667   6670   6679     1  0.0000000  0.6508444  3
   6661   6660   6664   6676     1  0.0000000  0.6508444  3
   6661   6660   6667   6670     1  0.0000000  0.6508444  3
   6661   6673   6685  12069     1  0.0000000  0.6508444  3
   6664   6660   6661   6673     1  0.0000000  0.6508444  3
   6664   6660   6667   6670     1  0.0000000  0.6508444  3
   6664   6676   6682  12046     1  0.0000000  0.6508444  3
   6667   6660   6661   6673     1  0.0000000  0.6508444  3
   6667   6660   6664   6676     1  0.0000000  0.6508444  3
   6667   6670   6679   6688     1  0.0000000  0.6508444  3
   6673   6685  12069  12065     1  180.0000771  0.4184000  2
   6673   6685  12069  12065     1  0.0000000  1.6024720  3
   6676   6682  12046  12042     1  180.0000771  0.4184000  2
   6676   6682  12046  12042     1  0.0000000  1.6024720  3
   6682  12046  12042  12041     1  180.0000771  0.4184000  2
   6682  12046  12042  12041     1  0.0000000  1.6024720  3
   6682  12046  12042  12058     1  180.0000771  5.6484000  1
   6682  12046  12042  12058     1  180.0000771  3.5564000  2
   6682  12046  12042  12058     1  0.0000000  0.4184000  3
   6685  12069  12065  12081     1  180.0000771  5.6484000  1
   6685  12069  12065  12081     1  180.0000771  3.5564000  2
   6685  12069  12065  12081     1  0.0000000  0.4184000  3
   6685  12069  12065  12064     1  180.0000771  0.4184000  2
   6685  12069  12065  12064     1  0.0000000  1.6024720  3
   6690   6691   6703   6715     1  0.0000000  0.6508444  3
   6690   6694   6706   6712     1  0.0000000  0.6508444  3
   6690   6697   6700   6709     1  0.0000000  0.6508444  3
   6691   6690   6694   6706     1  0.0000000  0.6508444  3
   6691   6690   6697   6700     1  0.0000000  0.6508444  3
   6691   6703   6715  12115     1  0.0000000  0.6508444  3
   6694   6690   6691   6703     1  0.0000000  0.6508444  3
   6694   6690   6697   6700     1  0.0000000  0.6508444  3
   6694   6706   6712  12092     1  0.0000000  0.6508444  3
   6697   6690   6691   6703     1  0.0000000  0.6508444  3
   6697   6690   6694   6706     1  0.0000000  0.6508444  3
   6697   6700   6709   6718     1  0.0000000  0.6508444  3
   6703   6715  12115  12111     1  180.0000771  0.4184000  2
   6703   6715  12115  12111     1  0.0000000  1.6024720  3
   6706   6712  12092  12088     1  180.0000771  0.4184000  2
   6706   6712  12092  12088     1  0.0000000  1.6024720  3
   6712  12092  12088  12087     1  180.0000771  0.4184000  2
   6712  12092  12088  12087     1  0.0000000  1.6024720  3
   6712  12092  12088  12104     1  180.0000771  5.6484000  1
   6712  12092  12088  12104     1  180.0000771  3.5564000  2
   6712  12092  12088  12104     1  0.0000000  0.4184000  3
   6715  12115  12111  12127     1  180.0000771  5.6484000  1
   6715  12115  12111  12127     1  180.0000771  3.5564000  2
   6715  12115  12111  12127     1  0.0000000  0.4184000  3
   6715  12115  12111  12110     1  180.0000771  0.4184000  2
   6715  12115  12111  12110     1  0.0000000  1.6024720  3
   6720   6721   6733   6745     1  0.0000000  0.6508444  3
   6720   6724   6736   6742     1  0.0000000  0.6508444  3
   6720   6727   6730   6739     1  0.0000000  0.6508444  3
   6721   6720   6724   6736     1  0.0000000  0.6508444  3
   6721   6720   6727   6730     1  0.0000000  0.6508444  3
   6721   6733   6745  12161     1  0.0000000  0.6508444  3
   6724   6720   6721   6733     1  0.0000000  0.6508444  3
   6724   6720   6727   6730     1  0.0000000  0.6508444  3
   6724   6736   6742  12138     1  0.0000000  0.6508444  3
   6727   6720   6721   6733     1  0.0000000  0.6508444  3
   6727   6720   6724   6736     1  0.0000000  0.6508444  3
   6727   6730   6739   6748     1  0.0000000  0.6508444  3
   6733   6745  12161  12157     1  180.0000771  0.4184000  2
   6733   6745  12161  12157     1  0.0000000  1.6024720  3
   6736   6742  12138  12134     1  180.0000771  0.4184000  2
   6736   6742  12138  12134     1  0.0000000  1.6024720  3
   6742  12138  12134  12133     1  180.0000771  0.4184000  2
   6742  12138  12134  12133     1  0.0000000  1.6024720  3
   6742  12138  12134  12150     1  180.0000771  5.6484000  1
   6742  12138  12134  12150     1  180.0000771  3.5564000  2
   6742  12138  12134  12150     1  0.0000000  0.4184000  3
   6745  12161  12157  12173     1  180.0000771  5.6484000  1
   6745  12161  12157  12173     1  180.0000771  3.5564000  2
   6745  12161  12157  12173     1  0.0000000  0.4184000  3
   6745  12161  12157  12156     1  180.0000771  0.4184000  2
   6745  12161  12157  12156     1  0.0000000  1.6024720  3
   6750   6751   6763   6775     1  0.0000000  0.6508444  3
   6750   6754   6766   6772     1  0.0000000  0.6508444  3
   6750   6757   6760   6769     1  0.0000000  0.6508444  3
   6751   6750   6754   6766     1  0.0000000  0.6508444  3
   6751   6750   6757   6760     1  0.0000000  0.6508444  3
   6751   6763   6775  12207     1  0.0000000  0.6508444  3
   6754   6750   6751   6763     1  0.0000000  0.6508444  3
   6754   6750   6757   6760     1  0.0000000  0.6508444  3
   6754   6766   6772  12184     1  0.0000000  0.6508444  3
   6757   6750   6751   6763     1  0.0000000  0.6508444  3
   6757   6750   6754   6766     1  0.0000000  0.6508444  3
   6757   6760   6769   6778     1  0.0000000  0.6508444  3
   6763   6775  12207  12203     1  180.0000771  0.4184000  2
   6763   6775  12207  12203     1  0.0000000  1.6024720  3
   6766   6772  12184  12180     1  180.0000771  0.4184000  2
   6766   6772  12184  12180     1  0.0000000  1.6024720  3
   6772  12184  12180  12179     1  180.0000771  0.4184000  2
   6772  12184  12180  12179     1  0.0000000  1.6024720  3
   6772  12184  12180  12196     1  180.0000771  5.6484000  1
   6772  12184  12180  12196     1  180.0000771  3.5564000  2
   6772  12184  12180  12196     1  0.0000000  0.4184000  3
   6775  12207  12203  12219     1  180.0000771  5.6484000  1
   6775  12207  12203  12219     1  180.0000771  3.5564000  2
   6775  12207  12203  12219     1  0.0000000  0.4184000  3
   6775  12207  12203  12202     1  180.0000771  0.4184000  2
   6775  12207  12203  12202     1  0.0000000  1.6024720  3
   6780   6781   6793   6805     1  0.0000000  0.6508444  3
   6780   6784   6796   6802     1  0.0000000  0.6508444  3
   6780   6787   6790   6799     1  0.0000000  0.6508444  3
   6781   6780   6784   6796     1  0.0000000  0.6508444  3
   6781   6780   6787   6790     1  0.0000000  0.6508444  3
   6781   6793   6805  12253     1  0.0000000  0.6508444  3
   6784   6780   6781   6793     1  0.0000000  0.6508444  3
   6784   6780   6787   6790     1  0.0000000  0.6508444  3
   6784   6796   6802  12230     1  0.0000000  0.6508444  3
   6787   6780   6781   6793     1  0.0000000  0.6508444  3
   6787   6780   6784   6796     1  0.0000000  0.6508444  3
   6787   6790   6799   6808     1  0.0000000  0.6508444  3
   6793   6805  12253  12249     1  180.0000771  0.4184000  2
   6793   6805  12253  12249     1  0.0000000  1.6024720  3
   6796   6802  12230  12226     1  180.0000771  0.4184000  2
   6796   6802  12230  12226     1  0.0000000  1.6024720  3
   6802  12230  12226  12225     1  180.0000771  0.4184000  2
   6802  12230  12226  12225     1  0.0000000  1.6024720  3
   6802  12230  12226  12242     1  180.0000771  5.6484000  1
   6802  12230  12226  12242     1  180.0000771  3.5564000  2
   6802  12230  12226  12242     1  0.0000000  0.4184000  3
   6805  12253  12249  12265     1  180.0000771  5.6484000  1
   6805  12253  12249  12265     1  180.0000771  3.5564000  2
   6805  12253  12249  12265     1  0.0000000  0.4184000  3
   6805  12253  12249  12248     1  180.0000771  0.4184000  2
   6805  12253  12249  12248     1  0.0000000  1.6024720  3
   6810   6811   6823   6835     1  0.0000000  0.6508444  3
   6810   6814   6826   6832     1  0.0000000  0.6508444  3
   6810   6817   6820   6829     1  0.0000000  0.6508444  3
   6811   6810   6814   6826     1  0.0000000  0.6508444  3
   6811   6810   6817   6820     1  0.0000000  0.6508444  3
   6811   6823   6835  12299     1  0.0000000  0.6508444  3
   6814   6810   6811   6823     1  0.0000000  0.6508444  3
   6814   6810   6817   6820     1  0.0000000  0.6508444  3
   6814   6826   6832  12276     1  0.0000000  0.6508444  3
   6817   6810   6811   6823     1  0.0000000  0.6508444  3
   6817   6810   6814   6826     1  0.0000000  0.6508444  3
   6817   6820   6829   6838     1  0.0000000  0.6508444  3
   6823   6835  12299  12295     1  180.0000771  0.4184000  2
   6823   6835  12299  12295     1  0.0000000  1.6024720  3
   6826   6832  12276  12272     1  180.0000771  0.4184000  2
   6826   6832  12276  12272     1  0.0000000  1.6024720  3
   6832  12276  12272  12271     1  180.0000771  0.4184000  2
   6832  12276  12272  12271     1  0.0000000  1.6024720  3
   6832  12276  12272  12288     1  180.0000771  5.6484000  1
   6832  12276  12272  12288     1  180.0000771  3.5564000  2
   6832  12276  12272  12288     1  0.0000000  0.4184000  3
   6835  12299  12295  12311     1  180.0000771  5.6484000  1
   6835  12299  12295  12311     1  180.0000771  3.5564000  2
   6835  12299  12295  12311     1  0.0000000  0.4184000  3
   6835  12299  12295  12294     1  180.0000771  0.4184000  2
   6835  12299  12295  12294     1  0.0000000  1.6024720  3
   6840   6841   6853   6865     1  0.0000000  0.6508444  3
   6840   6844   6856   6862     1  0.0000000  0.6508444  3
   6840   6847   6850   6859     1  0.0000000  0.6508444  3
   6841   6840   6844   6856     1  0.0000000  0.6508444  3
   6841   6840   6847   6850     1  0.0000000  0.6508444  3
   6841   6853   6865  12345     1  0.0000000  0.6508444  3
   6844   6840   6841   6853     1  0.0000000  0.6508444  3
   6844   6840   6847   6850     1  0.0000000  0.6508444  3
   6844   6856   6862  12322     1  0.0000000  0.6508444  3
   6847   6840   6841   6853     1  0.0000000  0.6508444  3
   6847   6840   6844   6856     1  0.0000000  0.6508444  3
   6847   6850   6859   6868     1  0.0000000  0.6508444  3
   6853   6865  12345  12341     1  180.0000771  0.4184000  2
   6853   6865  12345  12341     1  0.0000000  1.6024720  3
   6856   6862  12322  12318     1  180.0000771  0.4184000  2
   6856   6862  12322  12318     1  0.0000000  1.6024720  3
   6862  12322  12318  12317     1  180.0000771  0.4184000  2
   6862  12322  12318  12317     1  0.0000000  1.6024720  3
   6862  12322  12318  12334     1  180.0000771  5.6484000  1
   6862  12322  12318  12334     1  180.0000771  3.5564000  2
   6862  12322  12318  12334     1  0.0000000  0.4184000  3
   6865  12345  12341  12357     1  180.0000771  5.6484000  1
   6865  12345  12341  12357     1  180.0000771  3.5564000  2
   6865  12345  12341  12357     1  0.0000000  0.4184000  3
   6865  12345  12341  12340     1  180.0000771  0.4184000  2
   6865  12345  12341  12340     1  0.0000000  1.6024720  3
   6870   6871   6883   6895     1  0.0000000  0.6508444  3
   6870   6874   6886   6892     1  0.0000000  0.6508444  3
   6870   6877   6880   6889     1  0.0000000  0.6508444  3
   6871   6870   6874   6886     1  0.0000000  0.6508444  3
   6871   6870   6877   6880     1  0.0000000  0.6508444  3
   6871   6883   6895  12391     1  0.0000000  0.6508444  3
   6874   6870   6871   6883     1  0.0000000  0.6508444  3
   6874   6870   6877   6880     1  0.0000000  0.6508444  3
   6874   6886   6892  12368     1  0.0000000  0.6508444  3
   6877   6870   6871   6883     1  0.0000000  0.6508444  3
   6877   6870   6874   6886     1  0.0000000  0.6508444  3
   6877   6880   6889   6898     1  0.0000000  0.6508444  3
   6883   6895  12391  12387     1  180.0000771  0.4184000  2
   6883   6895  12391  12387     1  0.0000000  1.6024720  3
   6886   6892  12368  12364     1  180.0000771  0.4184000  2
   6886   6892  12368  12364     1  0.0000000  1.6024720  3
   6892  12368  12364  12363     1  180.0000771  0.4184000  2
   6892  12368  12364  12363     1  0.0000000  1.6024720  3
   6892  12368  12364  12380     1  180.0000771  5.6484000  1
   6892  12368  12364  12380     1  180.0000771  3.5564000  2
   6892  12368  12364  12380     1  0.0000000  0.4184000  3
   6895  12391  12387  12403     1  180.0000771  5.6484000  1
   6895  12391  12387  12403     1  180.0000771  3.5564000  2
   6895  12391  12387  12403     1  0.0000000  0.4184000  3
   6895  12391  12387  12386     1  180.0000771  0.4184000  2
   6895  12391  12387  12386     1  0.0000000  1.6024720  3
   6900   6901   6913   6925     1  0.0000000  0.6508444  3
   6900   6904   6916   6922     1  0.0000000  0.6508444  3
   6900   6907   6910   6919     1  0.0000000  0.6508444  3
   6901   6900   6904   6916     1  0.0000000  0.6508444  3
   6901   6900   6907   6910     1  0.0000000  0.6508444  3
   6901   6913   6925  12437     1  0.0000000  0.6508444  3
   6904   6900   6901   6913     1  0.0000000  0.6508444  3
   6904   6900   6907   6910     1  0.0000000  0.6508444  3
   6904   6916   6922  12414     1  0.0000000  0.6508444  3
   6907   6900   6901   6913     1  0.0000000  0.6508444  3
   6907   6900   6904   6916     1  0.0000000  0.6508444  3
   6907   6910   6919   6928     1  0.0000000  0.6508444  3
   6913   6925  12437  12433     1  180.0000771  0.4184000  2
   6913   6925  12437  12433     1  0.0000000  1.6024720  3
   6916   6922  12414  12410     1  180.0000771  0.4184000  2
   6916   6922  12414  12410     1  0.0000000  1.6024720  3
   6922  12414  12410  12409     1  180.0000771  0.4184000  2
   6922  12414  12410  12409     1  0.0000000  1.6024720  3
   6922  12414  12410  12426     1  180.0000771  5.6484000  1
   6922  12414  12410  12426     1  180.0000771  3.5564000  2
   6922  12414  12410  12426     1  0.0000000  0.4184000  3
   6925  12437  12433  12449     1  180.0000771  5.6484000  1
   6925  12437  12433  12449     1  180.0000771  3.5564000  2
   6925  12437  12433  12449     1  0.0000000  0.4184000  3
   6925  12437  12433  12432     1  180.0000771  0.4184000  2
   6925  12437  12433  12432     1  0.0000000  1.6024720  3
   6930   6931   6943   6955     1  0.0000000  0.6508444  3
   6930   6934   6946   6952     1  0.0000000  0.6508444  3
   6930   6937   6940   6949     1  0.0000000  0.6508444  3
   6931   6930   6934   6946     1  0.0000000  0.6508444  3
   6931   6930   6937   6940     1  0.0000000  0.6508444  3
   6931   6943   6955  12483     1  0.0000000  0.6508444  3
   6934   6930   6931   6943     1  0.0000000  0.6508444  3
   6934   6930   6937   6940     1  0.0000000  0.6508444  3
   6934   6946   6952  12460     1  0.0000000  0.6508444  3
   6937   6930   6931   6943     1  0.0000000  0.6508444  3
   6937   6930   6934   6946     1  0.0000000  0.6508444  3
   6937   6940   6949   6958     1  0.0000000  0.6508444  3
   6943   6955  12483  12479     1  180.0000771  0.4184000  2
   6943   6955  12483  12479     1  0.0000000  1.6024720  3
   6946   6952  12460  12456     1  180.0000771  0.4184000  2
   6946   6952  12460  12456     1  0.0000000  1.6024720  3
   6952  12460  12456  12455     1  180.0000771  0.4184000  2
   6952  12460  12456  12455     1  0.0000000  1.6024720  3
   6952  12460  12456  12472     1  180.0000771  5.6484000  1
   6952  12460  12456  12472     1  180.0000771  3.5564000  2
   6952  12460  12456  12472     1  0.0000000  0.4184000  3
   6955  12483  12479  12495     1  180.0000771  5.6484000  1
   6955  12483  12479  12495     1  180.0000771  3.5564000  2
   6955  12483  12479  12495     1  0.0000000  0.4184000  3
   6955  12483  12479  12478     1  180.0000771  0.4184000  2
   6955  12483  12479  12478     1  0.0000000  1.6024720  3
   6960   6961   6973   6985     1  0.0000000  0.6508444  3
   6960   6964   6976   6982     1  0.0000000  0.6508444  3
   6960   6967   6970   6979     1  0.0000000  0.6508444  3
   6961   6960   6964   6976     1  0.0000000  0.6508444  3
   6961   6960   6967   6970     1  0.0000000  0.6508444  3
   6961   6973   6985  12529     1  0.0000000  0.6508444  3
   6964   6960   6961   6973     1  0.0000000  0.6508444  3
   6964   6960   6967   6970     1  0.0000000  0.6508444  3
   6964   6976   6982  12506     1  0.0000000  0.6508444  3
   6967   6960   6961   6973     1  0.0000000  0.6508444  3
   6967   6960   6964   6976     1  0.0000000  0.6508444  3
   6967   6970   6979   6988     1  0.0000000  0.6508444  3
   6973   6985  12529  12525     1  180.0000771  0.4184000  2
   6973   6985  12529  12525     1  0.0000000  1.6024720  3
   6976   6982  12506  12502     1  180.0000771  0.4184000  2
   6976   6982  12506  12502     1  0.0000000  1.6024720  3
   6982  12506  12502  12501     1  180.0000771  0.4184000  2
   6982  12506  12502  12501     1  0.0000000  1.6024720  3
   6982  12506  12502  12518     1  180.0000771  5.6484000  1
   6982  12506  12502  12518     1  180.0000771  3.5564000  2
   6982  12506  12502  12518     1  0.0000000  0.4184000  3
   6985  12529  12525  12541     1  180.0000771  5.6484000  1
   6985  12529  12525  12541     1  180.0000771  3.5564000  2
   6985  12529  12525  12541     1  0.0000000  0.4184000  3
   6985  12529  12525  12524     1  180.0000771  0.4184000  2
   6985  12529  12525  12524     1  0.0000000  1.6024720  3
   6990   6991   7003   7015     1  0.0000000  0.6508444  3
   6990   6994   7006   7012     1  0.0000000  0.6508444  3
   6990   6997   7000   7009     1  0.0000000  0.6508444  3
   6991   6990   6994   7006     1  0.0000000  0.6508444  3
   6991   6990   6997   7000     1  0.0000000  0.6508444  3
   6991   7003   7015  12575     1  0.0000000  0.6508444  3
   6994   6990   6991   7003     1  0.0000000  0.6508444  3
   6994   6990   6997   7000     1  0.0000000  0.6508444  3
   6994   7006   7012  12552     1  0.0000000  0.6508444  3
   6997   6990   6991   7003     1  0.0000000  0.6508444  3
   6997   6990   6994   7006     1  0.0000000  0.6508444  3
   6997   7000   7009   7018     1  0.0000000  0.6508444  3
   7003   7015  12575  12571     1  180.0000771  0.4184000  2
   7003   7015  12575  12571     1  0.0000000  1.6024720  3
   7006   7012  12552  12548     1  180.0000771  0.4184000  2
   7006   7012  12552  12548     1  0.0000000  1.6024720  3
   7012  12552  12548  12547     1  180.0000771  0.4184000  2
   7012  12552  12548  12547     1  0.0000000  1.6024720  3
   7012  12552  12548  12564     1  180.0000771  5.6484000  1
   7012  12552  12548  12564     1  180.0000771  3.5564000  2
   7012  12552  12548  12564     1  0.0000000  0.4184000  3
   7015  12575  12571  12587     1  180.0000771  5.6484000  1
   7015  12575  12571  12587     1  180.0000771  3.5564000  2
   7015  12575  12571  12587     1  0.0000000  0.4184000  3
   7015  12575  12571  12570     1  180.0000771  0.4184000  2
   7015  12575  12571  12570     1  0.0000000  1.6024720  3
   7020   7021   7033   7045     1  0.0000000  0.6508444  3
   7020   7024   7036   7042     1  0.0000000  0.6508444  3
   7020   7027   7030   7039     1  0.0000000  0.6508444  3
   7021   7020   7024   7036     1  0.0000000  0.6508444  3
   7021   7020   7027   7030     1  0.0000000  0.6508444  3
   7021   7033   7045  12621     1  0.0000000  0.6508444  3
   7024   7020   7021   7033     1  0.0000000  0.6508444  3
   7024   7020   7027   7030     1  0.0000000  0.6508444  3
   7024   7036   7042  12598     1  0.0000000  0.6508444  3
   7027   7020   7021   7033     1  0.0000000  0.6508444  3
   7027   7020   7024   7036     1  0.0000000  0.6508444  3
   7027   7030   7039   7048     1  0.0000000  0.6508444  3
   7033   7045  12621  12617     1  180.0000771  0.4184000  2
   7033   7045  12621  12617     1  0.0000000  1.6024720  3
   7036   7042  12598  12594     1  180.0000771  0.4184000  2
   7036   7042  12598  12594     1  0.0000000  1.6024720  3
   7042  12598  12594  12593     1  180.0000771  0.4184000  2
   7042  12598  12594  12593     1  0.0000000  1.6024720  3
   7042  12598  12594  12610     1  180.0000771  5.6484000  1
   7042  12598  12594  12610     1  180.0000771  3.5564000  2
   7042  12598  12594  12610     1  0.0000000  0.4184000  3
   7045  12621  12617  12633     1  180.0000771  5.6484000  1
   7045  12621  12617  12633     1  180.0000771  3.5564000  2
   7045  12621  12617  12633     1  0.0000000  0.4184000  3
   7045  12621  12617  12616     1  180.0000771  0.4184000  2
   7045  12621  12617  12616     1  0.0000000  1.6024720  3
   7050   7051   7063   7075     1  0.0000000  0.6508444  3
   7050   7054   7066   7072     1  0.0000000  0.6508444  3
   7050   7057   7060   7069     1  0.0000000  0.6508444  3
   7051   7050   7054   7066     1  0.0000000  0.6508444  3
   7051   7050   7057   7060     1  0.0000000  0.6508444  3
   7051   7063   7075  12667     1  0.0000000  0.6508444  3
   7054   7050   7051   7063     1  0.0000000  0.6508444  3
   7054   7050   7057   7060     1  0.0000000  0.6508444  3
   7054   7066   7072  12644     1  0.0000000  0.6508444  3
   7057   7050   7051   7063     1  0.0000000  0.6508444  3
   7057   7050   7054   7066     1  0.0000000  0.6508444  3
   7057   7060   7069   7078     1  0.0000000  0.6508444  3
   7063   7075  12667  12663     1  180.0000771  0.4184000  2
   7063   7075  12667  12663     1  0.0000000  1.6024720  3
   7066   7072  12644  12640     1  180.0000771  0.4184000  2
   7066   7072  12644  12640     1  0.0000000  1.6024720  3
   7072  12644  12640  12639     1  180.0000771  0.4184000  2
   7072  12644  12640  12639     1  0.0000000  1.6024720  3
   7072  12644  12640  12656     1  180.0000771  5.6484000  1
   7072  12644  12640  12656     1  180.0000771  3.5564000  2
   7072  12644  12640  12656     1  0.0000000  0.4184000  3
   7075  12667  12663  12679     1  180.0000771  5.6484000  1
   7075  12667  12663  12679     1  180.0000771  3.5564000  2
   7075  12667  12663  12679     1  0.0000000  0.4184000  3
   7075  12667  12663  12662     1  180.0000771  0.4184000  2
   7075  12667  12663  12662     1  0.0000000  1.6024720  3
   7080   7081   7093   7105     1  0.0000000  0.6508444  3
   7080   7084   7096   7102     1  0.0000000  0.6508444  3
   7080   7087   7090   7099     1  0.0000000  0.6508444  3
   7081   7080   7084   7096     1  0.0000000  0.6508444  3
   7081   7080   7087   7090     1  0.0000000  0.6508444  3
   7081   7093   7105  12713     1  0.0000000  0.6508444  3
   7084   7080   7081   7093     1  0.0000000  0.6508444  3
   7084   7080   7087   7090     1  0.0000000  0.6508444  3
   7084   7096   7102  12690     1  0.0000000  0.6508444  3
   7087   7080   7081   7093     1  0.0000000  0.6508444  3
   7087   7080   7084   7096     1  0.0000000  0.6508444  3
   7087   7090   7099   7108     1  0.0000000  0.6508444  3
   7093   7105  12713  12709     1  180.0000771  0.4184000  2
   7093   7105  12713  12709     1  0.0000000  1.6024720  3
   7096   7102  12690  12686     1  180.0000771  0.4184000  2
   7096   7102  12690  12686     1  0.0000000  1.6024720  3
   7102  12690  12686  12685     1  180.0000771  0.4184000  2
   7102  12690  12686  12685     1  0.0000000  1.6024720  3
   7102  12690  12686  12702     1  180.0000771  5.6484000  1
   7102  12690  12686  12702     1  180.0000771  3.5564000  2
   7102  12690  12686  12702     1  0.0000000  0.4184000  3
   7105  12713  12709  12725     1  180.0000771  5.6484000  1
   7105  12713  12709  12725     1  180.0000771  3.5564000  2
   7105  12713  12709  12725     1  0.0000000  0.4184000  3
   7105  12713  12709  12708     1  180.0000771  0.4184000  2
   7105  12713  12709  12708     1  0.0000000  1.6024720  3
   7110   7111   7123   7135     1  0.0000000  0.6508444  3
   7110   7114   7126   7132     1  0.0000000  0.6508444  3
   7110   7117   7120   7129     1  0.0000000  0.6508444  3
   7111   7110   7114   7126     1  0.0000000  0.6508444  3
   7111   7110   7117   7120     1  0.0000000  0.6508444  3
   7111   7123   7135  12759     1  0.0000000  0.6508444  3
   7114   7110   7111   7123     1  0.0000000  0.6508444  3
   7114   7110   7117   7120     1  0.0000000  0.6508444  3
   7114   7126   7132  12736     1  0.0000000  0.6508444  3
   7117   7110   7111   7123     1  0.0000000  0.6508444  3
   7117   7110   7114   7126     1  0.0000000  0.6508444  3
   7117   7120   7129   7138     1  0.0000000  0.6508444  3
   7123   7135  12759  12755     1  180.0000771  0.4184000  2
   7123   7135  12759  12755     1  0.0000000  1.6024720  3
   7126   7132  12736  12732     1  180.0000771  0.4184000  2
   7126   7132  12736  12732     1  0.0000000  1.6024720  3
   7132  12736  12732  12731     1  180.0000771  0.4184000  2
   7132  12736  12732  12731     1  0.0000000  1.6024720  3
   7132  12736  12732  12748     1  180.0000771  5.6484000  1
   7132  12736  12732  12748     1  180.0000771  3.5564000  2
   7132  12736  12732  12748     1  0.0000000  0.4184000  3
   7135  12759  12755  12771     1  180.0000771  5.6484000  1
   7135  12759  12755  12771     1  180.0000771  3.5564000  2
   7135  12759  12755  12771     1  0.0000000  0.4184000  3
   7135  12759  12755  12754     1  180.0000771  0.4184000  2
   7135  12759  12755  12754     1  0.0000000  1.6024720  3
   7140   7141   7153   7165     1  0.0000000  0.6508444  3
   7140   7144   7156   7162     1  0.0000000  0.6508444  3
   7140   7147   7150   7159     1  0.0000000  0.6508444  3
   7141   7140   7144   7156     1  0.0000000  0.6508444  3
   7141   7140   7147   7150     1  0.0000000  0.6508444  3
   7141   7153   7165  12805     1  0.0000000  0.6508444  3
   7144   7140   7141   7153     1  0.0000000  0.6508444  3
   7144   7140   7147   7150     1  0.0000000  0.6508444  3
   7144   7156   7162  12782     1  0.0000000  0.6508444  3
   7147   7140   7141   7153     1  0.0000000  0.6508444  3
   7147   7140   7144   7156     1  0.0000000  0.6508444  3
   7147   7150   7159   7168     1  0.0000000  0.6508444  3
   7153   7165  12805  12801     1  180.0000771  0.4184000  2
   7153   7165  12805  12801     1  0.0000000  1.6024720  3
   7156   7162  12782  12778     1  180.0000771  0.4184000  2
   7156   7162  12782  12778     1  0.0000000  1.6024720  3
   7162  12782  12778  12777     1  180.0000771  0.4184000  2
   7162  12782  12778  12777     1  0.0000000  1.6024720  3
   7162  12782  12778  12794     1  180.0000771  5.6484000  1
   7162  12782  12778  12794     1  180.0000771  3.5564000  2
   7162  12782  12778  12794     1  0.0000000  0.4184000  3
   7165  12805  12801  12817     1  180.0000771  5.6484000  1
   7165  12805  12801  12817     1  180.0000771  3.5564000  2
   7165  12805  12801  12817     1  0.0000000  0.4184000  3
   7165  12805  12801  12800     1  180.0000771  0.4184000  2
   7165  12805  12801  12800     1  0.0000000  1.6024720  3
   7170   7171   7183   7195     1  0.0000000  0.6508444  3
   7170   7174   7186   7192     1  0.0000000  0.6508444  3
   7170   7177   7180   7189     1  0.0000000  0.6508444  3
   7171   7170   7174   7186     1  0.0000000  0.6508444  3
   7171   7170   7177   7180     1  0.0000000  0.6508444  3
   7171   7183   7195  12851     1  0.0000000  0.6508444  3
   7174   7170   7171   7183     1  0.0000000  0.6508444  3
   7174   7170   7177   7180     1  0.0000000  0.6508444  3
   7174   7186   7192  12828     1  0.0000000  0.6508444  3
   7177   7170   7171   7183     1  0.0000000  0.6508444  3
   7177   7170   7174   7186     1  0.0000000  0.6508444  3
   7177   7180   7189   7198     1  0.0000000  0.6508444  3
   7183   7195  12851  12847     1  180.0000771  0.4184000  2
   7183   7195  12851  12847     1  0.0000000  1.6024720  3
   7186   7192  12828  12824     1  180.0000771  0.4184000  2
   7186   7192  12828  12824     1  0.0000000  1.6024720  3
   7192  12828  12824  12823     1  180.0000771  0.4184000  2
   7192  12828  12824  12823     1  0.0000000  1.6024720  3
   7192  12828  12824  12840     1  180.0000771  5.6484000  1
   7192  12828  12824  12840     1  180.0000771  3.5564000  2
   7192  12828  12824  12840     1  0.0000000  0.4184000  3
   7195  12851  12847  12863     1  180.0000771  5.6484000  1
   7195  12851  12847  12863     1  180.0000771  3.5564000  2
   7195  12851  12847  12863     1  0.0000000  0.4184000  3
   7195  12851  12847  12846     1  180.0000771  0.4184000  2
   7195  12851  12847  12846     1  0.0000000  1.6024720  3
   7200   7201   7213   7225     1  0.0000000  0.6508444  3
   7200   7204   7216   7222     1  0.0000000  0.6508444  3
   7200   7207   7210   7219     1  0.0000000  0.6508444  3
   7201   7200   7204   7216     1  0.0000000  0.6508444  3
   7201   7200   7207   7210     1  0.0000000  0.6508444  3
   7201   7213   7225  12897     1  0.0000000  0.6508444  3
   7204   7200   7201   7213     1  0.0000000  0.6508444  3
   7204   7200   7207   7210     1  0.0000000  0.6508444  3
   7204   7216   7222  12874     1  0.0000000  0.6508444  3
   7207   7200   7201   7213     1  0.0000000  0.6508444  3
   7207   7200   7204   7216     1  0.0000000  0.6508444  3
   7207   7210   7219   7228     1  0.0000000  0.6508444  3
   7213   7225  12897  12893     1  180.0000771  0.4184000  2
   7213   7225  12897  12893     1  0.0000000  1.6024720  3
   7216   7222  12874  12870     1  180.0000771  0.4184000  2
   7216   7222  12874  12870     1  0.0000000  1.6024720  3
   7222  12874  12870  12869     1  180.0000771  0.4184000  2
   7222  12874  12870  12869     1  0.0000000  1.6024720  3
   7222  12874  12870  12886     1  180.0000771  5.6484000  1
   7222  12874  12870  12886     1  180.0000771  3.5564000  2
   7222  12874  12870  12886     1  0.0000000  0.4184000  3
   7225  12897  12893  12909     1  180.0000771  5.6484000  1
   7225  12897  12893  12909     1  180.0000771  3.5564000  2
   7225  12897  12893  12909     1  0.0000000  0.4184000  3
   7225  12897  12893  12892     1  180.0000771  0.4184000  2
   7225  12897  12893  12892     1  0.0000000  1.6024720  3
   7230   7231   7243   7255     1  0.0000000  0.6508444  3
   7230   7234   7246   7252     1  0.0000000  0.6508444  3
   7230   7237   7240   7249     1  0.0000000  0.6508444  3
   7231   7230   7234   7246     1  0.0000000  0.6508444  3
   7231   7230   7237   7240     1  0.0000000  0.6508444  3
   7231   7243   7255  12943     1  0.0000000  0.6508444  3
   7234   7230   7231   7243     1  0.0000000  0.6508444  3
   7234   7230   7237   7240     1  0.0000000  0.6508444  3
   7234   7246   7252  12920     1  0.0000000  0.6508444  3
   7237   7230   7231   7243     1  0.0000000  0.6508444  3
   7237   7230   7234   7246     1  0.0000000  0.6508444  3
   7237   7240   7249   7258     1  0.0000000  0.6508444  3
   7243   7255  12943  12939     1  180.0000771  0.4184000  2
   7243   7255  12943  12939     1  0.0000000  1.6024720  3
   7246   7252  12920  12916     1  180.0000771  0.4184000  2
   7246   7252  12920  12916     1  0.0000000  1.6024720  3
   7252  12920  12916  12915     1  180.0000771  0.4184000  2
   7252  12920  12916  12915     1  0.0000000  1.6024720  3
   7252  12920  12916  12932     1  180.0000771  5.6484000  1
   7252  12920  12916  12932     1  180.0000771  3.5564000  2
   7252  12920  12916  12932     1  0.0000000  0.4184000  3
   7255  12943  12939  12955     1  180.0000771  5.6484000  1
   7255  12943  12939  12955     1  180.0000771  3.5564000  2
   7255  12943  12939  12955     1  0.0000000  0.4184000  3
   7255  12943  12939  12938     1  180.0000771  0.4184000  2
   7255  12943  12939  12938     1  0.0000000  1.6024720  3
   7260   7261   7273   7285     1  0.0000000  0.6508444  3
   7260   7264   7276   7282     1  0.0000000  0.6508444  3
   7260   7267   7270   7279     1  0.0000000  0.6508444  3
   7261   7260   7264   7276     1  0.0000000  0.6508444  3
   7261   7260   7267   7270     1  0.0000000  0.6508444  3
   7261   7273   7285  12989     1  0.0000000  0.6508444  3
   7264   7260   7261   7273     1  0.0000000  0.6508444  3
   7264   7260   7267   7270     1  0.0000000  0.6508444  3
   7264   7276   7282  12966     1  0.0000000  0.6508444  3
   7267   7260   7261   7273     1  0.0000000  0.6508444  3
   7267   7260   7264   7276     1  0.0000000  0.6508444  3
   7267   7270   7279   7288     1  0.0000000  0.6508444  3
   7273   7285  12989  12985     1  180.0000771  0.4184000  2
   7273   7285  12989  12985     1  0.0000000  1.6024720  3
   7276   7282  12966  12962     1  180.0000771  0.4184000  2
   7276   7282  12966  12962     1  0.0000000  1.6024720  3
   7282  12966  12962  12961     1  180.0000771  0.4184000  2
   7282  12966  12962  12961     1  0.0000000  1.6024720  3
   7282  12966  12962  12978     1  180.0000771  5.6484000  1
   7282  12966  12962  12978     1  180.0000771  3.5564000  2
   7282  12966  12962  12978     1  0.0000000  0.4184000  3
   7285  12989  12985  13001     1  180.0000771  5.6484000  1
   7285  12989  12985  13001     1  180.0000771  3.5564000  2
   7285  12989  12985  13001     1  0.0000000  0.4184000  3
   7285  12989  12985  12984     1  180.0000771  0.4184000  2
   7285  12989  12985  12984     1  0.0000000  1.6024720  3
   7290   7291   7303   7315     1  0.0000000  0.6508444  3
   7290   7294   7306   7312     1  0.0000000  0.6508444  3
   7290   7297   7300   7309     1  0.0000000  0.6508444  3
   7291   7290   7294   7306     1  0.0000000  0.6508444  3
   7291   7290   7297   7300     1  0.0000000  0.6508444  3
   7291   7303   7315  13035     1  0.0000000  0.6508444  3
   7294   7290   7291   7303     1  0.0000000  0.6508444  3
   7294   7290   7297   7300     1  0.0000000  0.6508444  3
   7294   7306   7312  13012     1  0.0000000  0.6508444  3
   7297   7290   7291   7303     1  0.0000000  0.6508444  3
   7297   7290   7294   7306     1  0.0000000  0.6508444  3
   7297   7300   7309   7318     1  0.0000000  0.6508444  3
   7303   7315  13035  13031     1  180.0000771  0.4184000  2
   7303   7315  13035  13031     1  0.0000000  1.6024720  3
   7306   7312  13012  13008     1  180.0000771  0.4184000  2
   7306   7312  13012  13008     1  0.0000000  1.6024720  3
   7312  13012  13008  13007     1  180.0000771  0.4184000  2
   7312  13012  13008  13007     1  0.0000000  1.6024720  3
   7312  13012  13008  13024     1  180.0000771  5.6484000  1
   7312  13012  13008  13024     1  180.0000771  3.5564000  2
   7312  13012  13008  13024     1  0.0000000  0.4184000  3
   7315  13035  13031  13047     1  180.0000771  5.6484000  1
   7315  13035  13031  13047     1  180.0000771  3.5564000  2
   7315  13035  13031  13047     1  0.0000000  0.4184000  3
   7315  13035  13031  13030     1  180.0000771  0.4184000  2
   7315  13035  13031  13030     1  0.0000000  1.6024720  3
   7320   7321   7333   7345     1  0.0000000  0.6508444  3
   7320   7324   7336   7342     1  0.0000000  0.6508444  3
   7320   7327   7330   7339     1  0.0000000  0.6508444  3
   7321   7320   7324   7336     1  0.0000000  0.6508444  3
   7321   7320   7327   7330     1  0.0000000  0.6508444  3
   7321   7333   7345  13081     1  0.0000000  0.6508444  3
   7324   7320   7321   7333     1  0.0000000  0.6508444  3
   7324   7320   7327   7330     1  0.0000000  0.6508444  3
   7324   7336   7342  13058     1  0.0000000  0.6508444  3
   7327   7320   7321   7333     1  0.0000000  0.6508444  3
   7327   7320   7324   7336     1  0.0000000  0.6508444  3
   7327   7330   7339   7348     1  0.0000000  0.6508444  3
   7333   7345  13081  13077     1  180.0000771  0.4184000  2
   7333   7345  13081  13077     1  0.0000000  1.6024720  3
   7336   7342  13058  13054     1  180.0000771  0.4184000  2
   7336   7342  13058  13054     1  0.0000000  1.6024720  3
   7342  13058  13054  13053     1  180.0000771  0.4184000  2
   7342  13058  13054  13053     1  0.0000000  1.6024720  3
   7342  13058  13054  13070     1  180.0000771  5.6484000  1
   7342  13058  13054  13070     1  180.0000771  3.5564000  2
   7342  13058  13054  13070     1  0.0000000  0.4184000  3
   7345  13081  13077  13093     1  180.0000771  5.6484000  1
   7345  13081  13077  13093     1  180.0000771  3.5564000  2
   7345  13081  13077  13093     1  0.0000000  0.4184000  3
   7345  13081  13077  13076     1  180.0000771  0.4184000  2
   7345  13081  13077  13076     1  0.0000000  1.6024720  3
   7350   7351   7363   7375     1  0.0000000  0.6508444  3
   7350   7354   7366   7372     1  0.0000000  0.6508444  3
   7350   7357   7360   7369     1  0.0000000  0.6508444  3
   7351   7350   7354   7366     1  0.0000000  0.6508444  3
   7351   7350   7357   7360     1  0.0000000  0.6508444  3
   7351   7363   7375  13127     1  0.0000000  0.6508444  3
   7354   7350   7351   7363     1  0.0000000  0.6508444  3
   7354   7350   7357   7360     1  0.0000000  0.6508444  3
   7354   7366   7372  13104     1  0.0000000  0.6508444  3
   7357   7350   7351   7363     1  0.0000000  0.6508444  3
   7357   7350   7354   7366     1  0.0000000  0.6508444  3
   7357   7360   7369   7378     1  0.0000000  0.6508444  3
   7363   7375  13127  13123     1  180.0000771  0.4184000  2
   7363   7375  13127  13123     1  0.0000000  1.6024720  3
   7366   7372  13104  13100     1  180.0000771  0.4184000  2
   7366   7372  13104  13100     1  0.0000000  1.6024720  3
   7372  13104  13100  13099     1  180.0000771  0.4184000  2
   7372  13104  13100  13099     1  0.0000000  1.6024720  3
   7372  13104  13100  13116     1  180.0000771  5.6484000  1
   7372  13104  13100  13116     1  180.0000771  3.5564000  2
   7372  13104  13100  13116     1  0.0000000  0.4184000  3
   7375  13127  13123  13139     1  180.0000771  5.6484000  1
   7375  13127  13123  13139     1  180.0000771  3.5564000  2
   7375  13127  13123  13139     1  0.0000000  0.4184000  3
   7375  13127  13123  13122     1  180.0000771  0.4184000  2
   7375  13127  13123  13122     1  0.0000000  1.6024720  3
   7380   7381   7393   7405     1  0.0000000  0.6508444  3
   7380   7384   7396   7402     1  0.0000000  0.6508444  3
   7380   7387   7390   7399     1  0.0000000  0.6508444  3
   7381   7380   7384   7396     1  0.0000000  0.6508444  3
   7381   7380   7387   7390     1  0.0000000  0.6508444  3
   7381   7393   7405  13173     1  0.0000000  0.6508444  3
   7384   7380   7381   7393     1  0.0000000  0.6508444  3
   7384   7380   7387   7390     1  0.0000000  0.6508444  3
   7384   7396   7402  13150     1  0.0000000  0.6508444  3
   7387   7380   7381   7393     1  0.0000000  0.6508444  3
   7387   7380   7384   7396     1  0.0000000  0.6508444  3
   7387   7390   7399   7408     1  0.0000000  0.6508444  3
   7393   7405  13173  13169     1  180.0000771  0.4184000  2
   7393   7405  13173  13169     1  0.0000000  1.6024720  3
   7396   7402  13150  13146     1  180.0000771  0.4184000  2
   7396   7402  13150  13146     1  0.0000000  1.6024720  3
   7402  13150  13146  13145     1  180.0000771  0.4184000  2
   7402  13150  13146  13145     1  0.0000000  1.6024720  3
   7402  13150  13146  13162     1  180.0000771  5.6484000  1
   7402  13150  13146  13162     1  180.0000771  3.5564000  2
   7402  13150  13146  13162     1  0.0000000  0.4184000  3
   7405  13173  13169  13185     1  180.0000771  5.6484000  1
   7405  13173  13169  13185     1  180.0000771  3.5564000  2
   7405  13173  13169  13185     1  0.0000000  0.4184000  3
   7405  13173  13169  13168     1  180.0000771  0.4184000  2
   7405  13173  13169  13168     1  0.0000000  1.6024720  3
   7410   7411   7423   7435     1  0.0000000  0.6508444  3
   7410   7414   7426   7432     1  0.0000000  0.6508444  3
   7410   7417   7420   7429     1  0.0000000  0.6508444  3
   7411   7410   7414   7426     1  0.0000000  0.6508444  3
   7411   7410   7417   7420     1  0.0000000  0.6508444  3
   7411   7423   7435  13219     1  0.0000000  0.6508444  3
   7414   7410   7411   7423     1  0.0000000  0.6508444  3
   7414   7410   7417   7420     1  0.0000000  0.6508444  3
   7414   7426   7432  13196     1  0.0000000  0.6508444  3
   7417   7410   7411   7423     1  0.0000000  0.6508444  3
   7417   7410   7414   7426     1  0.0000000  0.6508444  3
   7417   7420   7429   7438     1  0.0000000  0.6508444  3
   7423   7435  13219  13215     1  180.0000771  0.4184000  2
   7423   7435  13219  13215     1  0.0000000  1.6024720  3
   7426   7432  13196  13192     1  180.0000771  0.4184000  2
   7426   7432  13196  13192     1  0.0000000  1.6024720  3
   7432  13196  13192  13191     1  180.0000771  0.4184000  2
   7432  13196  13192  13191     1  0.0000000  1.6024720  3
   7432  13196  13192  13208     1  180.0000771  5.6484000  1
   7432  13196  13192  13208     1  180.0000771  3.5564000  2
   7432  13196  13192  13208     1  0.0000000  0.4184000  3
   7435  13219  13215  13231     1  180.0000771  5.6484000  1
   7435  13219  13215  13231     1  180.0000771  3.5564000  2
   7435  13219  13215  13231     1  0.0000000  0.4184000  3
   7435  13219  13215  13214     1  180.0000771  0.4184000  2
   7435  13219  13215  13214     1  0.0000000  1.6024720  3
   7440   7441   7453   7465     1  0.0000000  0.6508444  3
   7440   7444   7456   7462     1  0.0000000  0.6508444  3
   7440   7447   7450   7459     1  0.0000000  0.6508444  3
   7441   7440   7444   7456     1  0.0000000  0.6508444  3
   7441   7440   7447   7450     1  0.0000000  0.6508444  3
   7441   7453   7465  13265     1  0.0000000  0.6508444  3
   7444   7440   7441   7453     1  0.0000000  0.6508444  3
   7444   7440   7447   7450     1  0.0000000  0.6508444  3
   7444   7456   7462  13242     1  0.0000000  0.6508444  3
   7447   7440   7441   7453     1  0.0000000  0.6508444  3
   7447   7440   7444   7456     1  0.0000000  0.6508444  3
   7447   7450   7459   7468     1  0.0000000  0.6508444  3
   7453   7465  13265  13261     1  180.0000771  0.4184000  2
   7453   7465  13265  13261     1  0.0000000  1.6024720  3
   7456   7462  13242  13238     1  180.0000771  0.4184000  2
   7456   7462  13242  13238     1  0.0000000  1.6024720  3
   7462  13242  13238  13237     1  180.0000771  0.4184000  2
   7462  13242  13238  13237     1  0.0000000  1.6024720  3
   7462  13242  13238  13254     1  180.0000771  5.6484000  1
   7462  13242  13238  13254     1  180.0000771  3.5564000  2
   7462  13242  13238  13254     1  0.0000000  0.4184000  3
   7465  13265  13261  13277     1  180.0000771  5.6484000  1
   7465  13265  13261  13277     1  180.0000771  3.5564000  2
   7465  13265  13261  13277     1  0.0000000  0.4184000  3
   7465  13265  13261  13260     1  180.0000771  0.4184000  2
   7465  13265  13261  13260     1  0.0000000  1.6024720  3
   7470   7471   7483   7495     1  0.0000000  0.6508444  3
   7470   7474   7486   7492     1  0.0000000  0.6508444  3
   7470   7477   7480   7489     1  0.0000000  0.6508444  3
   7471   7470   7474   7486     1  0.0000000  0.6508444  3
   7471   7470   7477   7480     1  0.0000000  0.6508444  3
   7471   7483   7495  13311     1  0.0000000  0.6508444  3
   7474   7470   7471   7483     1  0.0000000  0.6508444  3
   7474   7470   7477   7480     1  0.0000000  0.6508444  3
   7474   7486   7492  13288     1  0.0000000  0.6508444  3
   7477   7470   7471   7483     1  0.0000000  0.6508444  3
   7477   7470   7474   7486     1  0.0000000  0.6508444  3
   7477   7480   7489   7498     1  0.0000000  0.6508444  3
   7483   7495  13311  13307     1  180.0000771  0.4184000  2
   7483   7495  13311  13307     1  0.0000000  1.6024720  3
   7486   7492  13288  13284     1  180.0000771  0.4184000  2
   7486   7492  13288  13284     1  0.0000000  1.6024720  3
   7492  13288  13284  13283     1  180.0000771  0.4184000  2
   7492  13288  13284  13283     1  0.0000000  1.6024720  3
   7492  13288  13284  13300     1  180.0000771  5.6484000  1
   7492  13288  13284  13300     1  180.0000771  3.5564000  2
   7492  13288  13284  13300     1  0.0000000  0.4184000  3
   7495  13311  13307  13323     1  180.0000771  5.6484000  1
   7495  13311  13307  13323     1  180.0000771  3.5564000  2
   7495  13311  13307  13323     1  0.0000000  0.4184000  3
   7495  13311  13307  13306     1  180.0000771  0.4184000  2
   7495  13311  13307  13306     1  0.0000000  1.6024720  3
   7500   7501   7513   7525     1  0.0000000  0.6508444  3
   7500   7504   7516   7522     1  0.0000000  0.6508444  3
   7500   7507   7510   7519     1  0.0000000  0.6508444  3
   7501   7500   7504   7516     1  0.0000000  0.6508444  3
   7501   7500   7507   7510     1  0.0000000  0.6508444  3
   7501   7513   7525  13357     1  0.0000000  0.6508444  3
   7504   7500   7501   7513     1  0.0000000  0.6508444  3
   7504   7500   7507   7510     1  0.0000000  0.6508444  3
   7504   7516   7522  13334     1  0.0000000  0.6508444  3
   7507   7500   7501   7513     1  0.0000000  0.6508444  3
   7507   7500   7504   7516     1  0.0000000  0.6508444  3
   7507   7510   7519   7528     1  0.0000000  0.6508444  3
   7513   7525  13357  13353     1  180.0000771  0.4184000  2
   7513   7525  13357  13353     1  0.0000000  1.6024720  3
   7516   7522  13334  13330     1  180.0000771  0.4184000  2
   7516   7522  13334  13330     1  0.0000000  1.6024720  3
   7522  13334  13330  13329     1  180.0000771  0.4184000  2
   7522  13334  13330  13329     1  0.0000000  1.6024720  3
   7522  13334  13330  13346     1  180.0000771  5.6484000  1
   7522  13334  13330  13346     1  180.0000771  3.5564000  2
   7522  13334  13330  13346     1  0.0000000  0.4184000  3
   7525  13357  13353  13369     1  180.0000771  5.6484000  1
   7525  13357  13353  13369     1  180.0000771  3.5564000  2
   7525  13357  13353  13369     1  0.0000000  0.4184000  3
   7525  13357  13353  13352     1  180.0000771  0.4184000  2
   7525  13357  13353  13352     1  0.0000000  1.6024720  3
   7530   7531   7543   7555     1  0.0000000  0.6508444  3
   7530   7534   7546   7552     1  0.0000000  0.6508444  3
   7530   7537   7540   7549     1  0.0000000  0.6508444  3
   7531   7530   7534   7546     1  0.0000000  0.6508444  3
   7531   7530   7537   7540     1  0.0000000  0.6508444  3
   7531   7543   7555  13403     1  0.0000000  0.6508444  3
   7534   7530   7531   7543     1  0.0000000  0.6508444  3
   7534   7530   7537   7540     1  0.0000000  0.6508444  3
   7534   7546   7552  13380     1  0.0000000  0.6508444  3
   7537   7530   7531   7543     1  0.0000000  0.6508444  3
   7537   7530   7534   7546     1  0.0000000  0.6508444  3
   7537   7540   7549   7558     1  0.0000000  0.6508444  3
   7543   7555  13403  13399     1  180.0000771  0.4184000  2
   7543   7555  13403  13399     1  0.0000000  1.6024720  3
   7546   7552  13380  13376     1  180.0000771  0.4184000  2
   7546   7552  13380  13376     1  0.0000000  1.6024720  3
   7552  13380  13376  13375     1  180.0000771  0.4184000  2
   7552  13380  13376  13375     1  0.0000000  1.6024720  3
   7552  13380  13376  13392     1  180.0000771  5.6484000  1
   7552  13380  13376  13392     1  180.0000771  3.5564000  2
   7552  13380  13376  13392     1  0.0000000  0.4184000  3
   7555  13403  13399  13415     1  180.0000771  5.6484000  1
   7555  13403  13399  13415     1  180.0000771  3.5564000  2
   7555  13403  13399  13415     1  0.0000000  0.4184000  3
   7555  13403  13399  13398     1  180.0000771  0.4184000  2
   7555  13403  13399  13398     1  0.0000000  1.6024720  3
   7560   7561   7573   7585     1  0.0000000  0.6508444  3
   7560   7564   7576   7582     1  0.0000000  0.6508444  3
   7560   7567   7570   7579     1  0.0000000  0.6508444  3
   7561   7560   7564   7576     1  0.0000000  0.6508444  3
   7561   7560   7567   7570     1  0.0000000  0.6508444  3
   7561   7573   7585  13449     1  0.0000000  0.6508444  3
   7564   7560   7561   7573     1  0.0000000  0.6508444  3
   7564   7560   7567   7570     1  0.0000000  0.6508444  3
   7564   7576   7582  13426     1  0.0000000  0.6508444  3
   7567   7560   7561   7573     1  0.0000000  0.6508444  3
   7567   7560   7564   7576     1  0.0000000  0.6508444  3
   7567   7570   7579   7588     1  0.0000000  0.6508444  3
   7573   7585  13449  13445     1  180.0000771  0.4184000  2
   7573   7585  13449  13445     1  0.0000000  1.6024720  3
   7576   7582  13426  13422     1  180.0000771  0.4184000  2
   7576   7582  13426  13422     1  0.0000000  1.6024720  3
   7582  13426  13422  13421     1  180.0000771  0.4184000  2
   7582  13426  13422  13421     1  0.0000000  1.6024720  3
   7582  13426  13422  13438     1  180.0000771  5.6484000  1
   7582  13426  13422  13438     1  180.0000771  3.5564000  2
   7582  13426  13422  13438     1  0.0000000  0.4184000  3
   7585  13449  13445  13461     1  180.0000771  5.6484000  1
   7585  13449  13445  13461     1  180.0000771  3.5564000  2
   7585  13449  13445  13461     1  0.0000000  0.4184000  3
   7585  13449  13445  13444     1  180.0000771  0.4184000  2
   7585  13449  13445  13444     1  0.0000000  1.6024720  3
   7590   7591   7603   7615     1  0.0000000  0.6508444  3
   7590   7594   7606   7612     1  0.0000000  0.6508444  3
   7590   7597   7600   7609     1  0.0000000  0.6508444  3
   7591   7590   7594   7606     1  0.0000000  0.6508444  3
   7591   7590   7597   7600     1  0.0000000  0.6508444  3
   7591   7603   7615  13495     1  0.0000000  0.6508444  3
   7594   7590   7591   7603     1  0.0000000  0.6508444  3
   7594   7590   7597   7600     1  0.0000000  0.6508444  3
   7594   7606   7612  13472     1  0.0000000  0.6508444  3
   7597   7590   7591   7603     1  0.0000000  0.6508444  3
   7597   7590   7594   7606     1  0.0000000  0.6508444  3
   7597   7600   7609   7618     1  0.0000000  0.6508444  3
   7603   7615  13495  13491     1  180.0000771  0.4184000  2
   7603   7615  13495  13491     1  0.0000000  1.6024720  3
   7606   7612  13472  13468     1  180.0000771  0.4184000  2
   7606   7612  13472  13468     1  0.0000000  1.6024720  3
   7612  13472  13468  13467     1  180.0000771  0.4184000  2
   7612  13472  13468  13467     1  0.0000000  1.6024720  3
   7612  13472  13468  13484     1  180.0000771  5.6484000  1
   7612  13472  13468  13484     1  180.0000771  3.5564000  2
   7612  13472  13468  13484     1  0.0000000  0.4184000  3
   7615  13495  13491  13507     1  180.0000771  5.6484000  1
   7615  13495  13491  13507     1  180.0000771  3.5564000  2
   7615  13495  13491  13507     1  0.0000000  0.4184000  3
   7615  13495  13491  13490     1  180.0000771  0.4184000  2
   7615  13495  13491  13490     1  0.0000000  1.6024720  3
   7620   7621   7624   7625     1  180.0000771  0.8368000  1
   7620   7621   7624   7625     1  180.0000771  1.0460000  2
   7620   7621   7624   7625     1  0.0000000  0.7531200  3
   7620   7621   7624   7632     1  0.0000000  0.6508444  3
   7620   7642   7626   7625     1  180.0000771  0.4184000  2
   7620   7642   7626   7625     1  0.0000000  1.6024720  3
   7620   7642   7626   7630     1  180.0000771  5.6484000  1
   7620   7642   7626   7630     1  180.0000771  3.5564000  2
   7620   7642   7626   7630     1  0.0000000  0.4184000  3
   7621   7620   7634   7640     1  0.0000000  0.6508444  3
   7621   7620   7642   7626     1  180.0000771  0.4184000  2
   7621   7620   7642   7626     1  0.0000000  1.6024720  3
   7621   7624   7625   7626     1  180.0000771  0.8368000  1
   7621   7624   7625   7626     1  180.0000771  1.0460000  2
   7621   7624   7625   7626     1  0.0000000  0.7531200  3
   7621   7624   7625   7631     1  0.0000000  0.6508444  3
   7624   7621   7620   7634     1  180.0000771  0.8368000  1
   7624   7621   7620   7634     1  180.0000771  1.0460000  2
   7624   7621   7620   7634     1  0.0000000  0.7531200  3
   7624   7621   7620   7642     1  0.0000000  0.6508444  3
   7624   7625   7626   7630     1  0.0000000  0.6508444  3
   7624   7625   7626   7642     1  0.0000000  0.6508444  3
   7625   7624   7621   7633     1  0.0000000  0.6508444  3
   7626   7625   7624   7632     1  0.0000000  0.6508444  3
   7626   7642   7620   7634     1  180.0000771  0.4184000  2
   7626   7642   7620   7634     1  0.0000000  1.6024720  3
   7630   7626   7625   7631     1  0.0000000  4.9162000  2
   7630   7626   7625   7631     1  0.0000000  0.6024960  3
   7631   7625   7624   7632     1  0.0000000  4.9162000  2
   7631   7625   7624   7632     1  0.0000000  0.6024960  3
   7631   7625   7626   7642     1  0.0000000  4.9162000  2
   7631   7625   7626   7642     1  0.0000000  0.6024960  3
   7632   7624   7621   7633     1  0.0000000  4.9162000  2
   7632   7624   7621   7633     1  0.0000000  0.6024960  3
   7633   7621   7620   7634     1  0.0000000  0.6508444  3
   7633   7621   7620   7642     1  0.0000000  4.9162000  2
   7633   7621   7620   7642     1  0.0000000  0.6024960  3
   7640   7634   7620   7642     1  0.0000000  4.9162000  2
   7640   7634   7620   7642     1  0.0000000  0.6024960  3
   7643   7644   7647   7648     1  180.0000771  0.8368000  1
   7643   7644   7647   7648     1  180.0000771  1.0460000  2
   7643   7644   7647   7648     1  0.0000000  0.7531200  3
   7643   7644   7647   7655     1  0.0000000  0.6508444  3
   7643   7665   7649   7653     1  180.0000771  5.6484000  1
   7643   7665   7649   7653     1  180.0000771  3.5564000  2
   7643   7665   7649   7653     1  0.0000000  0.4184000  3
   7643   7665   7649   7648     1  180.0000771  0.4184000  2
   7643   7665   7649   7648     1  0.0000000  1.6024720  3
   7644   7647   7648   7649     1  180.0000771  0.8368000  1
   7644   7647   7648   7649     1  180.0000771  1.0460000  2
   7644   7647   7648   7649     1  0.0000000  0.7531200  3
   7644   7647   7648   7654     1  0.0000000  0.6508444  3
   7644   7643   7657   7663     1  0.0000000  0.6508444  3
   7644   7643   7665   7649     1  180.0000771  0.4184000  2
   7644   7643   7665   7649     1  0.0000000  1.6024720  3
   7647   7648   7649   7653     1  0.0000000  0.6508444  3
   7647   7648   7649   7665     1  0.0000000  0.6508444  3
   7647   7644   7643   7657     1  180.0000771  0.8368000  1
   7647   7644   7643   7657     1  180.0000771  1.0460000  2
   7647   7644   7643   7657     1  0.0000000  0.7531200  3
   7647   7644   7643   7665     1  0.0000000  0.6508444  3
   7648   7647   7644   7656     1  0.0000000  0.6508444  3
   7649   7665   7643   7657     1  180.0000771  0.4184000  2
   7649   7665   7643   7657     1  0.0000000  1.6024720  3
   7649   7648   7647   7655     1  0.0000000  0.6508444  3
   7653   7649   7648   7654     1  0.0000000  4.9162000  2
   7653   7649   7648   7654     1  0.0000000  0.6024960  3
   7654   7648   7649   7665     1  0.0000000  4.9162000  2
   7654   7648   7649   7665     1  0.0000000  0.6024960  3
   7654   7648   7647   7655     1  0.0000000  4.9162000  2
   7654   7648   7647   7655     1  0.0000000  0.6024960  3
   7655   7647   7644   7656     1  0.0000000  4.9162000  2
   7655   7647   7644   7656     1  0.0000000  0.6024960  3
   7656   7644   7643   7657     1  0.0000000  0.6508444  3
   7656   7644   7643   7665     1  0.0000000  4.9162000  2
   7656   7644   7643   7665     1  0.0000000  0.6024960  3
   7663   7657   7643   7665     1  0.0000000  4.9162000  2
   7663   7657   7643   7665     1  0.0000000  0.6024960  3
   7666   7667   7670   7671     1  180.0000771  0.8368000  1
   7666   7667   7670   7671     1  180.0000771  1.0460000  2
   7666   7667   7670   7671     1  0.0000000  0.7531200  3
   7666   7667   7670   7678     1  0.0000000  0.6508444  3
   7666   7688   7672   7671     1  180.0000771  0.4184000  2
   7666   7688   7672   7671     1  0.0000000  1.6024720  3
   7666   7688   7672   7676     1  180.0000771  5.6484000  1
   7666   7688   7672   7676     1  180.0000771  3.5564000  2
   7666   7688   7672   7676     1  0.0000000  0.4184000  3
   7667   7666   7680   7686     1  0.0000000  0.6508444  3
   7667   7666   7688   7672     1  180.0000771  0.4184000  2
   7667   7666   7688   7672     1  0.0000000  1.6024720  3
   7667   7670   7671   7672     1  180.0000771  0.8368000  1
   7667   7670   7671   7672     1  180.0000771  1.0460000  2
   7667   7670   7671   7672     1  0.0000000  0.7531200  3
   7667   7670   7671   7677     1  0.0000000  0.6508444  3
   7670   7667   7666   7680     1  180.0000771  0.8368000  1
   7670   7667   7666   7680     1  180.0000771  1.0460000  2
   7670   7667   7666   7680     1  0.0000000  0.7531200  3
   7670   7667   7666   7688     1  0.0000000  0.6508444  3
   7670   7671   7672   7676     1  0.0000000  0.6508444  3
   7670   7671   7672   7688     1  0.0000000  0.6508444  3
   7671   7670   7667   7679     1  0.0000000  0.6508444  3
   7672   7671   7670   7678     1  0.0000000  0.6508444  3
   7672   7688   7666   7680     1  180.0000771  0.4184000  2
   7672   7688   7666   7680     1  0.0000000  1.6024720  3
   7676   7672   7671   7677     1  0.0000000  4.9162000  2
   7676   7672   7671   7677     1  0.0000000  0.6024960  3
   7677   7671   7670   7678     1  0.0000000  4.9162000  2
   7677   7671   7670   7678     1  0.0000000  0.6024960  3
   7677   7671   7672   7688     1  0.0000000  4.9162000  2
   7677   7671   7672   7688     1  0.0000000  0.6024960  3
   7678   7670   7667   7679     1  0.0000000  4.9162000  2
   7678   7670   7667   7679     1  0.0000000  0.6024960  3
   7679   7667   7666   7680     1  0.0000000  0.6508444  3
   7679   7667   7666   7688     1  0.0000000  4.9162000  2
   7679   7667   7666   7688     1  0.0000000  0.6024960  3
   7686   7680   7666   7688     1  0.0000000  4.9162000  2
   7686   7680   7666   7688     1  0.0000000  0.6024960  3
   7689   7690   7693   7694     1  180.0000771  0.8368000  1
   7689   7690   7693   7694     1  180.0000771  1.0460000  2
   7689   7690   7693   7694     1  0.0000000  0.7531200  3
   7689   7690   7693   7701     1  0.0000000  0.6508444  3
   7689   7711   7695   7699     1  180.0000771  5.6484000  1
   7689   7711   7695   7699     1  180.0000771  3.5564000  2
   7689   7711   7695   7699     1  0.0000000  0.4184000  3
   7689   7711   7695   7694     1  180.0000771  0.4184000  2
   7689   7711   7695   7694     1  0.0000000  1.6024720  3
   7690   7693   7694   7695     1  180.0000771  0.8368000  1
   7690   7693   7694   7695     1  180.0000771  1.0460000  2
   7690   7693   7694   7695     1  0.0000000  0.7531200  3
   7690   7693   7694   7700     1  0.0000000  0.6508444  3
   7690   7689   7703   7709     1  0.0000000  0.6508444  3
   7690   7689   7711   7695     1  180.0000771  0.4184000  2
   7690   7689   7711   7695     1  0.0000000  1.6024720  3
   7693   7694   7695   7699     1  0.0000000  0.6508444  3
   7693   7694   7695   7711     1  0.0000000  0.6508444  3
   7693   7690   7689   7703     1  180.0000771  0.8368000  1
   7693   7690   7689   7703     1  180.0000771  1.0460000  2
   7693   7690   7689   7703     1  0.0000000  0.7531200  3
   7693   7690   7689   7711     1  0.0000000  0.6508444  3
   7694   7693   7690   7702     1  0.0000000  0.6508444  3
   7695   7711   7689   7703     1  180.0000771  0.4184000  2
   7695   7711   7689   7703     1  0.0000000  1.6024720  3
   7695   7694   7693   7701     1  0.0000000  0.6508444  3
   7699   7695   7694   7700     1  0.0000000  4.9162000  2
   7699   7695   7694   7700     1  0.0000000  0.6024960  3
   7700   7694   7695   7711     1  0.0000000  4.9162000  2
   7700   7694   7695   7711     1  0.0000000  0.6024960  3
   7700   7694   7693   7701     1  0.0000000  4.9162000  2
   7700   7694   7693   7701     1  0.0000000  0.6024960  3
   7701   7693   7690   7702     1  0.0000000  4.9162000  2
   7701   7693   7690   7702     1  0.0000000  0.6024960  3
   7702   7690   7689   7703     1  0.0000000  0.6508444  3
   7702   7690   7689   7711     1  0.0000000  4.9162000  2
   7702   7690   7689   7711     1  0.0000000  0.6024960  3
   7709   7703   7689   7711     1  0.0000000  4.9162000  2
   7709   7703   7689   7711     1  0.0000000  0.6024960  3
   7712   7713   7716   7717     1  180.0000771  0.8368000  1
   7712   7713   7716   7717     1  180.0000771  1.0460000  2
   7712   7713   7716   7717     1  0.0000000  0.7531200  3
   7712   7713   7716   7724     1  0.0000000  0.6508444  3
   7712   7734   7718   7717     1  180.0000771  0.4184000  2
   7712   7734   7718   7717     1  0.0000000  1.6024720  3
   7712   7734   7718   7722     1  180.0000771  5.6484000  1
   7712   7734   7718   7722     1  180.0000771  3.5564000  2
   7712   7734   7718   7722     1  0.0000000  0.4184000  3
   7713   7712   7726   7732     1  0.0000000  0.6508444  3
   7713   7712   7734   7718     1  180.0000771  0.4184000  2
   7713   7712   7734   7718     1  0.0000000  1.6024720  3
   7713   7716   7717   7718     1  180.0000771  0.8368000  1
   7713   7716   7717   7718     1  180.0000771  1.0460000  2
   7713   7716   7717   7718     1  0.0000000  0.7531200  3
   7713   7716   7717   7723     1  0.0000000  0.6508444  3
   7716   7713   7712   7726     1  180.0000771  0.8368000  1
   7716   7713   7712   7726     1  180.0000771  1.0460000  2
   7716   7713   7712   7726     1  0.0000000  0.7531200  3
   7716   7713   7712   7734     1  0.0000000  0.6508444  3
   7716   7717   7718   7722     1  0.0000000  0.6508444  3
   7716   7717   7718   7734     1  0.0000000  0.6508444  3
   7717   7716   7713   7725     1  0.0000000  0.6508444  3
   7718   7717   7716   7724     1  0.0000000  0.6508444  3
   7718   7734   7712   7726     1  180.0000771  0.4184000  2
   7718   7734   7712   7726     1  0.0000000  1.6024720  3
   7722   7718   7717   7723     1  0.0000000  4.9162000  2
   7722   7718   7717   7723     1  0.0000000  0.6024960  3
   7723   7717   7716   7724     1  0.0000000  4.9162000  2
   7723   7717   7716   7724     1  0.0000000  0.6024960  3
   7723   7717   7718   7734     1  0.0000000  4.9162000  2
   7723   7717   7718   7734     1  0.0000000  0.6024960  3
   7724   7716   7713   7725     1  0.0000000  4.9162000  2
   7724   7716   7713   7725     1  0.0000000  0.6024960  3
   7725   7713   7712   7726     1  0.0000000  0.6508444  3
   7725   7713   7712   7734     1  0.0000000  4.9162000  2
   7725   7713   7712   7734     1  0.0000000  0.6024960  3
   7732   7726   7712   7734     1  0.0000000  4.9162000  2
   7732   7726   7712   7734     1  0.0000000  0.6024960  3
   7735   7736   7739   7740     1  180.0000771  0.8368000  1
   7735   7736   7739   7740     1  180.0000771  1.0460000  2
   7735   7736   7739   7740     1  0.0000000  0.7531200  3
   7735   7736   7739   7747     1  0.0000000  0.6508444  3
   7735   7757   7741   7745     1  180.0000771  5.6484000  1
   7735   7757   7741   7745     1  180.0000771  3.5564000  2
   7735   7757   7741   7745     1  0.0000000  0.4184000  3
   7735   7757   7741   7740     1  180.0000771  0.4184000  2
   7735   7757   7741   7740     1  0.0000000  1.6024720  3
   7736   7739   7740   7741     1  180.0000771  0.8368000  1
   7736   7739   7740   7741     1  180.0000771  1.0460000  2
   7736   7739   7740   7741     1  0.0000000  0.7531200  3
   7736   7739   7740   7746     1  0.0000000  0.6508444  3
   7736   7735   7749   7755     1  0.0000000  0.6508444  3
   7736   7735   7757   7741     1  180.0000771  0.4184000  2
   7736   7735   7757   7741     1  0.0000000  1.6024720  3
   7739   7740   7741   7745     1  0.0000000  0.6508444  3
   7739   7740   7741   7757     1  0.0000000  0.6508444  3
   7739   7736   7735   7749     1  180.0000771  0.8368000  1
   7739   7736   7735   7749     1  180.0000771  1.0460000  2
   7739   7736   7735   7749     1  0.0000000  0.7531200  3
   7739   7736   7735   7757     1  0.0000000  0.6508444  3
   7740   7739   7736   7748     1  0.0000000  0.6508444  3
   7741   7757   7735   7749     1  180.0000771  0.4184000  2
   7741   7757   7735   7749     1  0.0000000  1.6024720  3
   7741   7740   7739   7747     1  0.0000000  0.6508444  3
   7745   7741   7740   7746     1  0.0000000  4.9162000  2
   7745   7741   7740   7746     1  0.0000000  0.6024960  3
   7746   7740   7741   7757     1  0.0000000  4.9162000  2
   7746   7740   7741   7757     1  0.0000000  0.6024960  3
   7746   7740   7739   7747     1  0.0000000  4.9162000  2
   7746   7740   7739   7747     1  0.0000000  0.6024960  3
   7747   7739   7736   7748     1  0.0000000  4.9162000  2
   7747   7739   7736   7748     1  0.0000000  0.6024960  3
   7748   7736   7735   7749     1  0.0000000  0.6508444  3
   7748   7736   7735   7757     1  0.0000000  4.9162000  2
   7748   7736   7735   7757     1  0.0000000  0.6024960  3
   7755   7749   7735   7757     1  0.0000000  4.9162000  2
   7755   7749   7735   7757     1  0.0000000  0.6024960  3
   7758   7759   7762   7763     1  180.0000771  0.8368000  1
   7758   7759   7762   7763     1  180.0000771  1.0460000  2
   7758   7759   7762   7763     1  0.0000000  0.7531200  3
   7758   7759   7762   7770     1  0.0000000  0.6508444  3
   7758   7780   7764   7763     1  180.0000771  0.4184000  2
   7758   7780   7764   7763     1  0.0000000  1.6024720  3
   7758   7780   7764   7768     1  180.0000771  5.6484000  1
   7758   7780   7764   7768     1  180.0000771  3.5564000  2
   7758   7780   7764   7768     1  0.0000000  0.4184000  3
   7759   7758   7772   7778     1  0.0000000  0.6508444  3
   7759   7758   7780   7764     1  180.0000771  0.4184000  2
   7759   7758   7780   7764     1  0.0000000  1.6024720  3
   7759   7762   7763   7764     1  180.0000771  0.8368000  1
   7759   7762   7763   7764     1  180.0000771  1.0460000  2
   7759   7762   7763   7764     1  0.0000000  0.7531200  3
   7759   7762   7763   7769     1  0.0000000  0.6508444  3
   7762   7759   7758   7772     1  180.0000771  0.8368000  1
   7762   7759   7758   7772     1  180.0000771  1.0460000  2
   7762   7759   7758   7772     1  0.0000000  0.7531200  3
   7762   7759   7758   7780     1  0.0000000  0.6508444  3
   7762   7763   7764   7768     1  0.0000000  0.6508444  3
   7762   7763   7764   7780     1  0.0000000  0.6508444  3
   7763   7762   7759   7771     1  0.0000000  0.6508444  3
   7764   7763   7762   7770     1  0.0000000  0.6508444  3
   7764   7780   7758   7772     1  180.0000771  0.4184000  2
   7764   7780   7758   7772     1  0.0000000  1.6024720  3
   7768   7764   7763   7769     1  0.0000000  4.9162000  2
   7768   7764   7763   7769     1  0.0000000  0.6024960  3
   7769   7763   7762   7770     1  0.0000000  4.9162000  2
   7769   7763   7762   7770     1  0.0000000  0.6024960  3
   7769   7763   7764   7780     1  0.0000000  4.9162000  2
   7769   7763   7764   7780     1  0.0000000  0.6024960  3
   7770   7762   7759   7771     1  0.0000000  4.9162000  2
   7770   7762   7759   7771     1  0.0000000  0.6024960  3
   7771   7759   7758   7772     1  0.0000000  0.6508444  3
   7771   7759   7758   7780     1  0.0000000  4.9162000  2
   7771   7759   7758   7780     1  0.0000000  0.6024960  3
   7778   7772   7758   7780     1  0.0000000  4.9162000  2
   7778   7772   7758   7780     1  0.0000000  0.6024960  3
   7781   7782   7785   7786     1  180.0000771  0.8368000  1
   7781   7782   7785   7786     1  180.0000771  1.0460000  2
   7781   7782   7785   7786     1  0.0000000  0.7531200  3
   7781   7782   7785   7793     1  0.0000000  0.6508444  3
   7781   7803   7787   7791     1  180.0000771  5.6484000  1
   7781   7803   7787   7791     1  180.0000771  3.5564000  2
   7781   7803   7787   7791     1  0.0000000  0.4184000  3
   7781   7803   7787   7786     1  180.0000771  0.4184000  2
   7781   7803   7787   7786     1  0.0000000  1.6024720  3
   7782   7785   7786   7787     1  180.0000771  0.8368000  1
   7782   7785   7786   7787     1  180.0000771  1.0460000  2
   7782   7785   7786   7787     1  0.0000000  0.7531200  3
   7782   7785   7786   7792     1  0.0000000  0.6508444  3
   7782   7781   7795   7801     1  0.0000000  0.6508444  3
   7782   7781   7803   7787     1  180.0000771  0.4184000  2
   7782   7781   7803   7787     1  0.0000000  1.6024720  3
   7785   7786   7787   7791     1  0.0000000  0.6508444  3
   7785   7786   7787   7803     1  0.0000000  0.6508444  3
   7785   7782   7781   7795     1  180.0000771  0.8368000  1
   7785   7782   7781   7795     1  180.0000771  1.0460000  2
   7785   7782   7781   7795     1  0.0000000  0.7531200  3
   7785   7782   7781   7803     1  0.0000000  0.6508444  3
   7786   7785   7782   7794     1  0.0000000  0.6508444  3
   7787   7803   7781   7795     1  180.0000771  0.4184000  2
   7787   7803   7781   7795     1  0.0000000  1.6024720  3
   7787   7786   7785   7793     1  0.0000000  0.6508444  3
   7791   7787   7786   7792     1  0.0000000  4.9162000  2
   7791   7787   7786   7792     1  0.0000000  0.6024960  3
   7792   7786   7787   7803     1  0.0000000  4.9162000  2
   7792   7786   7787   7803     1  0.0000000  0.6024960  3
   7792   7786   7785   7793     1  0.0000000  4.9162000  2
   7792   7786   7785   7793     1  0.0000000  0.6024960  3
   7793   7785   7782   7794     1  0.0000000  4.9162000  2
   7793   7785   7782   7794     1  0.0000000  0.6024960  3
   7794   7782   7781   7795     1  0.0000000  0.6508444  3
   7794   7782   7781   7803     1  0.0000000  4.9162000  2
   7794   7782   7781   7803     1  0.0000000  0.6024960  3
   7801   7795   7781   7803     1  0.0000000  4.9162000  2
   7801   7795   7781   7803     1  0.0000000  0.6024960  3
   7804   7805   7808   7809     1  180.0000771  0.8368000  1
   7804   7805   7808   7809     1  180.0000771  1.0460000  2
   7804   7805   7808   7809     1  0.0000000  0.7531200  3
   7804   7805   7808   7816     1  0.0000000  0.6508444  3
   7804   7826   7810   7809     1  180.0000771  0.4184000  2
   7804   7826   7810   7809     1  0.0000000  1.6024720  3
   7804   7826   7810   7814     1  180.0000771  5.6484000  1
   7804   7826   7810   7814     1  180.0000771  3.5564000  2
   7804   7826   7810   7814     1  0.0000000  0.4184000  3
   7805   7804   7818   7824     1  0.0000000  0.6508444  3
   7805   7804   7826   7810     1  180.0000771  0.4184000  2
   7805   7804   7826   7810     1  0.0000000  1.6024720  3
   7805   7808   7809   7810     1  180.0000771  0.8368000  1
   7805   7808   7809   7810     1  180.0000771  1.0460000  2
   7805   7808   7809   7810     1  0.0000000  0.7531200  3
   7805   7808   7809   7815     1  0.0000000  0.6508444  3
   7808   7805   7804   7818     1  180.0000771  0.8368000  1
   7808   7805   7804   7818     1  180.0000771  1.0460000  2
   7808   7805   7804   7818     1  0.0000000  0.7531200  3
   7808   7805   7804   7826     1  0.0000000  0.6508444  3
   7808   7809   7810   7814     1  0.0000000  0.6508444  3
   7808   7809   7810   7826     1  0.0000000  0.6508444  3
   7809   7808   7805   7817     1  0.0000000  0.6508444  3
   7810   7809   7808   7816     1  0.0000000  0.6508444  3
   7810   7826   7804   7818     1  180.0000771  0.4184000  2
   7810   7826   7804   7818     1  0.0000000  1.6024720  3
   7814   7810   7809   7815     1  0.0000000  4.9162000  2
   7814   7810   7809   7815     1  0.0000000  0.6024960  3
   7815   7809   7808   7816     1  0.0000000  4.9162000  2
   7815   7809   7808   7816     1  0.0000000  0.6024960  3
   7815   7809   7810   7826     1  0.0000000  4.9162000  2
   7815   7809   7810   7826     1  0.0000000  0.6024960  3
   7816   7808   7805   7817     1  0.0000000  4.9162000  2
   7816   7808   7805   7817     1  0.0000000  0.6024960  3
   7817   7805   7804   7818     1  0.0000000  0.6508444  3
   7817   7805   7804   7826     1  0.0000000  4.9162000  2
   7817   7805   7804   7826     1  0.0000000  0.6024960  3
   7824   7818   7804   7826     1  0.0000000  4.9162000  2
   7824   7818   7804   7826     1  0.0000000  0.6024960  3
   7827   7828   7831   7832     1  180.0000771  0.8368000  1
   7827   7828   7831   7832     1  180.0000771  1.0460000  2
   7827   7828   7831   7832     1  0.0000000  0.7531200  3
   7827   7828   7831   7839     1  0.0000000  0.6508444  3
   7827   7849   7833   7837     1  180.0000771  5.6484000  1
   7827   7849   7833   7837     1  180.0000771  3.5564000  2
   7827   7849   7833   7837     1  0.0000000  0.4184000  3
   7827   7849   7833   7832     1  180.0000771  0.4184000  2
   7827   7849   7833   7832     1  0.0000000  1.6024720  3
   7828   7831   7832   7833     1  180.0000771  0.8368000  1
   7828   7831   7832   7833     1  180.0000771  1.0460000  2
   7828   7831   7832   7833     1  0.0000000  0.7531200  3
   7828   7831   7832   7838     1  0.0000000  0.6508444  3
   7828   7827   7841   7847     1  0.0000000  0.6508444  3
   7828   7827   7849   7833     1  180.0000771  0.4184000  2
   7828   7827   7849   7833     1  0.0000000  1.6024720  3
   7831   7832   7833   7837     1  0.0000000  0.6508444  3
   7831   7832   7833   7849     1  0.0000000  0.6508444  3
   7831   7828   7827   7841     1  180.0000771  0.8368000  1
   7831   7828   7827   7841     1  180.0000771  1.0460000  2
   7831   7828   7827   7841     1  0.0000000  0.7531200  3
   7831   7828   7827   7849     1  0.0000000  0.6508444  3
   7832   7831   7828   7840     1  0.0000000  0.6508444  3
   7833   7849   7827   7841     1  180.0000771  0.4184000  2
   7833   7849   7827   7841     1  0.0000000  1.6024720  3
   7833   7832   7831   7839     1  0.0000000  0.6508444  3
   7837   7833   7832   7838     1  0.0000000  4.9162000  2
   7837   7833   7832   7838     1  0.0000000  0.6024960  3
   7838   7832   7833   7849     1  0.0000000  4.9162000  2
   7838   7832   7833   7849     1  0.0000000  0.6024960  3
   7838   7832   7831   7839     1  0.0000000  4.9162000  2
   7838   7832   7831   7839     1  0.0000000  0.6024960  3
   7839   7831   7828   7840     1  0.0000000  4.9162000  2
   7839   7831   7828   7840     1  0.0000000  0.6024960  3
   7840   7828   7827   7841     1  0.0000000  0.6508444  3
   7840   7828   7827   7849     1  0.0000000  4.9162000  2
   7840   7828   7827   7849     1  0.0000000  0.6024960  3
   7847   7841   7827   7849     1  0.0000000  4.9162000  2
   7847   7841   7827   7849     1  0.0000000  0.6024960  3
   7850   7851   7854   7855     1  180.0000771  0.8368000  1
   7850   7851   7854   7855     1  180.0000771  1.0460000  2
   7850   7851   7854   7855     1  0.0000000  0.7531200  3
   7850   7851   7854   7862     1  0.0000000  0.6508444  3
   7850   7872   7856   7855     1  180.0000771  0.4184000  2
   7850   7872   7856   7855     1  0.0000000  1.6024720  3
   7850   7872   7856   7860     1  180.0000771  5.6484000  1
   7850   7872   7856   7860     1  180.0000771  3.5564000  2
   7850   7872   7856   7860     1  0.0000000  0.4184000  3
   7851   7850   7864   7870     1  0.0000000  0.6508444  3
   7851   7850   7872   7856     1  180.0000771  0.4184000  2
   7851   7850   7872   7856     1  0.0000000  1.6024720  3
   7851   7854   7855   7856     1  180.0000771  0.8368000  1
   7851   7854   7855   7856     1  180.0000771  1.0460000  2
   7851   7854   7855   7856     1  0.0000000  0.7531200  3
   7851   7854   7855   7861     1  0.0000000  0.6508444  3
   7854   7851   7850   7864     1  180.0000771  0.8368000  1
   7854   7851   7850   7864     1  180.0000771  1.0460000  2
   7854   7851   7850   7864     1  0.0000000  0.7531200  3
   7854   7851   7850   7872     1  0.0000000  0.6508444  3
   7854   7855   7856   7860     1  0.0000000  0.6508444  3
   7854   7855   7856   7872     1  0.0000000  0.6508444  3
   7855   7854   7851   7863     1  0.0000000  0.6508444  3
   7856   7855   7854   7862     1  0.0000000  0.6508444  3
   7856   7872   7850   7864     1  180.0000771  0.4184000  2
   7856   7872   7850   7864     1  0.0000000  1.6024720  3
   7860   7856   7855   7861     1  0.0000000  4.9162000  2
   7860   7856   7855   7861     1  0.0000000  0.6024960  3
   7861   7855   7854   7862     1  0.0000000  4.9162000  2
   7861   7855   7854   7862     1  0.0000000  0.6024960  3
   7861   7855   7856   7872     1  0.0000000  4.9162000  2
   7861   7855   7856   7872     1  0.0000000  0.6024960  3
   7862   7854   7851   7863     1  0.0000000  4.9162000  2
   7862   7854   7851   7863     1  0.0000000  0.6024960  3
   7863   7851   7850   7864     1  0.0000000  0.6508444  3
   7863   7851   7850   7872     1  0.0000000  4.9162000  2
   7863   7851   7850   7872     1  0.0000000  0.6024960  3
   7870   7864   7850   7872     1  0.0000000  4.9162000  2
   7870   7864   7850   7872     1  0.0000000  0.6024960  3
   7873   7874   7877   7878     1  180.0000771  0.8368000  1
   7873   7874   7877   7878     1  180.0000771  1.0460000  2
   7873   7874   7877   7878     1  0.0000000  0.7531200  3
   7873   7874   7877   7885     1  0.0000000  0.6508444  3
   7873   7895   7879   7883     1  180.0000771  5.6484000  1
   7873   7895   7879   7883     1  180.0000771  3.5564000  2
   7873   7895   7879   7883     1  0.0000000  0.4184000  3
   7873   7895   7879   7878     1  180.0000771  0.4184000  2
   7873   7895   7879   7878     1  0.0000000  1.6024720  3
   7874   7877   7878   7879     1  180.0000771  0.8368000  1
   7874   7877   7878   7879     1  180.0000771  1.0460000  2
   7874   7877   7878   7879     1  0.0000000  0.7531200  3
   7874   7877   7878   7884     1  0.0000000  0.6508444  3
   7874   7873   7887   7893     1  0.0000000  0.6508444  3
   7874   7873   7895   7879     1  180.0000771  0.4184000  2
   7874   7873   7895   7879     1  0.0000000  1.6024720  3
   7877   7878   7879   7883     1  0.0000000  0.6508444  3
   7877   7878   7879   7895     1  0.0000000  0.6508444  3
   7877   7874   7873   7887     1  180.0000771  0.8368000  1
   7877   7874   7873   7887     1  180.0000771  1.0460000  2
   7877   7874   7873   7887     1  0.0000000  0.7531200  3
   7877   7874   7873   7895     1  0.0000000  0.6508444  3
   7878   7877   7874   7886     1  0.0000000  0.6508444  3
   7879   7895   7873   7887     1  180.0000771  0.4184000  2
   7879   7895   7873   7887     1  0.0000000  1.6024720  3
   7879   7878   7877   7885     1  0.0000000  0.6508444  3
   7883   7879   7878   7884     1  0.0000000  4.9162000  2
   7883   7879   7878   7884     1  0.0000000  0.6024960  3
   7884   7878   7879   7895     1  0.0000000  4.9162000  2
   7884   7878   7879   7895     1  0.0000000  0.6024960  3
   7884   7878   7877   7885     1  0.0000000  4.9162000  2
   7884   7878   7877   7885     1  0.0000000  0.6024960  3
   7885   7877   7874   7886     1  0.0000000  4.9162000  2
   7885   7877   7874   7886     1  0.0000000  0.6024960  3
   7886   7874   7873   7887     1  0.0000000  0.6508444  3
   7886   7874   7873   7895     1  0.0000000  4.9162000  2
   7886   7874   7873   7895     1  0.0000000  0.6024960  3
   7893   7887   7873   7895     1  0.0000000  4.9162000  2
   7893   7887   7873   7895     1  0.0000000  0.6024960  3
   7896   7897   7900   7901     1  180.0000771  0.8368000  1
   7896   7897   7900   7901     1  180.0000771  1.0460000  2
   7896   7897   7900   7901     1  0.0000000  0.7531200  3
   7896   7897   7900   7908     1  0.0000000  0.6508444  3
   7896   7918   7902   7901     1  180.0000771  0.4184000  2
   7896   7918   7902   7901     1  0.0000000  1.6024720  3
   7896   7918   7902   7906     1  180.0000771  5.6484000  1
   7896   7918   7902   7906     1  180.0000771  3.5564000  2
   7896   7918   7902   7906     1  0.0000000  0.4184000  3
   7897   7896   7910   7916     1  0.0000000  0.6508444  3
   7897   7896   7918   7902     1  180.0000771  0.4184000  2
   7897   7896   7918   7902     1  0.0000000  1.6024720  3
   7897   7900   7901   7902     1  180.0000771  0.8368000  1
   7897   7900   7901   7902     1  180.0000771  1.0460000  2
   7897   7900   7901   7902     1  0.0000000  0.7531200  3
   7897   7900   7901   7907     1  0.0000000  0.6508444  3
   7900   7897   7896   7910     1  180.0000771  0.8368000  1
   7900   7897   7896   7910     1  180.0000771  1.0460000  2
   7900   7897   7896   7910     1  0.0000000  0.7531200  3
   7900   7897   7896   7918     1  0.0000000  0.6508444  3
   7900   7901   7902   7906     1  0.0000000  0.6508444  3
   7900   7901   7902   7918     1  0.0000000  0.6508444  3
   7901   7900   7897   7909     1  0.0000000  0.6508444  3
   7902   7901   7900   7908     1  0.0000000  0.6508444  3
   7902   7918   7896   7910     1  180.0000771  0.4184000  2
   7902   7918   7896   7910     1  0.0000000  1.6024720  3
   7906   7902   7901   7907     1  0.0000000  4.9162000  2
   7906   7902   7901   7907     1  0.0000000  0.6024960  3
   7907   7901   7900   7908     1  0.0000000  4.9162000  2
   7907   7901   7900   7908     1  0.0000000  0.6024960  3
   7907   7901   7902   7918     1  0.0000000  4.9162000  2
   7907   7901   7902   7918     1  0.0000000  0.6024960  3
   7908   7900   7897   7909     1  0.0000000  4.9162000  2
   7908   7900   7897   7909     1  0.0000000  0.6024960  3
   7909   7897   7896   7910     1  0.0000000  0.6508444  3
   7909   7897   7896   7918     1  0.0000000  4.9162000  2
   7909   7897   7896   7918     1  0.0000000  0.6024960  3
   7916   7910   7896   7918     1  0.0000000  4.9162000  2
   7916   7910   7896   7918     1  0.0000000  0.6024960  3
   7919   7920   7923   7924     1  180.0000771  0.8368000  1
   7919   7920   7923   7924     1  180.0000771  1.0460000  2
   7919   7920   7923   7924     1  0.0000000  0.7531200  3
   7919   7920   7923   7931     1  0.0000000  0.6508444  3
   7919   7941   7925   7929     1  180.0000771  5.6484000  1
   7919   7941   7925   7929     1  180.0000771  3.5564000  2
   7919   7941   7925   7929     1  0.0000000  0.4184000  3
   7919   7941   7925   7924     1  180.0000771  0.4184000  2
   7919   7941   7925   7924     1  0.0000000  1.6024720  3
   7920   7923   7924   7925     1  180.0000771  0.8368000  1
   7920   7923   7924   7925     1  180.0000771  1.0460000  2
   7920   7923   7924   7925     1  0.0000000  0.7531200  3
   7920   7923   7924   7930     1  0.0000000  0.6508444  3
   7920   7919   7933   7939     1  0.0000000  0.6508444  3
   7920   7919   7941   7925     1  180.0000771  0.4184000  2
   7920   7919   7941   7925     1  0.0000000  1.6024720  3
   7923   7924   7925   7929     1  0.0000000  0.6508444  3
   7923   7924   7925   7941     1  0.0000000  0.6508444  3
   7923   7920   7919   7933     1  180.0000771  0.8368000  1
   7923   7920   7919   7933     1  180.0000771  1.0460000  2
   7923   7920   7919   7933     1  0.0000000  0.7531200  3
   7923   7920   7919   7941     1  0.0000000  0.6508444  3
   7924   7923   7920   7932     1  0.0000000  0.6508444  3
   7925   7941   7919   7933     1  180.0000771  0.4184000  2
   7925   7941   7919   7933     1  0.0000000  1.6024720  3
   7925   7924   7923   7931     1  0.0000000  0.6508444  3
   7929   7925   7924   7930     1  0.0000000  4.9162000  2
   7929   7925   7924   7930     1  0.0000000  0.6024960  3
   7930   7924   7925   7941     1  0.0000000  4.9162000  2
   7930   7924   7925   7941     1  0.0000000  0.6024960  3
   7930   7924   7923   7931     1  0.0000000  4.9162000  2
   7930   7924   7923   7931     1  0.0000000  0.6024960  3
   7931   7923   7920   7932     1  0.0000000  4.9162000  2
   7931   7923   7920   7932     1  0.0000000  0.6024960  3
   7932   7920   7919   7933     1  0.0000000  0.6508444  3
   7932   7920   7919   7941     1  0.0000000  4.9162000  2
   7932   7920   7919   7941     1  0.0000000  0.6024960  3
   7939   7933   7919   7941     1  0.0000000  4.9162000  2
   7939   7933   7919   7941     1  0.0000000  0.6024960  3
   7942   7943   7946   7947     1  180.0000771  0.8368000  1
   7942   7943   7946   7947     1  180.0000771  1.0460000  2
   7942   7943   7946   7947     1  0.0000000  0.7531200  3
   7942   7943   7946   7954     1  0.0000000  0.6508444  3
   7942   7964   7948   7947     1  180.0000771  0.4184000  2
   7942   7964   7948   7947     1  0.0000000  1.6024720  3
   7942   7964   7948   7952     1  180.0000771  5.6484000  1
   7942   7964   7948   7952     1  180.0000771  3.5564000  2
   7942   7964   7948   7952     1  0.0000000  0.4184000  3
   7943   7942   7956   7962     1  0.0000000  0.6508444  3
   7943   7942   7964   7948     1  180.0000771  0.4184000  2
   7943   7942   7964   7948     1  0.0000000  1.6024720  3
   7943   7946   7947   7948     1  180.0000771  0.8368000  1
   7943   7946   7947   7948     1  180.0000771  1.0460000  2
   7943   7946   7947   7948     1  0.0000000  0.7531200  3
   7943   7946   7947   7953     1  0.0000000  0.6508444  3
   7946   7943   7942   7956     1  180.0000771  0.8368000  1
   7946   7943   7942   7956     1  180.0000771  1.0460000  2
   7946   7943   7942   7956     1  0.0000000  0.7531200  3
   7946   7943   7942   7964     1  0.0000000  0.6508444  3
   7946   7947   7948   7952     1  0.0000000  0.6508444  3
   7946   7947   7948   7964     1  0.0000000  0.6508444  3
   7947   7946   7943   7955     1  0.0000000  0.6508444  3
   7948   7947   7946   7954     1  0.0000000  0.6508444  3
   7948   7964   7942   7956     1  180.0000771  0.4184000  2
   7948   7964   7942   7956     1  0.0000000  1.6024720  3
   7952   7948   7947   7953     1  0.0000000  4.9162000  2
   7952   7948   7947   7953     1  0.0000000  0.6024960  3
   7953   7947   7946   7954     1  0.0000000  4.9162000  2
   7953   7947   7946   7954     1  0.0000000  0.6024960  3
   7953   7947   7948   7964     1  0.0000000  4.9162000  2
   7953   7947   7948   7964     1  0.0000000  0.6024960  3
   7954   7946   7943   7955     1  0.0000000  4.9162000  2
   7954   7946   7943   7955     1  0.0000000  0.6024960  3
   7955   7943   7942   7956     1  0.0000000  0.6508444  3
   7955   7943   7942   7964     1  0.0000000  4.9162000  2
   7955   7943   7942   7964     1  0.0000000  0.6024960  3
   7962   7956   7942   7964     1  0.0000000  4.9162000  2
   7962   7956   7942   7964     1  0.0000000  0.6024960  3
   7965   7966   7969   7970     1  180.0000771  0.8368000  1
   7965   7966   7969   7970     1  180.0000771  1.0460000  2
   7965   7966   7969   7970     1  0.0000000  0.7531200  3
   7965   7966   7969   7977     1  0.0000000  0.6508444  3
   7965   7987   7971   7975     1  180.0000771  5.6484000  1
   7965   7987   7971   7975     1  180.0000771  3.5564000  2
   7965   7987   7971   7975     1  0.0000000  0.4184000  3
   7965   7987   7971   7970     1  180.0000771  0.4184000  2
   7965   7987   7971   7970     1  0.0000000  1.6024720  3
   7966   7969   7970   7971     1  180.0000771  0.8368000  1
   7966   7969   7970   7971     1  180.0000771  1.0460000  2
   7966   7969   7970   7971     1  0.0000000  0.7531200  3
   7966   7969   7970   7976     1  0.0000000  0.6508444  3
   7966   7965   7979   7985     1  0.0000000  0.6508444  3
   7966   7965   7987   7971     1  180.0000771  0.4184000  2
   7966   7965   7987   7971     1  0.0000000  1.6024720  3
   7969   7970   7971   7975     1  0.0000000  0.6508444  3
   7969   7970   7971   7987     1  0.0000000  0.6508444  3
   7969   7966   7965   7979     1  180.0000771  0.8368000  1
   7969   7966   7965   7979     1  180.0000771  1.0460000  2
   7969   7966   7965   7979     1  0.0000000  0.7531200  3
   7969   7966   7965   7987     1  0.0000000  0.6508444  3
   7970   7969   7966   7978     1  0.0000000  0.6508444  3
   7971   7987   7965   7979     1  180.0000771  0.4184000  2
   7971   7987   7965   7979     1  0.0000000  1.6024720  3
   7971   7970   7969   7977     1  0.0000000  0.6508444  3
   7975   7971   7970   7976     1  0.0000000  4.9162000  2
   7975   7971   7970   7976     1  0.0000000  0.6024960  3
   7976   7970   7971   7987     1  0.0000000  4.9162000  2
   7976   7970   7971   7987     1  0.0000000  0.6024960  3
   7976   7970   7969   7977     1  0.0000000  4.9162000  2
   7976   7970   7969   7977     1  0.0000000  0.6024960  3
   7977   7969   7966   7978     1  0.0000000  4.9162000  2
   7977   7969   7966   7978     1  0.0000000  0.6024960  3
   7978   7966   7965   7979     1  0.0000000  0.6508444  3
   7978   7966   7965   7987     1  0.0000000  4.9162000  2
   7978   7966   7965   7987     1  0.0000000  0.6024960  3
   7985   7979   7965   7987     1  0.0000000  4.9162000  2
   7985   7979   7965   7987     1  0.0000000  0.6024960  3
   7988   7989   7992   7993     1  180.0000771  0.8368000  1
   7988   7989   7992   7993     1  180.0000771  1.0460000  2
   7988   7989   7992   7993     1  0.0000000  0.7531200  3
   7988   7989   7992   8000     1  0.0000000  0.6508444  3
   7988   8010   7994   7993     1  180.0000771  0.4184000  2
   7988   8010   7994   7993     1  0.0000000  1.6024720  3
   7988   8010   7994   7998     1  180.0000771  5.6484000  1
   7988   8010   7994   7998     1  180.0000771  3.5564000  2
   7988   8010   7994   7998     1  0.0000000  0.4184000  3
   7989   7988   8002   8008     1  0.0000000  0.6508444  3
   7989   7988   8010   7994     1  180.0000771  0.4184000  2
   7989   7988   8010   7994     1  0.0000000  1.6024720  3
   7989   7992   7993   7994     1  180.0000771  0.8368000  1
   7989   7992   7993   7994     1  180.0000771  1.0460000  2
   7989   7992   7993   7994     1  0.0000000  0.7531200  3
   7989   7992   7993   7999     1  0.0000000  0.6508444  3
   7992   7989   7988   8002     1  180.0000771  0.8368000  1
   7992   7989   7988   8002     1  180.0000771  1.0460000  2
   7992   7989   7988   8002     1  0.0000000  0.7531200  3
   7992   7989   7988   8010     1  0.0000000  0.6508444  3
   7992   7993   7994   7998     1  0.0000000  0.6508444  3
   7992   7993   7994   8010     1  0.0000000  0.6508444  3
   7993   7992   7989   8001     1  0.0000000  0.6508444  3
   7994   7993   7992   8000     1  0.0000000  0.6508444  3
   7994   8010   7988   8002     1  180.0000771  0.4184000  2
   7994   8010   7988   8002     1  0.0000000  1.6024720  3
   7998   7994   7993   7999     1  0.0000000  4.9162000  2
   7998   7994   7993   7999     1  0.0000000  0.6024960  3
   7999   7993   7992   8000     1  0.0000000  4.9162000  2
   7999   7993   7992   8000     1  0.0000000  0.6024960  3
   7999   7993   7994   8010     1  0.0000000  4.9162000  2
   7999   7993   7994   8010     1  0.0000000  0.6024960  3
   8000   7992   7989   8001     1  0.0000000  4.9162000  2
   8000   7992   7989   8001     1  0.0000000  0.6024960  3
   8001   7989   7988   8002     1  0.0000000  0.6508444  3
   8001   7989   7988   8010     1  0.0000000  4.9162000  2
   8001   7989   7988   8010     1  0.0000000  0.6024960  3
   8008   8002   7988   8010     1  0.0000000  4.9162000  2
   8008   8002   7988   8010     1  0.0000000  0.6024960  3
   8011   8012   8015   8016     1  180.0000771  0.8368000  1
   8011   8012   8015   8016     1  180.0000771  1.0460000  2
   8011   8012   8015   8016     1  0.0000000  0.7531200  3
   8011   8012   8015   8023     1  0.0000000  0.6508444  3
   8011   8033   8017   8021     1  180.0000771  5.6484000  1
   8011   8033   8017   8021     1  180.0000771  3.5564000  2
   8011   8033   8017   8021     1  0.0000000  0.4184000  3
   8011   8033   8017   8016     1  180.0000771  0.4184000  2
   8011   8033   8017   8016     1  0.0000000  1.6024720  3
   8012   8015   8016   8017     1  180.0000771  0.8368000  1
   8012   8015   8016   8017     1  180.0000771  1.0460000  2
   8012   8015   8016   8017     1  0.0000000  0.7531200  3
   8012   8015   8016   8022     1  0.0000000  0.6508444  3
   8012   8011   8025   8031     1  0.0000000  0.6508444  3
   8012   8011   8033   8017     1  180.0000771  0.4184000  2
   8012   8011   8033   8017     1  0.0000000  1.6024720  3
   8015   8016   8017   8021     1  0.0000000  0.6508444  3
   8015   8016   8017   8033     1  0.0000000  0.6508444  3
   8015   8012   8011   8025     1  180.0000771  0.8368000  1
   8015   8012   8011   8025     1  180.0000771  1.0460000  2
   8015   8012   8011   8025     1  0.0000000  0.7531200  3
   8015   8012   8011   8033     1  0.0000000  0.6508444  3
   8016   8015   8012   8024     1  0.0000000  0.6508444  3
   8017   8033   8011   8025     1  180.0000771  0.4184000  2
   8017   8033   8011   8025     1  0.0000000  1.6024720  3
   8017   8016   8015   8023     1  0.0000000  0.6508444  3
   8021   8017   8016   8022     1  0.0000000  4.9162000  2
   8021   8017   8016   8022     1  0.0000000  0.6024960  3
   8022   8016   8017   8033     1  0.0000000  4.9162000  2
   8022   8016   8017   8033     1  0.0000000  0.6024960  3
   8022   8016   8015   8023     1  0.0000000  4.9162000  2
   8022   8016   8015   8023     1  0.0000000  0.6024960  3
   8023   8015   8012   8024     1  0.0000000  4.9162000  2
   8023   8015   8012   8024     1  0.0000000  0.6024960  3
   8024   8012   8011   8025     1  0.0000000  0.6508444  3
   8024   8012   8011   8033     1  0.0000000  4.9162000  2
   8024   8012   8011   8033     1  0.0000000  0.6024960  3
   8031   8025   8011   8033     1  0.0000000  4.9162000  2
   8031   8025   8011   8033     1  0.0000000  0.6024960  3
   8034   8035   8038   8039     1  180.0000771  0.8368000  1
   8034   8035   8038   8039     1  180.0000771  1.0460000  2
   8034   8035   8038   8039     1  0.0000000  0.7531200  3
   8034   8035   8038   8046     1  0.0000000  0.6508444  3
   8034   8056   8040   8039     1  180.0000771  0.4184000  2
   8034   8056   8040   8039     1  0.0000000  1.6024720  3
   8034   8056   8040   8044     1  180.0000771  5.6484000  1
   8034   8056   8040   8044     1  180.0000771  3.5564000  2
   8034   8056   8040   8044     1  0.0000000  0.4184000  3
   8035   8034   8048   8054     1  0.0000000  0.6508444  3
   8035   8034   8056   8040     1  180.0000771  0.4184000  2
   8035   8034   8056   8040     1  0.0000000  1.6024720  3
   8035   8038   8039   8040     1  180.0000771  0.8368000  1
   8035   8038   8039   8040     1  180.0000771  1.0460000  2
   8035   8038   8039   8040     1  0.0000000  0.7531200  3
   8035   8038   8039   8045     1  0.0000000  0.6508444  3
   8038   8035   8034   8048     1  180.0000771  0.8368000  1
   8038   8035   8034   8048     1  180.0000771  1.0460000  2
   8038   8035   8034   8048     1  0.0000000  0.7531200  3
   8038   8035   8034   8056     1  0.0000000  0.6508444  3
   8038   8039   8040   8044     1  0.0000000  0.6508444  3
   8038   8039   8040   8056     1  0.0000000  0.6508444  3
   8039   8038   8035   8047     1  0.0000000  0.6508444  3
   8040   8039   8038   8046     1  0.0000000  0.6508444  3
   8040   8056   8034   8048     1  180.0000771  0.4184000  2
   8040   8056   8034   8048     1  0.0000000  1.6024720  3
   8044   8040   8039   8045     1  0.0000000  4.9162000  2
   8044   8040   8039   8045     1  0.0000000  0.6024960  3
   8045   8039   8038   8046     1  0.0000000  4.9162000  2
   8045   8039   8038   8046     1  0.0000000  0.6024960  3
   8045   8039   8040   8056     1  0.0000000  4.9162000  2
   8045   8039   8040   8056     1  0.0000000  0.6024960  3
   8046   8038   8035   8047     1  0.0000000  4.9162000  2
   8046   8038   8035   8047     1  0.0000000  0.6024960  3
   8047   8035   8034   8048     1  0.0000000  0.6508444  3
   8047   8035   8034   8056     1  0.0000000  4.9162000  2
   8047   8035   8034   8056     1  0.0000000  0.6024960  3
   8054   8048   8034   8056     1  0.0000000  4.9162000  2
   8054   8048   8034   8056     1  0.0000000  0.6024960  3
   8057   8058   8061   8062     1  180.0000771  0.8368000  1
   8057   8058   8061   8062     1  180.0000771  1.0460000  2
   8057   8058   8061   8062     1  0.0000000  0.7531200  3
   8057   8058   8061   8069     1  0.0000000  0.6508444  3
   8057   8079   8063   8067     1  180.0000771  5.6484000  1
   8057   8079   8063   8067     1  180.0000771  3.5564000  2
   8057   8079   8063   8067     1  0.0000000  0.4184000  3
   8057   8079   8063   8062     1  180.0000771  0.4184000  2
   8057   8079   8063   8062     1  0.0000000  1.6024720  3
   8058   8061   8062   8063     1  180.0000771  0.8368000  1
   8058   8061   8062   8063     1  180.0000771  1.0460000  2
   8058   8061   8062   8063     1  0.0000000  0.7531200  3
   8058   8061   8062   8068     1  0.0000000  0.6508444  3
   8058   8057   8071   8077     1  0.0000000  0.6508444  3
   8058   8057   8079   8063     1  180.0000771  0.4184000  2
   8058   8057   8079   8063     1  0.0000000  1.6024720  3
   8061   8062   8063   8067     1  0.0000000  0.6508444  3
   8061   8062   8063   8079     1  0.0000000  0.6508444  3
   8061   8058   8057   8071     1  180.0000771  0.8368000  1
   8061   8058   8057   8071     1  180.0000771  1.0460000  2
   8061   8058   8057   8071     1  0.0000000  0.7531200  3
   8061   8058   8057   8079     1  0.0000000  0.6508444  3
   8062   8061   8058   8070     1  0.0000000  0.6508444  3
   8063   8079   8057   8071     1  180.0000771  0.4184000  2
   8063   8079   8057   8071     1  0.0000000  1.6024720  3
   8063   8062   8061   8069     1  0.0000000  0.6508444  3
   8067   8063   8062   8068     1  0.0000000  4.9162000  2
   8067   8063   8062   8068     1  0.0000000  0.6024960  3
   8068   8062   8063   8079     1  0.0000000  4.9162000  2
   8068   8062   8063   8079     1  0.0000000  0.6024960  3
   8068   8062   8061   8069     1  0.0000000  4.9162000  2
   8068   8062   8061   8069     1  0.0000000  0.6024960  3
   8069   8061   8058   8070     1  0.0000000  4.9162000  2
   8069   8061   8058   8070     1  0.0000000  0.6024960  3
   8070   8058   8057   8071     1  0.0000000  0.6508444  3
   8070   8058   8057   8079     1  0.0000000  4.9162000  2
   8070   8058   8057   8079     1  0.0000000  0.6024960  3
   8077   8071   8057   8079     1  0.0000000  4.9162000  2
   8077   8071   8057   8079     1  0.0000000  0.6024960  3
   8080   8081   8084   8085     1  180.0000771  0.8368000  1
   8080   8081   8084   8085     1  180.0000771  1.0460000  2
   8080   8081   8084   8085     1  0.0000000  0.7531200  3
   8080   8081   8084   8092     1  0.0000000  0.6508444  3
   8080   8102   8086   8085     1  180.0000771  0.4184000  2
   8080   8102   8086   8085     1  0.0000000  1.6024720  3
   8080   8102   8086   8090     1  180.0000771  5.6484000  1
   8080   8102   8086   8090     1  180.0000771  3.5564000  2
   8080   8102   8086   8090     1  0.0000000  0.4184000  3
   8081   8080   8094   8100     1  0.0000000  0.6508444  3
   8081   8080   8102   8086     1  180.0000771  0.4184000  2
   8081   8080   8102   8086     1  0.0000000  1.6024720  3
   8081   8084   8085   8086     1  180.0000771  0.8368000  1
   8081   8084   8085   8086     1  180.0000771  1.0460000  2
   8081   8084   8085   8086     1  0.0000000  0.7531200  3
   8081   8084   8085   8091     1  0.0000000  0.6508444  3
   8084   8081   8080   8094     1  180.0000771  0.8368000  1
   8084   8081   8080   8094     1  180.0000771  1.0460000  2
   8084   8081   8080   8094     1  0.0000000  0.7531200  3
   8084   8081   8080   8102     1  0.0000000  0.6508444  3
   8084   8085   8086   8090     1  0.0000000  0.6508444  3
   8084   8085   8086   8102     1  0.0000000  0.6508444  3
   8085   8084   8081   8093     1  0.0000000  0.6508444  3
   8086   8085   8084   8092     1  0.0000000  0.6508444  3
   8086   8102   8080   8094     1  180.0000771  0.4184000  2
   8086   8102   8080   8094     1  0.0000000  1.6024720  3
   8090   8086   8085   8091     1  0.0000000  4.9162000  2
   8090   8086   8085   8091     1  0.0000000  0.6024960  3
   8091   8085   8084   8092     1  0.0000000  4.9162000  2
   8091   8085   8084   8092     1  0.0000000  0.6024960  3
   8091   8085   8086   8102     1  0.0000000  4.9162000  2
   8091   8085   8086   8102     1  0.0000000  0.6024960  3
   8092   8084   8081   8093     1  0.0000000  4.9162000  2
   8092   8084   8081   8093     1  0.0000000  0.6024960  3
   8093   8081   8080   8094     1  0.0000000  0.6508444  3
   8093   8081   8080   8102     1  0.0000000  4.9162000  2
   8093   8081   8080   8102     1  0.0000000  0.6024960  3
   8100   8094   8080   8102     1  0.0000000  4.9162000  2
   8100   8094   8080   8102     1  0.0000000  0.6024960  3
   8103   8104   8107   8108     1  180.0000771  0.8368000  1
   8103   8104   8107   8108     1  180.0000771  1.0460000  2
   8103   8104   8107   8108     1  0.0000000  0.7531200  3
   8103   8104   8107   8115     1  0.0000000  0.6508444  3
   8103   8125   8109   8113     1  180.0000771  5.6484000  1
   8103   8125   8109   8113     1  180.0000771  3.5564000  2
   8103   8125   8109   8113     1  0.0000000  0.4184000  3
   8103   8125   8109   8108     1  180.0000771  0.4184000  2
   8103   8125   8109   8108     1  0.0000000  1.6024720  3
   8104   8107   8108   8109     1  180.0000771  0.8368000  1
   8104   8107   8108   8109     1  180.0000771  1.0460000  2
   8104   8107   8108   8109     1  0.0000000  0.7531200  3
   8104   8107   8108   8114     1  0.0000000  0.6508444  3
   8104   8103   8117   8123     1  0.0000000  0.6508444  3
   8104   8103   8125   8109     1  180.0000771  0.4184000  2
   8104   8103   8125   8109     1  0.0000000  1.6024720  3
   8107   8108   8109   8113     1  0.0000000  0.6508444  3
   8107   8108   8109   8125     1  0.0000000  0.6508444  3
   8107   8104   8103   8117     1  180.0000771  0.8368000  1
   8107   8104   8103   8117     1  180.0000771  1.0460000  2
   8107   8104   8103   8117     1  0.0000000  0.7531200  3
   8107   8104   8103   8125     1  0.0000000  0.6508444  3
   8108   8107   8104   8116     1  0.0000000  0.6508444  3
   8109   8125   8103   8117     1  180.0000771  0.4184000  2
   8109   8125   8103   8117     1  0.0000000  1.6024720  3
   8109   8108   8107   8115     1  0.0000000  0.6508444  3
   8113   8109   8108   8114     1  0.0000000  4.9162000  2
   8113   8109   8108   8114     1  0.0000000  0.6024960  3
   8114   8108   8109   8125     1  0.0000000  4.9162000  2
   8114   8108   8109   8125     1  0.0000000  0.6024960  3
   8114   8108   8107   8115     1  0.0000000  4.9162000  2
   8114   8108   8107   8115     1  0.0000000  0.6024960  3
   8115   8107   8104   8116     1  0.0000000  4.9162000  2
   8115   8107   8104   8116     1  0.0000000  0.6024960  3
   8116   8104   8103   8117     1  0.0000000  0.6508444  3
   8116   8104   8103   8125     1  0.0000000  4.9162000  2
   8116   8104   8103   8125     1  0.0000000  0.6024960  3
   8123   8117   8103   8125     1  0.0000000  4.9162000  2
   8123   8117   8103   8125     1  0.0000000  0.6024960  3
   8126   8127   8130   8131     1  180.0000771  0.8368000  1
   8126   8127   8130   8131     1  180.0000771  1.0460000  2
   8126   8127   8130   8131     1  0.0000000  0.7531200  3
   8126   8127   8130   8138     1  0.0000000  0.6508444  3
   8126   8148   8132   8131     1  180.0000771  0.4184000  2
   8126   8148   8132   8131     1  0.0000000  1.6024720  3
   8126   8148   8132   8136     1  180.0000771  5.6484000  1
   8126   8148   8132   8136     1  180.0000771  3.5564000  2
   8126   8148   8132   8136     1  0.0000000  0.4184000  3
   8127   8126   8140   8146     1  0.0000000  0.6508444  3
   8127   8126   8148   8132     1  180.0000771  0.4184000  2
   8127   8126   8148   8132     1  0.0000000  1.6024720  3
   8127   8130   8131   8132     1  180.0000771  0.8368000  1
   8127   8130   8131   8132     1  180.0000771  1.0460000  2
   8127   8130   8131   8132     1  0.0000000  0.7531200  3
   8127   8130   8131   8137     1  0.0000000  0.6508444  3
   8130   8127   8126   8140     1  180.0000771  0.8368000  1
   8130   8127   8126   8140     1  180.0000771  1.0460000  2
   8130   8127   8126   8140     1  0.0000000  0.7531200  3
   8130   8127   8126   8148     1  0.0000000  0.6508444  3
   8130   8131   8132   8136     1  0.0000000  0.6508444  3
   8130   8131   8132   8148     1  0.0000000  0.6508444  3
   8131   8130   8127   8139     1  0.0000000  0.6508444  3
   8132   8131   8130   8138     1  0.0000000  0.6508444  3
   8132   8148   8126   8140     1  180.0000771  0.4184000  2
   8132   8148   8126   8140     1  0.0000000  1.6024720  3
   8136   8132   8131   8137     1  0.0000000  4.9162000  2
   8136   8132   8131   8137     1  0.0000000  0.6024960  3
   8137   8131   8130   8138     1  0.0000000  4.9162000  2
   8137   8131   8130   8138     1  0.0000000  0.6024960  3
   8137   8131   8132   8148     1  0.0000000  4.9162000  2
   8137   8131   8132   8148     1  0.0000000  0.6024960  3
   8138   8130   8127   8139     1  0.0000000  4.9162000  2
   8138   8130   8127   8139     1  0.0000000  0.6024960  3
   8139   8127   8126   8140     1  0.0000000  0.6508444  3
   8139   8127   8126   8148     1  0.0000000  4.9162000  2
   8139   8127   8126   8148     1  0.0000000  0.6024960  3
   8146   8140   8126   8148     1  0.0000000  4.9162000  2
   8146   8140   8126   8148     1  0.0000000  0.6024960  3
   8149   8150   8153   8154     1  180.0000771  0.8368000  1
   8149   8150   8153   8154     1  180.0000771  1.0460000  2
   8149   8150   8153   8154     1  0.0000000  0.7531200  3
   8149   8150   8153   8161     1  0.0000000  0.6508444  3
   8149   8171   8155   8159     1  180.0000771  5.6484000  1
   8149   8171   8155   8159     1  180.0000771  3.5564000  2
   8149   8171   8155   8159     1  0.0000000  0.4184000  3
   8149   8171   8155   8154     1  180.0000771  0.4184000  2
   8149   8171   8155   8154     1  0.0000000  1.6024720  3
   8150   8153   8154   8155     1  180.0000771  0.8368000  1
   8150   8153   8154   8155     1  180.0000771  1.0460000  2
   8150   8153   8154   8155     1  0.0000000  0.7531200  3
   8150   8153   8154   8160     1  0.0000000  0.6508444  3
   8150   8149   8163   8169     1  0.0000000  0.6508444  3
   8150   8149   8171   8155     1  180.0000771  0.4184000  2
   8150   8149   8171   8155     1  0.0000000  1.6024720  3
   8153   8154   8155   8159     1  0.0000000  0.6508444  3
   8153   8154   8155   8171     1  0.0000000  0.6508444  3
   8153   8150   8149   8163     1  180.0000771  0.8368000  1
   8153   8150   8149   8163     1  180.0000771  1.0460000  2
   8153   8150   8149   8163     1  0.0000000  0.7531200  3
   8153   8150   8149   8171     1  0.0000000  0.6508444  3
   8154   8153   8150   8162     1  0.0000000  0.6508444  3
   8155   8171   8149   8163     1  180.0000771  0.4184000  2
   8155   8171   8149   8163     1  0.0000000  1.6024720  3
   8155   8154   8153   8161     1  0.0000000  0.6508444  3
   8159   8155   8154   8160     1  0.0000000  4.9162000  2
   8159   8155   8154   8160     1  0.0000000  0.6024960  3
   8160   8154   8155   8171     1  0.0000000  4.9162000  2
   8160   8154   8155   8171     1  0.0000000  0.6024960  3
   8160   8154   8153   8161     1  0.0000000  4.9162000  2
   8160   8154   8153   8161     1  0.0000000  0.6024960  3
   8161   8153   8150   8162     1  0.0000000  4.9162000  2
   8161   8153   8150   8162     1  0.0000000  0.6024960  3
   8162   8150   8149   8163     1  0.0000000  0.6508444  3
   8162   8150   8149   8171     1  0.0000000  4.9162000  2
   8162   8150   8149   8171     1  0.0000000  0.6024960  3
   8169   8163   8149   8171     1  0.0000000  4.9162000  2
   8169   8163   8149   8171     1  0.0000000  0.6024960  3
   8172   8173   8176   8177     1  180.0000771  0.8368000  1
   8172   8173   8176   8177     1  180.0000771  1.0460000  2
   8172   8173   8176   8177     1  0.0000000  0.7531200  3
   8172   8173   8176   8184     1  0.0000000  0.6508444  3
   8172   8194   8178   8177     1  180.0000771  0.4184000  2
   8172   8194   8178   8177     1  0.0000000  1.6024720  3
   8172   8194   8178   8182     1  180.0000771  5.6484000  1
   8172   8194   8178   8182     1  180.0000771  3.5564000  2
   8172   8194   8178   8182     1  0.0000000  0.4184000  3
   8173   8172   8186   8192     1  0.0000000  0.6508444  3
   8173   8172   8194   8178     1  180.0000771  0.4184000  2
   8173   8172   8194   8178     1  0.0000000  1.6024720  3
   8173   8176   8177   8178     1  180.0000771  0.8368000  1
   8173   8176   8177   8178     1  180.0000771  1.0460000  2
   8173   8176   8177   8178     1  0.0000000  0.7531200  3
   8173   8176   8177   8183     1  0.0000000  0.6508444  3
   8176   8173   8172   8186     1  180.0000771  0.8368000  1
   8176   8173   8172   8186     1  180.0000771  1.0460000  2
   8176   8173   8172   8186     1  0.0000000  0.7531200  3
   8176   8173   8172   8194     1  0.0000000  0.6508444  3
   8176   8177   8178   8182     1  0.0000000  0.6508444  3
   8176   8177   8178   8194     1  0.0000000  0.6508444  3
   8177   8176   8173   8185     1  0.0000000  0.6508444  3
   8178   8177   8176   8184     1  0.0000000  0.6508444  3
   8178   8194   8172   8186     1  180.0000771  0.4184000  2
   8178   8194   8172   8186     1  0.0000000  1.6024720  3
   8182   8178   8177   8183     1  0.0000000  4.9162000  2
   8182   8178   8177   8183     1  0.0000000  0.6024960  3
   8183   8177   8176   8184     1  0.0000000  4.9162000  2
   8183   8177   8176   8184     1  0.0000000  0.6024960  3
   8183   8177   8178   8194     1  0.0000000  4.9162000  2
   8183   8177   8178   8194     1  0.0000000  0.6024960  3
   8184   8176   8173   8185     1  0.0000000  4.9162000  2
   8184   8176   8173   8185     1  0.0000000  0.6024960  3
   8185   8173   8172   8186     1  0.0000000  0.6508444  3
   8185   8173   8172   8194     1  0.0000000  4.9162000  2
   8185   8173   8172   8194     1  0.0000000  0.6024960  3
   8192   8186   8172   8194     1  0.0000000  4.9162000  2
   8192   8186   8172   8194     1  0.0000000  0.6024960  3
   8195   8196   8199   8200     1  180.0000771  0.8368000  1
   8195   8196   8199   8200     1  180.0000771  1.0460000  2
   8195   8196   8199   8200     1  0.0000000  0.7531200  3
   8195   8196   8199   8207     1  0.0000000  0.6508444  3
   8195   8217   8201   8205     1  180.0000771  5.6484000  1
   8195   8217   8201   8205     1  180.0000771  3.5564000  2
   8195   8217   8201   8205     1  0.0000000  0.4184000  3
   8195   8217   8201   8200     1  180.0000771  0.4184000  2
   8195   8217   8201   8200     1  0.0000000  1.6024720  3
   8196   8199   8200   8201     1  180.0000771  0.8368000  1
   8196   8199   8200   8201     1  180.0000771  1.0460000  2
   8196   8199   8200   8201     1  0.0000000  0.7531200  3
   8196   8199   8200   8206     1  0.0000000  0.6508444  3
   8196   8195   8209   8215     1  0.0000000  0.6508444  3
   8196   8195   8217   8201     1  180.0000771  0.4184000  2
   8196   8195   8217   8201     1  0.0000000  1.6024720  3
   8199   8200   8201   8205     1  0.0000000  0.6508444  3
   8199   8200   8201   8217     1  0.0000000  0.6508444  3
   8199   8196   8195   8209     1  180.0000771  0.8368000  1
   8199   8196   8195   8209     1  180.0000771  1.0460000  2
   8199   8196   8195   8209     1  0.0000000  0.7531200  3
   8199   8196   8195   8217     1  0.0000000  0.6508444  3
   8200   8199   8196   8208     1  0.0000000  0.6508444  3
   8201   8217   8195   8209     1  180.0000771  0.4184000  2
   8201   8217   8195   8209     1  0.0000000  1.6024720  3
   8201   8200   8199   8207     1  0.0000000  0.6508444  3
   8205   8201   8200   8206     1  0.0000000  4.9162000  2
   8205   8201   8200   8206     1  0.0000000  0.6024960  3
   8206   8200   8201   8217     1  0.0000000  4.9162000  2
   8206   8200   8201   8217     1  0.0000000  0.6024960  3
   8206   8200   8199   8207     1  0.0000000  4.9162000  2
   8206   8200   8199   8207     1  0.0000000  0.6024960  3
   8207   8199   8196   8208     1  0.0000000  4.9162000  2
   8207   8199   8196   8208     1  0.0000000  0.6024960  3
   8208   8196   8195   8209     1  0.0000000  0.6508444  3
   8208   8196   8195   8217     1  0.0000000  4.9162000  2
   8208   8196   8195   8217     1  0.0000000  0.6024960  3
   8215   8209   8195   8217     1  0.0000000  4.9162000  2
   8215   8209   8195   8217     1  0.0000000  0.6024960  3
   8218   8219   8222   8223     1  180.0000771  0.8368000  1
   8218   8219   8222   8223     1  180.0000771  1.0460000  2
   8218   8219   8222   8223     1  0.0000000  0.7531200  3
   8218   8219   8222   8230     1  0.0000000  0.6508444  3
   8218   8240   8224   8223     1  180.0000771  0.4184000  2
   8218   8240   8224   8223     1  0.0000000  1.6024720  3
   8218   8240   8224   8228     1  180.0000771  5.6484000  1
   8218   8240   8224   8228     1  180.0000771  3.5564000  2
   8218   8240   8224   8228     1  0.0000000  0.4184000  3
   8219   8218   8232   8238     1  0.0000000  0.6508444  3
   8219   8218   8240   8224     1  180.0000771  0.4184000  2
   8219   8218   8240   8224     1  0.0000000  1.6024720  3
   8219   8222   8223   8224     1  180.0000771  0.8368000  1
   8219   8222   8223   8224     1  180.0000771  1.0460000  2
   8219   8222   8223   8224     1  0.0000000  0.7531200  3
   8219   8222   8223   8229     1  0.0000000  0.6508444  3
   8222   8219   8218   8232     1  180.0000771  0.8368000  1
   8222   8219   8218   8232     1  180.0000771  1.0460000  2
   8222   8219   8218   8232     1  0.0000000  0.7531200  3
   8222   8219   8218   8240     1  0.0000000  0.6508444  3
   8222   8223   8224   8228     1  0.0000000  0.6508444  3
   8222   8223   8224   8240     1  0.0000000  0.6508444  3
   8223   8222   8219   8231     1  0.0000000  0.6508444  3
   8224   8223   8222   8230     1  0.0000000  0.6508444  3
   8224   8240   8218   8232     1  180.0000771  0.4184000  2
   8224   8240   8218   8232     1  0.0000000  1.6024720  3
   8228   8224   8223   8229     1  0.0000000  4.9162000  2
   8228   8224   8223   8229     1  0.0000000  0.6024960  3
   8229   8223   8222   8230     1  0.0000000  4.9162000  2
   8229   8223   8222   8230     1  0.0000000  0.6024960  3
   8229   8223   8224   8240     1  0.0000000  4.9162000  2
   8229   8223   8224   8240     1  0.0000000  0.6024960  3
   8230   8222   8219   8231     1  0.0000000  4.9162000  2
   8230   8222   8219   8231     1  0.0000000  0.6024960  3
   8231   8219   8218   8232     1  0.0000000  0.6508444  3
   8231   8219   8218   8240     1  0.0000000  4.9162000  2
   8231   8219   8218   8240     1  0.0000000  0.6024960  3
   8238   8232   8218   8240     1  0.0000000  4.9162000  2
   8238   8232   8218   8240     1  0.0000000  0.6024960  3
   8241   8242   8245   8246     1  180.0000771  0.8368000  1
   8241   8242   8245   8246     1  180.0000771  1.0460000  2
   8241   8242   8245   8246     1  0.0000000  0.7531200  3
   8241   8242   8245   8253     1  0.0000000  0.6508444  3
   8241   8263   8247   8251     1  180.0000771  5.6484000  1
   8241   8263   8247   8251     1  180.0000771  3.5564000  2
   8241   8263   8247   8251     1  0.0000000  0.4184000  3
   8241   8263   8247   8246     1  180.0000771  0.4184000  2
   8241   8263   8247   8246     1  0.0000000  1.6024720  3
   8242   8245   8246   8247     1  180.0000771  0.8368000  1
   8242   8245   8246   8247     1  180.0000771  1.0460000  2
   8242   8245   8246   8247     1  0.0000000  0.7531200  3
   8242   8245   8246   8252     1  0.0000000  0.6508444  3
   8242   8241   8255   8261     1  0.0000000  0.6508444  3
   8242   8241   8263   8247     1  180.0000771  0.4184000  2
   8242   8241   8263   8247     1  0.0000000  1.6024720  3
   8245   8246   8247   8251     1  0.0000000  0.6508444  3
   8245   8246   8247   8263     1  0.0000000  0.6508444  3
   8245   8242   8241   8255     1  180.0000771  0.8368000  1
   8245   8242   8241   8255     1  180.0000771  1.0460000  2
   8245   8242   8241   8255     1  0.0000000  0.7531200  3
   8245   8242   8241   8263     1  0.0000000  0.6508444  3
   8246   8245   8242   8254     1  0.0000000  0.6508444  3
   8247   8263   8241   8255     1  180.0000771  0.4184000  2
   8247   8263   8241   8255     1  0.0000000  1.6024720  3
   8247   8246   8245   8253     1  0.0000000  0.6508444  3
   8251   8247   8246   8252     1  0.0000000  4.9162000  2
   8251   8247   8246   8252     1  0.0000000  0.6024960  3
   8252   8246   8247   8263     1  0.0000000  4.9162000  2
   8252   8246   8247   8263     1  0.0000000  0.6024960  3
   8252   8246   8245   8253     1  0.0000000  4.9162000  2
   8252   8246   8245   8253     1  0.0000000  0.6024960  3
   8253   8245   8242   8254     1  0.0000000  4.9162000  2
   8253   8245   8242   8254     1  0.0000000  0.6024960  3
   8254   8242   8241   8255     1  0.0000000  0.6508444  3
   8254   8242   8241   8263     1  0.0000000  4.9162000  2
   8254   8242   8241   8263     1  0.0000000  0.6024960  3
   8261   8255   8241   8263     1  0.0000000  4.9162000  2
   8261   8255   8241   8263     1  0.0000000  0.6024960  3
   8264   8265   8268   8269     1  180.0000771  0.8368000  1
   8264   8265   8268   8269     1  180.0000771  1.0460000  2
   8264   8265   8268   8269     1  0.0000000  0.7531200  3
   8264   8265   8268   8276     1  0.0000000  0.6508444  3
   8264   8286   8270   8269     1  180.0000771  0.4184000  2
   8264   8286   8270   8269     1  0.0000000  1.6024720  3
   8264   8286   8270   8274     1  180.0000771  5.6484000  1
   8264   8286   8270   8274     1  180.0000771  3.5564000  2
   8264   8286   8270   8274     1  0.0000000  0.4184000  3
   8265   8264   8278   8284     1  0.0000000  0.6508444  3
   8265   8264   8286   8270     1  180.0000771  0.4184000  2
   8265   8264   8286   8270     1  0.0000000  1.6024720  3
   8265   8268   8269   8270     1  180.0000771  0.8368000  1
   8265   8268   8269   8270     1  180.0000771  1.0460000  2
   8265   8268   8269   8270     1  0.0000000  0.7531200  3
   8265   8268   8269   8275     1  0.0000000  0.6508444  3
   8268   8265   8264   8278     1  180.0000771  0.8368000  1
   8268   8265   8264   8278     1  180.0000771  1.0460000  2
   8268   8265   8264   8278     1  0.0000000  0.7531200  3
   8268   8265   8264   8286     1  0.0000000  0.6508444  3
   8268   8269   8270   8274     1  0.0000000  0.6508444  3
   8268   8269   8270   8286     1  0.0000000  0.6508444  3
   8269   8268   8265   8277     1  0.0000000  0.6508444  3
   8270   8269   8268   8276     1  0.0000000  0.6508444  3
   8270   8286   8264   8278     1  180.0000771  0.4184000  2
   8270   8286   8264   8278     1  0.0000000  1.6024720  3
   8274   8270   8269   8275     1  0.0000000  4.9162000  2
   8274   8270   8269   8275     1  0.0000000  0.6024960  3
   8275   8269   8268   8276     1  0.0000000  4.9162000  2
   8275   8269   8268   8276     1  0.0000000  0.6024960  3
   8275   8269   8270   8286     1  0.0000000  4.9162000  2
   8275   8269   8270   8286     1  0.0000000  0.6024960  3
   8276   8268   8265   8277     1  0.0000000  4.9162000  2
   8276   8268   8265   8277     1  0.0000000  0.6024960  3
   8277   8265   8264   8278     1  0.0000000  0.6508444  3
   8277   8265   8264   8286     1  0.0000000  4.9162000  2
   8277   8265   8264   8286     1  0.0000000  0.6024960  3
   8284   8278   8264   8286     1  0.0000000  4.9162000  2
   8284   8278   8264   8286     1  0.0000000  0.6024960  3
   8287   8288   8291   8292     1  180.0000771  0.8368000  1
   8287   8288   8291   8292     1  180.0000771  1.0460000  2
   8287   8288   8291   8292     1  0.0000000  0.7531200  3
   8287   8288   8291   8299     1  0.0000000  0.6508444  3
   8287   8309   8293   8297     1  180.0000771  5.6484000  1
   8287   8309   8293   8297     1  180.0000771  3.5564000  2
   8287   8309   8293   8297     1  0.0000000  0.4184000  3
   8287   8309   8293   8292     1  180.0000771  0.4184000  2
   8287   8309   8293   8292     1  0.0000000  1.6024720  3
   8288   8291   8292   8293     1  180.0000771  0.8368000  1
   8288   8291   8292   8293     1  180.0000771  1.0460000  2
   8288   8291   8292   8293     1  0.0000000  0.7531200  3
   8288   8291   8292   8298     1  0.0000000  0.6508444  3
   8288   8287   8301   8307     1  0.0000000  0.6508444  3
   8288   8287   8309   8293     1  180.0000771  0.4184000  2
   8288   8287   8309   8293     1  0.0000000  1.6024720  3
   8291   8292   8293   8297     1  0.0000000  0.6508444  3
   8291   8292   8293   8309     1  0.0000000  0.6508444  3
   8291   8288   8287   8301     1  180.0000771  0.8368000  1
   8291   8288   8287   8301     1  180.0000771  1.0460000  2
   8291   8288   8287   8301     1  0.0000000  0.7531200  3
   8291   8288   8287   8309     1  0.0000000  0.6508444  3
   8292   8291   8288   8300     1  0.0000000  0.6508444  3
   8293   8309   8287   8301     1  180.0000771  0.4184000  2
   8293   8309   8287   8301     1  0.0000000  1.6024720  3
   8293   8292   8291   8299     1  0.0000000  0.6508444  3
   8297   8293   8292   8298     1  0.0000000  4.9162000  2
   8297   8293   8292   8298     1  0.0000000  0.6024960  3
   8298   8292   8293   8309     1  0.0000000  4.9162000  2
   8298   8292   8293   8309     1  0.0000000  0.6024960  3
   8298   8292   8291   8299     1  0.0000000  4.9162000  2
   8298   8292   8291   8299     1  0.0000000  0.6024960  3
   8299   8291   8288   8300     1  0.0000000  4.9162000  2
   8299   8291   8288   8300     1  0.0000000  0.6024960  3
   8300   8288   8287   8301     1  0.0000000  0.6508444  3
   8300   8288   8287   8309     1  0.0000000  4.9162000  2
   8300   8288   8287   8309     1  0.0000000  0.6024960  3
   8307   8301   8287   8309     1  0.0000000  4.9162000  2
   8307   8301   8287   8309     1  0.0000000  0.6024960  3
   8310   8311   8314   8315     1  180.0000771  0.8368000  1
   8310   8311   8314   8315     1  180.0000771  1.0460000  2
   8310   8311   8314   8315     1  0.0000000  0.7531200  3
   8310   8311   8314   8322     1  0.0000000  0.6508444  3
   8310   8332   8316   8315     1  180.0000771  0.4184000  2
   8310   8332   8316   8315     1  0.0000000  1.6024720  3
   8310   8332   8316   8320     1  180.0000771  5.6484000  1
   8310   8332   8316   8320     1  180.0000771  3.5564000  2
   8310   8332   8316   8320     1  0.0000000  0.4184000  3
   8311   8310   8324   8330     1  0.0000000  0.6508444  3
   8311   8310   8332   8316     1  180.0000771  0.4184000  2
   8311   8310   8332   8316     1  0.0000000  1.6024720  3
   8311   8314   8315   8316     1  180.0000771  0.8368000  1
   8311   8314   8315   8316     1  180.0000771  1.0460000  2
   8311   8314   8315   8316     1  0.0000000  0.7531200  3
   8311   8314   8315   8321     1  0.0000000  0.6508444  3
   8314   8311   8310   8324     1  180.0000771  0.8368000  1
   8314   8311   8310   8324     1  180.0000771  1.0460000  2
   8314   8311   8310   8324     1  0.0000000  0.7531200  3
   8314   8311   8310   8332     1  0.0000000  0.6508444  3
   8314   8315   8316   8320     1  0.0000000  0.6508444  3
   8314   8315   8316   8332     1  0.0000000  0.6508444  3
   8315   8314   8311   8323     1  0.0000000  0.6508444  3
   8316   8315   8314   8322     1  0.0000000  0.6508444  3
   8316   8332   8310   8324     1  180.0000771  0.4184000  2
   8316   8332   8310   8324     1  0.0000000  1.6024720  3
   8320   8316   8315   8321     1  0.0000000  4.9162000  2
   8320   8316   8315   8321     1  0.0000000  0.6024960  3
   8321   8315   8314   8322     1  0.0000000  4.9162000  2
   8321   8315   8314   8322     1  0.0000000  0.6024960  3
   8321   8315   8316   8332     1  0.0000000  4.9162000  2
   8321   8315   8316   8332     1  0.0000000  0.6024960  3
   8322   8314   8311   8323     1  0.0000000  4.9162000  2
   8322   8314   8311   8323     1  0.0000000  0.6024960  3
   8323   8311   8310   8324     1  0.0000000  0.6508444  3
   8323   8311   8310   8332     1  0.0000000  4.9162000  2
   8323   8311   8310   8332     1  0.0000000  0.6024960  3
   8330   8324   8310   8332     1  0.0000000  4.9162000  2
   8330   8324   8310   8332     1  0.0000000  0.6024960  3
   8333   8334   8337   8338     1  180.0000771  0.8368000  1
   8333   8334   8337   8338     1  180.0000771  1.0460000  2
   8333   8334   8337   8338     1  0.0000000  0.7531200  3
   8333   8334   8337   8345     1  0.0000000  0.6508444  3
   8333   8355   8339   8343     1  180.0000771  5.6484000  1
   8333   8355   8339   8343     1  180.0000771  3.5564000  2
   8333   8355   8339   8343     1  0.0000000  0.4184000  3
   8333   8355   8339   8338     1  180.0000771  0.4184000  2
   8333   8355   8339   8338     1  0.0000000  1.6024720  3
   8334   8337   8338   8339     1  180.0000771  0.8368000  1
   8334   8337   8338   8339     1  180.0000771  1.0460000  2
   8334   8337   8338   8339     1  0.0000000  0.7531200  3
   8334   8337   8338   8344     1  0.0000000  0.6508444  3
   8334   8333   8347   8353     1  0.0000000  0.6508444  3
   8334   8333   8355   8339     1  180.0000771  0.4184000  2
   8334   8333   8355   8339     1  0.0000000  1.6024720  3
   8337   8338   8339   8343     1  0.0000000  0.6508444  3
   8337   8338   8339   8355     1  0.0000000  0.6508444  3
   8337   8334   8333   8347     1  180.0000771  0.8368000  1
   8337   8334   8333   8347     1  180.0000771  1.0460000  2
   8337   8334   8333   8347     1  0.0000000  0.7531200  3
   8337   8334   8333   8355     1  0.0000000  0.6508444  3
   8338   8337   8334   8346     1  0.0000000  0.6508444  3
   8339   8355   8333   8347     1  180.0000771  0.4184000  2
   8339   8355   8333   8347     1  0.0000000  1.6024720  3
   8339   8338   8337   8345     1  0.0000000  0.6508444  3
   8343   8339   8338   8344     1  0.0000000  4.9162000  2
   8343   8339   8338   8344     1  0.0000000  0.6024960  3
   8344   8338   8339   8355     1  0.0000000  4.9162000  2
   8344   8338   8339   8355     1  0.0000000  0.6024960  3
   8344   8338   8337   8345     1  0.0000000  4.9162000  2
   8344   8338   8337   8345     1  0.0000000  0.6024960  3
   8345   8337   8334   8346     1  0.0000000  4.9162000  2
   8345   8337   8334   8346     1  0.0000000  0.6024960  3
   8346   8334   8333   8347     1  0.0000000  0.6508444  3
   8346   8334   8333   8355     1  0.0000000  4.9162000  2
   8346   8334   8333   8355     1  0.0000000  0.6024960  3
   8353   8347   8333   8355     1  0.0000000  4.9162000  2
   8353   8347   8333   8355     1  0.0000000  0.6024960  3
   8356   8357   8360   8361     1  180.0000771  0.8368000  1
   8356   8357   8360   8361     1  180.0000771  1.0460000  2
   8356   8357   8360   8361     1  0.0000000  0.7531200  3
   8356   8357   8360   8368     1  0.0000000  0.6508444  3
   8356   8378   8362   8361     1  180.0000771  0.4184000  2
   8356   8378   8362   8361     1  0.0000000  1.6024720  3
   8356   8378   8362   8366     1  180.0000771  5.6484000  1
   8356   8378   8362   8366     1  180.0000771  3.5564000  2
   8356   8378   8362   8366     1  0.0000000  0.4184000  3
   8357   8356   8370   8376     1  0.0000000  0.6508444  3
   8357   8356   8378   8362     1  180.0000771  0.4184000  2
   8357   8356   8378   8362     1  0.0000000  1.6024720  3
   8357   8360   8361   8362     1  180.0000771  0.8368000  1
   8357   8360   8361   8362     1  180.0000771  1.0460000  2
   8357   8360   8361   8362     1  0.0000000  0.7531200  3
   8357   8360   8361   8367     1  0.0000000  0.6508444  3
   8360   8357   8356   8370     1  180.0000771  0.8368000  1
   8360   8357   8356   8370     1  180.0000771  1.0460000  2
   8360   8357   8356   8370     1  0.0000000  0.7531200  3
   8360   8357   8356   8378     1  0.0000000  0.6508444  3
   8360   8361   8362   8366     1  0.0000000  0.6508444  3
   8360   8361   8362   8378     1  0.0000000  0.6508444  3
   8361   8360   8357   8369     1  0.0000000  0.6508444  3
   8362   8361   8360   8368     1  0.0000000  0.6508444  3
   8362   8378   8356   8370     1  180.0000771  0.4184000  2
   8362   8378   8356   8370     1  0.0000000  1.6024720  3
   8366   8362   8361   8367     1  0.0000000  4.9162000  2
   8366   8362   8361   8367     1  0.0000000  0.6024960  3
   8367   8361   8360   8368     1  0.0000000  4.9162000  2
   8367   8361   8360   8368     1  0.0000000  0.6024960  3
   8367   8361   8362   8378     1  0.0000000  4.9162000  2
   8367   8361   8362   8378     1  0.0000000  0.6024960  3
   8368   8360   8357   8369     1  0.0000000  4.9162000  2
   8368   8360   8357   8369     1  0.0000000  0.6024960  3
   8369   8357   8356   8370     1  0.0000000  0.6508444  3
   8369   8357   8356   8378     1  0.0000000  4.9162000  2
   8369   8357   8356   8378     1  0.0000000  0.6024960  3
   8376   8370   8356   8378     1  0.0000000  4.9162000  2
   8376   8370   8356   8378     1  0.0000000  0.6024960  3
   8379   8380   8383   8384     1  180.0000771  0.8368000  1
   8379   8380   8383   8384     1  180.0000771  1.0460000  2
   8379   8380   8383   8384     1  0.0000000  0.7531200  3
   8379   8380   8383   8391     1  0.0000000  0.6508444  3
   8379   8401   8385   8389     1  180.0000771  5.6484000  1
   8379   8401   8385   8389     1  180.0000771  3.5564000  2
   8379   8401   8385   8389     1  0.0000000  0.4184000  3
   8379   8401   8385   8384     1  180.0000771  0.4184000  2
   8379   8401   8385   8384     1  0.0000000  1.6024720  3
   8380   8383   8384   8385     1  180.0000771  0.8368000  1
   8380   8383   8384   8385     1  180.0000771  1.0460000  2
   8380   8383   8384   8385     1  0.0000000  0.7531200  3
   8380   8383   8384   8390     1  0.0000000  0.6508444  3
   8380   8379   8393   8399     1  0.0000000  0.6508444  3
   8380   8379   8401   8385     1  180.0000771  0.4184000  2
   8380   8379   8401   8385     1  0.0000000  1.6024720  3
   8383   8384   8385   8389     1  0.0000000  0.6508444  3
   8383   8384   8385   8401     1  0.0000000  0.6508444  3
   8383   8380   8379   8393     1  180.0000771  0.8368000  1
   8383   8380   8379   8393     1  180.0000771  1.0460000  2
   8383   8380   8379   8393     1  0.0000000  0.7531200  3
   8383   8380   8379   8401     1  0.0000000  0.6508444  3
   8384   8383   8380   8392     1  0.0000000  0.6508444  3
   8385   8401   8379   8393     1  180.0000771  0.4184000  2
   8385   8401   8379   8393     1  0.0000000  1.6024720  3
   8385   8384   8383   8391     1  0.0000000  0.6508444  3
   8389   8385   8384   8390     1  0.0000000  4.9162000  2
   8389   8385   8384   8390     1  0.0000000  0.6024960  3
   8390   8384   8385   8401     1  0.0000000  4.9162000  2
   8390   8384   8385   8401     1  0.0000000  0.6024960  3
   8390   8384   8383   8391     1  0.0000000  4.9162000  2
   8390   8384   8383   8391     1  0.0000000  0.6024960  3
   8391   8383   8380   8392     1  0.0000000  4.9162000  2
   8391   8383   8380   8392     1  0.0000000  0.6024960  3
   8392   8380   8379   8393     1  0.0000000  0.6508444  3
   8392   8380   8379   8401     1  0.0000000  4.9162000  2
   8392   8380   8379   8401     1  0.0000000  0.6024960  3
   8399   8393   8379   8401     1  0.0000000  4.9162000  2
   8399   8393   8379   8401     1  0.0000000  0.6024960  3
   8402   8403   8406   8407     1  180.0000771  0.8368000  1
   8402   8403   8406   8407     1  180.0000771  1.0460000  2
   8402   8403   8406   8407     1  0.0000000  0.7531200  3
   8402   8403   8406   8414     1  0.0000000  0.6508444  3
   8402   8424   8408   8407     1  180.0000771  0.4184000  2
   8402   8424   8408   8407     1  0.0000000  1.6024720  3
   8402   8424   8408   8412     1  180.0000771  5.6484000  1
   8402   8424   8408   8412     1  180.0000771  3.5564000  2
   8402   8424   8408   8412     1  0.0000000  0.4184000  3
   8403   8402   8416   8422     1  0.0000000  0.6508444  3
   8403   8402   8424   8408     1  180.0000771  0.4184000  2
   8403   8402   8424   8408     1  0.0000000  1.6024720  3
   8403   8406   8407   8408     1  180.0000771  0.8368000  1
   8403   8406   8407   8408     1  180.0000771  1.0460000  2
   8403   8406   8407   8408     1  0.0000000  0.7531200  3
   8403   8406   8407   8413     1  0.0000000  0.6508444  3
   8406   8403   8402   8416     1  180.0000771  0.8368000  1
   8406   8403   8402   8416     1  180.0000771  1.0460000  2
   8406   8403   8402   8416     1  0.0000000  0.7531200  3
   8406   8403   8402   8424     1  0.0000000  0.6508444  3
   8406   8407   8408   8412     1  0.0000000  0.6508444  3
   8406   8407   8408   8424     1  0.0000000  0.6508444  3
   8407   8406   8403   8415     1  0.0000000  0.6508444  3
   8408   8407   8406   8414     1  0.0000000  0.6508444  3
   8408   8424   8402   8416     1  180.0000771  0.4184000  2
   8408   8424   8402   8416     1  0.0000000  1.6024720  3
   8412   8408   8407   8413     1  0.0000000  4.9162000  2
   8412   8408   8407   8413     1  0.0000000  0.6024960  3
   8413   8407   8406   8414     1  0.0000000  4.9162000  2
   8413   8407   8406   8414     1  0.0000000  0.6024960  3
   8413   8407   8408   8424     1  0.0000000  4.9162000  2
   8413   8407   8408   8424     1  0.0000000  0.6024960  3
   8414   8406   8403   8415     1  0.0000000  4.9162000  2
   8414   8406   8403   8415     1  0.0000000  0.6024960  3
   8415   8403   8402   8416     1  0.0000000  0.6508444  3
   8415   8403   8402   8424     1  0.0000000  4.9162000  2
   8415   8403   8402   8424     1  0.0000000  0.6024960  3
   8422   8416   8402   8424     1  0.0000000  4.9162000  2
   8422   8416   8402   8424     1  0.0000000  0.6024960  3
   8425   8426   8429   8430     1  180.0000771  0.8368000  1
   8425   8426   8429   8430     1  180.0000771  1.0460000  2
   8425   8426   8429   8430     1  0.0000000  0.7531200  3
   8425   8426   8429   8437     1  0.0000000  0.6508444  3
   8425   8447   8431   8435     1  180.0000771  5.6484000  1
   8425   8447   8431   8435     1  180.0000771  3.5564000  2
   8425   8447   8431   8435     1  0.0000000  0.4184000  3
   8425   8447   8431   8430     1  180.0000771  0.4184000  2
   8425   8447   8431   8430     1  0.0000000  1.6024720  3
   8426   8429   8430   8431     1  180.0000771  0.8368000  1
   8426   8429   8430   8431     1  180.0000771  1.0460000  2
   8426   8429   8430   8431     1  0.0000000  0.7531200  3
   8426   8429   8430   8436     1  0.0000000  0.6508444  3
   8426   8425   8439   8445     1  0.0000000  0.6508444  3
   8426   8425   8447   8431     1  180.0000771  0.4184000  2
   8426   8425   8447   8431     1  0.0000000  1.6024720  3
   8429   8430   8431   8435     1  0.0000000  0.6508444  3
   8429   8430   8431   8447     1  0.0000000  0.6508444  3
   8429   8426   8425   8439     1  180.0000771  0.8368000  1
   8429   8426   8425   8439     1  180.0000771  1.0460000  2
   8429   8426   8425   8439     1  0.0000000  0.7531200  3
   8429   8426   8425   8447     1  0.0000000  0.6508444  3
   8430   8429   8426   8438     1  0.0000000  0.6508444  3
   8431   8447   8425   8439     1  180.0000771  0.4184000  2
   8431   8447   8425   8439     1  0.0000000  1.6024720  3
   8431   8430   8429   8437     1  0.0000000  0.6508444  3
   8435   8431   8430   8436     1  0.0000000  4.9162000  2
   8435   8431   8430   8436     1  0.0000000  0.6024960  3
   8436   8430   8431   8447     1  0.0000000  4.9162000  2
   8436   8430   8431   8447     1  0.0000000  0.6024960  3
   8436   8430   8429   8437     1  0.0000000  4.9162000  2
   8436   8430   8429   8437     1  0.0000000  0.6024960  3
   8437   8429   8426   8438     1  0.0000000  4.9162000  2
   8437   8429   8426   8438     1  0.0000000  0.6024960  3
   8438   8426   8425   8439     1  0.0000000  0.6508444  3
   8438   8426   8425   8447     1  0.0000000  4.9162000  2
   8438   8426   8425   8447     1  0.0000000  0.6024960  3
   8445   8439   8425   8447     1  0.0000000  4.9162000  2
   8445   8439   8425   8447     1  0.0000000  0.6024960  3
   8448   8449   8452   8453     1  180.0000771  0.8368000  1
   8448   8449   8452   8453     1  180.0000771  1.0460000  2
   8448   8449   8452   8453     1  0.0000000  0.7531200  3
   8448   8449   8452   8460     1  0.0000000  0.6508444  3
   8448   8470   8454   8453     1  180.0000771  0.4184000  2
   8448   8470   8454   8453     1  0.0000000  1.6024720  3
   8448   8470   8454   8458     1  180.0000771  5.6484000  1
   8448   8470   8454   8458     1  180.0000771  3.5564000  2
   8448   8470   8454   8458     1  0.0000000  0.4184000  3
   8449   8448   8462   8468     1  0.0000000  0.6508444  3
   8449   8448   8470   8454     1  180.0000771  0.4184000  2
   8449   8448   8470   8454     1  0.0000000  1.6024720  3
   8449   8452   8453   8454     1  180.0000771  0.8368000  1
   8449   8452   8453   8454     1  180.0000771  1.0460000  2
   8449   8452   8453   8454     1  0.0000000  0.7531200  3
   8449   8452   8453   8459     1  0.0000000  0.6508444  3
   8452   8449   8448   8462     1  180.0000771  0.8368000  1
   8452   8449   8448   8462     1  180.0000771  1.0460000  2
   8452   8449   8448   8462     1  0.0000000  0.7531200  3
   8452   8449   8448   8470     1  0.0000000  0.6508444  3
   8452   8453   8454   8458     1  0.0000000  0.6508444  3
   8452   8453   8454   8470     1  0.0000000  0.6508444  3
   8453   8452   8449   8461     1  0.0000000  0.6508444  3
   8454   8453   8452   8460     1  0.0000000  0.6508444  3
   8454   8470   8448   8462     1  180.0000771  0.4184000  2
   8454   8470   8448   8462     1  0.0000000  1.6024720  3
   8458   8454   8453   8459     1  0.0000000  4.9162000  2
   8458   8454   8453   8459     1  0.0000000  0.6024960  3
   8459   8453   8452   8460     1  0.0000000  4.9162000  2
   8459   8453   8452   8460     1  0.0000000  0.6024960  3
   8459   8453   8454   8470     1  0.0000000  4.9162000  2
   8459   8453   8454   8470     1  0.0000000  0.6024960  3
   8460   8452   8449   8461     1  0.0000000  4.9162000  2
   8460   8452   8449   8461     1  0.0000000  0.6024960  3
   8461   8449   8448   8462     1  0.0000000  0.6508444  3
   8461   8449   8448   8470     1  0.0000000  4.9162000  2
   8461   8449   8448   8470     1  0.0000000  0.6024960  3
   8468   8462   8448   8470     1  0.0000000  4.9162000  2
   8468   8462   8448   8470     1  0.0000000  0.6024960  3
   8471   8472   8475   8476     1  180.0000771  0.8368000  1
   8471   8472   8475   8476     1  180.0000771  1.0460000  2
   8471   8472   8475   8476     1  0.0000000  0.7531200  3
   8471   8472   8475   8483     1  0.0000000  0.6508444  3
   8471   8493   8477   8481     1  180.0000771  5.6484000  1
   8471   8493   8477   8481     1  180.0000771  3.5564000  2
   8471   8493   8477   8481     1  0.0000000  0.4184000  3
   8471   8493   8477   8476     1  180.0000771  0.4184000  2
   8471   8493   8477   8476     1  0.0000000  1.6024720  3
   8472   8475   8476   8477     1  180.0000771  0.8368000  1
   8472   8475   8476   8477     1  180.0000771  1.0460000  2
   8472   8475   8476   8477     1  0.0000000  0.7531200  3
   8472   8475   8476   8482     1  0.0000000  0.6508444  3
   8472   8471   8485   8491     1  0.0000000  0.6508444  3
   8472   8471   8493   8477     1  180.0000771  0.4184000  2
   8472   8471   8493   8477     1  0.0000000  1.6024720  3
   8475   8476   8477   8481     1  0.0000000  0.6508444  3
   8475   8476   8477   8493     1  0.0000000  0.6508444  3
   8475   8472   8471   8485     1  180.0000771  0.8368000  1
   8475   8472   8471   8485     1  180.0000771  1.0460000  2
   8475   8472   8471   8485     1  0.0000000  0.7531200  3
   8475   8472   8471   8493     1  0.0000000  0.6508444  3
   8476   8475   8472   8484     1  0.0000000  0.6508444  3
   8477   8493   8471   8485     1  180.0000771  0.4184000  2
   8477   8493   8471   8485     1  0.0000000  1.6024720  3
   8477   8476   8475   8483     1  0.0000000  0.6508444  3
   8481   8477   8476   8482     1  0.0000000  4.9162000  2
   8481   8477   8476   8482     1  0.0000000  0.6024960  3
   8482   8476   8477   8493     1  0.0000000  4.9162000  2
   8482   8476   8477   8493     1  0.0000000  0.6024960  3
   8482   8476   8475   8483     1  0.0000000  4.9162000  2
   8482   8476   8475   8483     1  0.0000000  0.6024960  3
   8483   8475   8472   8484     1  0.0000000  4.9162000  2
   8483   8475   8472   8484     1  0.0000000  0.6024960  3
   8484   8472   8471   8485     1  0.0000000  0.6508444  3
   8484   8472   8471   8493     1  0.0000000  4.9162000  2
   8484   8472   8471   8493     1  0.0000000  0.6024960  3
   8491   8485   8471   8493     1  0.0000000  4.9162000  2
   8491   8485   8471   8493     1  0.0000000  0.6024960  3
   8494   8495   8498   8499     1  180.0000771  0.8368000  1
   8494   8495   8498   8499     1  180.0000771  1.0460000  2
   8494   8495   8498   8499     1  0.0000000  0.7531200  3
   8494   8495   8498   8506     1  0.0000000  0.6508444  3
   8494   8516   8500   8499     1  180.0000771  0.4184000  2
   8494   8516   8500   8499     1  0.0000000  1.6024720  3
   8494   8516   8500   8504     1  180.0000771  5.6484000  1
   8494   8516   8500   8504     1  180.0000771  3.5564000  2
   8494   8516   8500   8504     1  0.0000000  0.4184000  3
   8495   8494   8508   8514     1  0.0000000  0.6508444  3
   8495   8494   8516   8500     1  180.0000771  0.4184000  2
   8495   8494   8516   8500     1  0.0000000  1.6024720  3
   8495   8498   8499   8500     1  180.0000771  0.8368000  1
   8495   8498   8499   8500     1  180.0000771  1.0460000  2
   8495   8498   8499   8500     1  0.0000000  0.7531200  3
   8495   8498   8499   8505     1  0.0000000  0.6508444  3
   8498   8495   8494   8508     1  180.0000771  0.8368000  1
   8498   8495   8494   8508     1  180.0000771  1.0460000  2
   8498   8495   8494   8508     1  0.0000000  0.7531200  3
   8498   8495   8494   8516     1  0.0000000  0.6508444  3
   8498   8499   8500   8504     1  0.0000000  0.6508444  3
   8498   8499   8500   8516     1  0.0000000  0.6508444  3
   8499   8498   8495   8507     1  0.0000000  0.6508444  3
   8500   8499   8498   8506     1  0.0000000  0.6508444  3
   8500   8516   8494   8508     1  180.0000771  0.4184000  2
   8500   8516   8494   8508     1  0.0000000  1.6024720  3
   8504   8500   8499   8505     1  0.0000000  4.9162000  2
   8504   8500   8499   8505     1  0.0000000  0.6024960  3
   8505   8499   8498   8506     1  0.0000000  4.9162000  2
   8505   8499   8498   8506     1  0.0000000  0.6024960  3
   8505   8499   8500   8516     1  0.0000000  4.9162000  2
   8505   8499   8500   8516     1  0.0000000  0.6024960  3
   8506   8498   8495   8507     1  0.0000000  4.9162000  2
   8506   8498   8495   8507     1  0.0000000  0.6024960  3
   8507   8495   8494   8508     1  0.0000000  0.6508444  3
   8507   8495   8494   8516     1  0.0000000  4.9162000  2
   8507   8495   8494   8516     1  0.0000000  0.6024960  3
   8514   8508   8494   8516     1  0.0000000  4.9162000  2
   8514   8508   8494   8516     1  0.0000000  0.6024960  3
   8517   8518   8521   8522     1  180.0000771  0.8368000  1
   8517   8518   8521   8522     1  180.0000771  1.0460000  2
   8517   8518   8521   8522     1  0.0000000  0.7531200  3
   8517   8518   8521   8529     1  0.0000000  0.6508444  3
   8517   8539   8523   8527     1  180.0000771  5.6484000  1
   8517   8539   8523   8527     1  180.0000771  3.5564000  2
   8517   8539   8523   8527     1  0.0000000  0.4184000  3
   8517   8539   8523   8522     1  180.0000771  0.4184000  2
   8517   8539   8523   8522     1  0.0000000  1.6024720  3
   8518   8521   8522   8523     1  180.0000771  0.8368000  1
   8518   8521   8522   8523     1  180.0000771  1.0460000  2
   8518   8521   8522   8523     1  0.0000000  0.7531200  3
   8518   8521   8522   8528     1  0.0000000  0.6508444  3
   8518   8517   8531   8537     1  0.0000000  0.6508444  3
   8518   8517   8539   8523     1  180.0000771  0.4184000  2
   8518   8517   8539   8523     1  0.0000000  1.6024720  3
   8521   8522   8523   8527     1  0.0000000  0.6508444  3
   8521   8522   8523   8539     1  0.0000000  0.6508444  3
   8521   8518   8517   8531     1  180.0000771  0.8368000  1
   8521   8518   8517   8531     1  180.0000771  1.0460000  2
   8521   8518   8517   8531     1  0.0000000  0.7531200  3
   8521   8518   8517   8539     1  0.0000000  0.6508444  3
   8522   8521   8518   8530     1  0.0000000  0.6508444  3
   8523   8539   8517   8531     1  180.0000771  0.4184000  2
   8523   8539   8517   8531     1  0.0000000  1.6024720  3
   8523   8522   8521   8529     1  0.0000000  0.6508444  3
   8527   8523   8522   8528     1  0.0000000  4.9162000  2
   8527   8523   8522   8528     1  0.0000000  0.6024960  3
   8528   8522   8523   8539     1  0.0000000  4.9162000  2
   8528   8522   8523   8539     1  0.0000000  0.6024960  3
   8528   8522   8521   8529     1  0.0000000  4.9162000  2
   8528   8522   8521   8529     1  0.0000000  0.6024960  3
   8529   8521   8518   8530     1  0.0000000  4.9162000  2
   8529   8521   8518   8530     1  0.0000000  0.6024960  3
   8530   8518   8517   8531     1  0.0000000  0.6508444  3
   8530   8518   8517   8539     1  0.0000000  4.9162000  2
   8530   8518   8517   8539     1  0.0000000  0.6024960  3
   8537   8531   8517   8539     1  0.0000000  4.9162000  2
   8537   8531   8517   8539     1  0.0000000  0.6024960  3
   8540   8541   8544   8545     1  180.0000771  0.8368000  1
   8540   8541   8544   8545     1  180.0000771  1.0460000  2
   8540   8541   8544   8545     1  0.0000000  0.7531200  3
   8540   8541   8544   8552     1  0.0000000  0.6508444  3
   8540   8562   8546   8545     1  180.0000771  0.4184000  2
   8540   8562   8546   8545     1  0.0000000  1.6024720  3
   8540   8562   8546   8550     1  180.0000771  5.6484000  1
   8540   8562   8546   8550     1  180.0000771  3.5564000  2
   8540   8562   8546   8550     1  0.0000000  0.4184000  3
   8541   8540   8554   8560     1  0.0000000  0.6508444  3
   8541   8540   8562   8546     1  180.0000771  0.4184000  2
   8541   8540   8562   8546     1  0.0000000  1.6024720  3
   8541   8544   8545   8546     1  180.0000771  0.8368000  1
   8541   8544   8545   8546     1  180.0000771  1.0460000  2
   8541   8544   8545   8546     1  0.0000000  0.7531200  3
   8541   8544   8545   8551     1  0.0000000  0.6508444  3
   8544   8541   8540   8554     1  180.0000771  0.8368000  1
   8544   8541   8540   8554     1  180.0000771  1.0460000  2
   8544   8541   8540   8554     1  0.0000000  0.7531200  3
   8544   8541   8540   8562     1  0.0000000  0.6508444  3
   8544   8545   8546   8550     1  0.0000000  0.6508444  3
   8544   8545   8546   8562     1  0.0000000  0.6508444  3
   8545   8544   8541   8553     1  0.0000000  0.6508444  3
   8546   8545   8544   8552     1  0.0000000  0.6508444  3
   8546   8562   8540   8554     1  180.0000771  0.4184000  2
   8546   8562   8540   8554     1  0.0000000  1.6024720  3
   8550   8546   8545   8551     1  0.0000000  4.9162000  2
   8550   8546   8545   8551     1  0.0000000  0.6024960  3
   8551   8545   8544   8552     1  0.0000000  4.9162000  2
   8551   8545   8544   8552     1  0.0000000  0.6024960  3
   8551   8545   8546   8562     1  0.0000000  4.9162000  2
   8551   8545   8546   8562     1  0.0000000  0.6024960  3
   8552   8544   8541   8553     1  0.0000000  4.9162000  2
   8552   8544   8541   8553     1  0.0000000  0.6024960  3
   8553   8541   8540   8554     1  0.0000000  0.6508444  3
   8553   8541   8540   8562     1  0.0000000  4.9162000  2
   8553   8541   8540   8562     1  0.0000000  0.6024960  3
   8560   8554   8540   8562     1  0.0000000  4.9162000  2
   8560   8554   8540   8562     1  0.0000000  0.6024960  3
   8563   8564   8567   8568     1  180.0000771  0.8368000  1
   8563   8564   8567   8568     1  180.0000771  1.0460000  2
   8563   8564   8567   8568     1  0.0000000  0.7531200  3
   8563   8564   8567   8575     1  0.0000000  0.6508444  3
   8563   8585   8569   8573     1  180.0000771  5.6484000  1
   8563   8585   8569   8573     1  180.0000771  3.5564000  2
   8563   8585   8569   8573     1  0.0000000  0.4184000  3
   8563   8585   8569   8568     1  180.0000771  0.4184000  2
   8563   8585   8569   8568     1  0.0000000  1.6024720  3
   8564   8567   8568   8569     1  180.0000771  0.8368000  1
   8564   8567   8568   8569     1  180.0000771  1.0460000  2
   8564   8567   8568   8569     1  0.0000000  0.7531200  3
   8564   8567   8568   8574     1  0.0000000  0.6508444  3
   8564   8563   8577   8583     1  0.0000000  0.6508444  3
   8564   8563   8585   8569     1  180.0000771  0.4184000  2
   8564   8563   8585   8569     1  0.0000000  1.6024720  3
   8567   8568   8569   8573     1  0.0000000  0.6508444  3
   8567   8568   8569   8585     1  0.0000000  0.6508444  3
   8567   8564   8563   8577     1  180.0000771  0.8368000  1
   8567   8564   8563   8577     1  180.0000771  1.0460000  2
   8567   8564   8563   8577     1  0.0000000  0.7531200  3
   8567   8564   8563   8585     1  0.0000000  0.6508444  3
   8568   8567   8564   8576     1  0.0000000  0.6508444  3
   8569   8585   8563   8577     1  180.0000771  0.4184000  2
   8569   8585   8563   8577     1  0.0000000  1.6024720  3
   8569   8568   8567   8575     1  0.0000000  0.6508444  3
   8573   8569   8568   8574     1  0.0000000  4.9162000  2
   8573   8569   8568   8574     1  0.0000000  0.6024960  3
   8574   8568   8569   8585     1  0.0000000  4.9162000  2
   8574   8568   8569   8585     1  0.0000000  0.6024960  3
   8574   8568   8567   8575     1  0.0000000  4.9162000  2
   8574   8568   8567   8575     1  0.0000000  0.6024960  3
   8575   8567   8564   8576     1  0.0000000  4.9162000  2
   8575   8567   8564   8576     1  0.0000000  0.6024960  3
   8576   8564   8563   8577     1  0.0000000  0.6508444  3
   8576   8564   8563   8585     1  0.0000000  4.9162000  2
   8576   8564   8563   8585     1  0.0000000  0.6024960  3
   8583   8577   8563   8585     1  0.0000000  4.9162000  2
   8583   8577   8563   8585     1  0.0000000  0.6024960  3
   8586   8587   8590   8591     1  180.0000771  0.8368000  1
   8586   8587   8590   8591     1  180.0000771  1.0460000  2
   8586   8587   8590   8591     1  0.0000000  0.7531200  3
   8586   8587   8590   8598     1  0.0000000  0.6508444  3
   8586   8608   8592   8591     1  180.0000771  0.4184000  2
   8586   8608   8592   8591     1  0.0000000  1.6024720  3
   8586   8608   8592   8596     1  180.0000771  5.6484000  1
   8586   8608   8592   8596     1  180.0000771  3.5564000  2
   8586   8608   8592   8596     1  0.0000000  0.4184000  3
   8587   8586   8600   8606     1  0.0000000  0.6508444  3
   8587   8586   8608   8592     1  180.0000771  0.4184000  2
   8587   8586   8608   8592     1  0.0000000  1.6024720  3
   8587   8590   8591   8592     1  180.0000771  0.8368000  1
   8587   8590   8591   8592     1  180.0000771  1.0460000  2
   8587   8590   8591   8592     1  0.0000000  0.7531200  3
   8587   8590   8591   8597     1  0.0000000  0.6508444  3
   8590   8587   8586   8600     1  180.0000771  0.8368000  1
   8590   8587   8586   8600     1  180.0000771  1.0460000  2
   8590   8587   8586   8600     1  0.0000000  0.7531200  3
   8590   8587   8586   8608     1  0.0000000  0.6508444  3
   8590   8591   8592   8596     1  0.0000000  0.6508444  3
   8590   8591   8592   8608     1  0.0000000  0.6508444  3
   8591   8590   8587   8599     1  0.0000000  0.6508444  3
   8592   8591   8590   8598     1  0.0000000  0.6508444  3
   8592   8608   8586   8600     1  180.0000771  0.4184000  2
   8592   8608   8586   8600     1  0.0000000  1.6024720  3
   8596   8592   8591   8597     1  0.0000000  4.9162000  2
   8596   8592   8591   8597     1  0.0000000  0.6024960  3
   8597   8591   8590   8598     1  0.0000000  4.9162000  2
   8597   8591   8590   8598     1  0.0000000  0.6024960  3
   8597   8591   8592   8608     1  0.0000000  4.9162000  2
   8597   8591   8592   8608     1  0.0000000  0.6024960  3
   8598   8590   8587   8599     1  0.0000000  4.9162000  2
   8598   8590   8587   8599     1  0.0000000  0.6024960  3
   8599   8587   8586   8600     1  0.0000000  0.6508444  3
   8599   8587   8586   8608     1  0.0000000  4.9162000  2
   8599   8587   8586   8608     1  0.0000000  0.6024960  3
   8606   8600   8586   8608     1  0.0000000  4.9162000  2
   8606   8600   8586   8608     1  0.0000000  0.6024960  3
   8609   8610   8613   8614     1  180.0000771  0.8368000  1
   8609   8610   8613   8614     1  180.0000771  1.0460000  2
   8609   8610   8613   8614     1  0.0000000  0.7531200  3
   8609   8610   8613   8621     1  0.0000000  0.6508444  3
   8609   8631   8615   8619     1  180.0000771  5.6484000  1
   8609   8631   8615   8619     1  180.0000771  3.5564000  2
   8609   8631   8615   8619     1  0.0000000  0.4184000  3
   8609   8631   8615   8614     1  180.0000771  0.4184000  2
   8609   8631   8615   8614     1  0.0000000  1.6024720  3
   8610   8613   8614   8615     1  180.0000771  0.8368000  1
   8610   8613   8614   8615     1  180.0000771  1.0460000  2
   8610   8613   8614   8615     1  0.0000000  0.7531200  3
   8610   8613   8614   8620     1  0.0000000  0.6508444  3
   8610   8609   8623   8629     1  0.0000000  0.6508444  3
   8610   8609   8631   8615     1  180.0000771  0.4184000  2
   8610   8609   8631   8615     1  0.0000000  1.6024720  3
   8613   8614   8615   8619     1  0.0000000  0.6508444  3
   8613   8614   8615   8631     1  0.0000000  0.6508444  3
   8613   8610   8609   8623     1  180.0000771  0.8368000  1
   8613   8610   8609   8623     1  180.0000771  1.0460000  2
   8613   8610   8609   8623     1  0.0000000  0.7531200  3
   8613   8610   8609   8631     1  0.0000000  0.6508444  3
   8614   8613   8610   8622     1  0.0000000  0.6508444  3
   8615   8631   8609   8623     1  180.0000771  0.4184000  2
   8615   8631   8609   8623     1  0.0000000  1.6024720  3
   8615   8614   8613   8621     1  0.0000000  0.6508444  3
   8619   8615   8614   8620     1  0.0000000  4.9162000  2
   8619   8615   8614   8620     1  0.0000000  0.6024960  3
   8620   8614   8615   8631     1  0.0000000  4.9162000  2
   8620   8614   8615   8631     1  0.0000000  0.6024960  3
   8620   8614   8613   8621     1  0.0000000  4.9162000  2
   8620   8614   8613   8621     1  0.0000000  0.6024960  3
   8621   8613   8610   8622     1  0.0000000  4.9162000  2
   8621   8613   8610   8622     1  0.0000000  0.6024960  3
   8622   8610   8609   8623     1  0.0000000  0.6508444  3
   8622   8610   8609   8631     1  0.0000000  4.9162000  2
   8622   8610   8609   8631     1  0.0000000  0.6024960  3
   8629   8623   8609   8631     1  0.0000000  4.9162000  2
   8629   8623   8609   8631     1  0.0000000  0.6024960  3
   8632   8633   8636   8637     1  180.0000771  0.8368000  1
   8632   8633   8636   8637     1  180.0000771  1.0460000  2
   8632   8633   8636   8637     1  0.0000000  0.7531200  3
   8632   8633   8636   8644     1  0.0000000  0.6508444  3
   8632   8654   8638   8637     1  180.0000771  0.4184000  2
   8632   8654   8638   8637     1  0.0000000  1.6024720  3
   8632   8654   8638   8642     1  180.0000771  5.6484000  1
   8632   8654   8638   8642     1  180.0000771  3.5564000  2
   8632   8654   8638   8642     1  0.0000000  0.4184000  3
   8633   8632   8646   8652     1  0.0000000  0.6508444  3
   8633   8632   8654   8638     1  180.0000771  0.4184000  2
   8633   8632   8654   8638     1  0.0000000  1.6024720  3
   8633   8636   8637   8638     1  180.0000771  0.8368000  1
   8633   8636   8637   8638     1  180.0000771  1.0460000  2
   8633   8636   8637   8638     1  0.0000000  0.7531200  3
   8633   8636   8637   8643     1  0.0000000  0.6508444  3
   8636   8633   8632   8646     1  180.0000771  0.8368000  1
   8636   8633   8632   8646     1  180.0000771  1.0460000  2
   8636   8633   8632   8646     1  0.0000000  0.7531200  3
   8636   8633   8632   8654     1  0.0000000  0.6508444  3
   8636   8637   8638   8642     1  0.0000000  0.6508444  3
   8636   8637   8638   8654     1  0.0000000  0.6508444  3
   8637   8636   8633   8645     1  0.0000000  0.6508444  3
   8638   8637   8636   8644     1  0.0000000  0.6508444  3
   8638   8654   8632   8646     1  180.0000771  0.4184000  2
   8638   8654   8632   8646     1  0.0000000  1.6024720  3
   8642   8638   8637   8643     1  0.0000000  4.9162000  2
   8642   8638   8637   8643     1  0.0000000  0.6024960  3
   8643   8637   8636   8644     1  0.0000000  4.9162000  2
   8643   8637   8636   8644     1  0.0000000  0.6024960  3
   8643   8637   8638   8654     1  0.0000000  4.9162000  2
   8643   8637   8638   8654     1  0.0000000  0.6024960  3
   8644   8636   8633   8645     1  0.0000000  4.9162000  2
   8644   8636   8633   8645     1  0.0000000  0.6024960  3
   8645   8633   8632   8646     1  0.0000000  0.6508444  3
   8645   8633   8632   8654     1  0.0000000  4.9162000  2
   8645   8633   8632   8654     1  0.0000000  0.6024960  3
   8652   8646   8632   8654     1  0.0000000  4.9162000  2
   8652   8646   8632   8654     1  0.0000000  0.6024960  3
   8655   8656   8659   8660     1  180.0000771  0.8368000  1
   8655   8656   8659   8660     1  180.0000771  1.0460000  2
   8655   8656   8659   8660     1  0.0000000  0.7531200  3
   8655   8656   8659   8667     1  0.0000000  0.6508444  3
   8655   8677   8661   8665     1  180.0000771  5.6484000  1
   8655   8677   8661   8665     1  180.0000771  3.5564000  2
   8655   8677   8661   8665     1  0.0000000  0.4184000  3
   8655   8677   8661   8660     1  180.0000771  0.4184000  2
   8655   8677   8661   8660     1  0.0000000  1.6024720  3
   8656   8659   8660   8661     1  180.0000771  0.8368000  1
   8656   8659   8660   8661     1  180.0000771  1.0460000  2
   8656   8659   8660   8661     1  0.0000000  0.7531200  3
   8656   8659   8660   8666     1  0.0000000  0.6508444  3
   8656   8655   8669   8675     1  0.0000000  0.6508444  3
   8656   8655   8677   8661     1  180.0000771  0.4184000  2
   8656   8655   8677   8661     1  0.0000000  1.6024720  3
   8659   8660   8661   8665     1  0.0000000  0.6508444  3
   8659   8660   8661   8677     1  0.0000000  0.6508444  3
   8659   8656   8655   8669     1  180.0000771  0.8368000  1
   8659   8656   8655   8669     1  180.0000771  1.0460000  2
   8659   8656   8655   8669     1  0.0000000  0.7531200  3
   8659   8656   8655   8677     1  0.0000000  0.6508444  3
   8660   8659   8656   8668     1  0.0000000  0.6508444  3
   8661   8677   8655   8669     1  180.0000771  0.4184000  2
   8661   8677   8655   8669     1  0.0000000  1.6024720  3
   8661   8660   8659   8667     1  0.0000000  0.6508444  3
   8665   8661   8660   8666     1  0.0000000  4.9162000  2
   8665   8661   8660   8666     1  0.0000000  0.6024960  3
   8666   8660   8661   8677     1  0.0000000  4.9162000  2
   8666   8660   8661   8677     1  0.0000000  0.6024960  3
   8666   8660   8659   8667     1  0.0000000  4.9162000  2
   8666   8660   8659   8667     1  0.0000000  0.6024960  3
   8667   8659   8656   8668     1  0.0000000  4.9162000  2
   8667   8659   8656   8668     1  0.0000000  0.6024960  3
   8668   8656   8655   8669     1  0.0000000  0.6508444  3
   8668   8656   8655   8677     1  0.0000000  4.9162000  2
   8668   8656   8655   8677     1  0.0000000  0.6024960  3
   8675   8669   8655   8677     1  0.0000000  4.9162000  2
   8675   8669   8655   8677     1  0.0000000  0.6024960  3
   8678   8679   8682   8683     1  180.0000771  0.8368000  1
   8678   8679   8682   8683     1  180.0000771  1.0460000  2
   8678   8679   8682   8683     1  0.0000000  0.7531200  3
   8678   8679   8682   8690     1  0.0000000  0.6508444  3
   8678   8700   8684   8683     1  180.0000771  0.4184000  2
   8678   8700   8684   8683     1  0.0000000  1.6024720  3
   8678   8700   8684   8688     1  180.0000771  5.6484000  1
   8678   8700   8684   8688     1  180.0000771  3.5564000  2
   8678   8700   8684   8688     1  0.0000000  0.4184000  3
   8679   8678   8692   8698     1  0.0000000  0.6508444  3
   8679   8678   8700   8684     1  180.0000771  0.4184000  2
   8679   8678   8700   8684     1  0.0000000  1.6024720  3
   8679   8682   8683   8684     1  180.0000771  0.8368000  1
   8679   8682   8683   8684     1  180.0000771  1.0460000  2
   8679   8682   8683   8684     1  0.0000000  0.7531200  3
   8679   8682   8683   8689     1  0.0000000  0.6508444  3
   8682   8679   8678   8692     1  180.0000771  0.8368000  1
   8682   8679   8678   8692     1  180.0000771  1.0460000  2
   8682   8679   8678   8692     1  0.0000000  0.7531200  3
   8682   8679   8678   8700     1  0.0000000  0.6508444  3
   8682   8683   8684   8688     1  0.0000000  0.6508444  3
   8682   8683   8684   8700     1  0.0000000  0.6508444  3
   8683   8682   8679   8691     1  0.0000000  0.6508444  3
   8684   8683   8682   8690     1  0.0000000  0.6508444  3
   8684   8700   8678   8692     1  180.0000771  0.4184000  2
   8684   8700   8678   8692     1  0.0000000  1.6024720  3
   8688   8684   8683   8689     1  0.0000000  4.9162000  2
   8688   8684   8683   8689     1  0.0000000  0.6024960  3
   8689   8683   8682   8690     1  0.0000000  4.9162000  2
   8689   8683   8682   8690     1  0.0000000  0.6024960  3
   8689   8683   8684   8700     1  0.0000000  4.9162000  2
   8689   8683   8684   8700     1  0.0000000  0.6024960  3
   8690   8682   8679   8691     1  0.0000000  4.9162000  2
   8690   8682   8679   8691     1  0.0000000  0.6024960  3
   8691   8679   8678   8692     1  0.0000000  0.6508444  3
   8691   8679   8678   8700     1  0.0000000  4.9162000  2
   8691   8679   8678   8700     1  0.0000000  0.6024960  3
   8698   8692   8678   8700     1  0.0000000  4.9162000  2
   8698   8692   8678   8700     1  0.0000000  0.6024960  3
   8701   8702   8705   8706     1  180.0000771  0.8368000  1
   8701   8702   8705   8706     1  180.0000771  1.0460000  2
   8701   8702   8705   8706     1  0.0000000  0.7531200  3
   8701   8702   8705   8713     1  0.0000000  0.6508444  3
   8701   8723   8707   8711     1  180.0000771  5.6484000  1
   8701   8723   8707   8711     1  180.0000771  3.5564000  2
   8701   8723   8707   8711     1  0.0000000  0.4184000  3
   8701   8723   8707   8706     1  180.0000771  0.4184000  2
   8701   8723   8707   8706     1  0.0000000  1.6024720  3
   8702   8705   8706   8707     1  180.0000771  0.8368000  1
   8702   8705   8706   8707     1  180.0000771  1.0460000  2
   8702   8705   8706   8707     1  0.0000000  0.7531200  3
   8702   8705   8706   8712     1  0.0000000  0.6508444  3
   8702   8701   8715   8721     1  0.0000000  0.6508444  3
   8702   8701   8723   8707     1  180.0000771  0.4184000  2
   8702   8701   8723   8707     1  0.0000000  1.6024720  3
   8705   8706   8707   8711     1  0.0000000  0.6508444  3
   8705   8706   8707   8723     1  0.0000000  0.6508444  3
   8705   8702   8701   8715     1  180.0000771  0.8368000  1
   8705   8702   8701   8715     1  180.0000771  1.0460000  2
   8705   8702   8701   8715     1  0.0000000  0.7531200  3
   8705   8702   8701   8723     1  0.0000000  0.6508444  3
   8706   8705   8702   8714     1  0.0000000  0.6508444  3
   8707   8723   8701   8715     1  180.0000771  0.4184000  2
   8707   8723   8701   8715     1  0.0000000  1.6024720  3
   8707   8706   8705   8713     1  0.0000000  0.6508444  3
   8711   8707   8706   8712     1  0.0000000  4.9162000  2
   8711   8707   8706   8712     1  0.0000000  0.6024960  3
   8712   8706   8707   8723     1  0.0000000  4.9162000  2
   8712   8706   8707   8723     1  0.0000000  0.6024960  3
   8712   8706   8705   8713     1  0.0000000  4.9162000  2
   8712   8706   8705   8713     1  0.0000000  0.6024960  3
   8713   8705   8702   8714     1  0.0000000  4.9162000  2
   8713   8705   8702   8714     1  0.0000000  0.6024960  3
   8714   8702   8701   8715     1  0.0000000  0.6508444  3
   8714   8702   8701   8723     1  0.0000000  4.9162000  2
   8714   8702   8701   8723     1  0.0000000  0.6024960  3
   8721   8715   8701   8723     1  0.0000000  4.9162000  2
   8721   8715   8701   8723     1  0.0000000  0.6024960  3
   8724   8725   8728   8729     1  180.0000771  0.8368000  1
   8724   8725   8728   8729     1  180.0000771  1.0460000  2
   8724   8725   8728   8729     1  0.0000000  0.7531200  3
   8724   8725   8728   8736     1  0.0000000  0.6508444  3
   8724   8746   8730   8729     1  180.0000771  0.4184000  2
   8724   8746   8730   8729     1  0.0000000  1.6024720  3
   8724   8746   8730   8734     1  180.0000771  5.6484000  1
   8724   8746   8730   8734     1  180.0000771  3.5564000  2
   8724   8746   8730   8734     1  0.0000000  0.4184000  3
   8725   8724   8738   8744     1  0.0000000  0.6508444  3
   8725   8724   8746   8730     1  180.0000771  0.4184000  2
   8725   8724   8746   8730     1  0.0000000  1.6024720  3
   8725   8728   8729   8730     1  180.0000771  0.8368000  1
   8725   8728   8729   8730     1  180.0000771  1.0460000  2
   8725   8728   8729   8730     1  0.0000000  0.7531200  3
   8725   8728   8729   8735     1  0.0000000  0.6508444  3
   8728   8725   8724   8738     1  180.0000771  0.8368000  1
   8728   8725   8724   8738     1  180.0000771  1.0460000  2
   8728   8725   8724   8738     1  0.0000000  0.7531200  3
   8728   8725   8724   8746     1  0.0000000  0.6508444  3
   8728   8729   8730   8734     1  0.0000000  0.6508444  3
   8728   8729   8730   8746     1  0.0000000  0.6508444  3
   8729   8728   8725   8737     1  0.0000000  0.6508444  3
   8730   8729   8728   8736     1  0.0000000  0.6508444  3
   8730   8746   8724   8738     1  180.0000771  0.4184000  2
   8730   8746   8724   8738     1  0.0000000  1.6024720  3
   8734   8730   8729   8735     1  0.0000000  4.9162000  2
   8734   8730   8729   8735     1  0.0000000  0.6024960  3
   8735   8729   8728   8736     1  0.0000000  4.9162000  2
   8735   8729   8728   8736     1  0.0000000  0.6024960  3
   8735   8729   8730   8746     1  0.0000000  4.9162000  2
   8735   8729   8730   8746     1  0.0000000  0.6024960  3
   8736   8728   8725   8737     1  0.0000000  4.9162000  2
   8736   8728   8725   8737     1  0.0000000  0.6024960  3
   8737   8725   8724   8738     1  0.0000000  0.6508444  3
   8737   8725   8724   8746     1  0.0000000  4.9162000  2
   8737   8725   8724   8746     1  0.0000000  0.6024960  3
   8744   8738   8724   8746     1  0.0000000  4.9162000  2
   8744   8738   8724   8746     1  0.0000000  0.6024960  3
   8747   8748   8751   8752     1  180.0000771  0.8368000  1
   8747   8748   8751   8752     1  180.0000771  1.0460000  2
   8747   8748   8751   8752     1  0.0000000  0.7531200  3
   8747   8748   8751   8759     1  0.0000000  0.6508444  3
   8747   8769   8753   8757     1  180.0000771  5.6484000  1
   8747   8769   8753   8757     1  180.0000771  3.5564000  2
   8747   8769   8753   8757     1  0.0000000  0.4184000  3
   8747   8769   8753   8752     1  180.0000771  0.4184000  2
   8747   8769   8753   8752     1  0.0000000  1.6024720  3
   8748   8751   8752   8753     1  180.0000771  0.8368000  1
   8748   8751   8752   8753     1  180.0000771  1.0460000  2
   8748   8751   8752   8753     1  0.0000000  0.7531200  3
   8748   8751   8752   8758     1  0.0000000  0.6508444  3
   8748   8747   8761   8767     1  0.0000000  0.6508444  3
   8748   8747   8769   8753     1  180.0000771  0.4184000  2
   8748   8747   8769   8753     1  0.0000000  1.6024720  3
   8751   8752   8753   8757     1  0.0000000  0.6508444  3
   8751   8752   8753   8769     1  0.0000000  0.6508444  3
   8751   8748   8747   8761     1  180.0000771  0.8368000  1
   8751   8748   8747   8761     1  180.0000771  1.0460000  2
   8751   8748   8747   8761     1  0.0000000  0.7531200  3
   8751   8748   8747   8769     1  0.0000000  0.6508444  3
   8752   8751   8748   8760     1  0.0000000  0.6508444  3
   8753   8769   8747   8761     1  180.0000771  0.4184000  2
   8753   8769   8747   8761     1  0.0000000  1.6024720  3
   8753   8752   8751   8759     1  0.0000000  0.6508444  3
   8757   8753   8752   8758     1  0.0000000  4.9162000  2
   8757   8753   8752   8758     1  0.0000000  0.6024960  3
   8758   8752   8753   8769     1  0.0000000  4.9162000  2
   8758   8752   8753   8769     1  0.0000000  0.6024960  3
   8758   8752   8751   8759     1  0.0000000  4.9162000  2
   8758   8752   8751   8759     1  0.0000000  0.6024960  3
   8759   8751   8748   8760     1  0.0000000  4.9162000  2
   8759   8751   8748   8760     1  0.0000000  0.6024960  3
   8760   8748   8747   8761     1  0.0000000  0.6508444  3
   8760   8748   8747   8769     1  0.0000000  4.9162000  2
   8760   8748   8747   8769     1  0.0000000  0.6024960  3
   8767   8761   8747   8769     1  0.0000000  4.9162000  2
   8767   8761   8747   8769     1  0.0000000  0.6024960  3
   8770   8771   8774   8775     1  180.0000771  0.8368000  1
   8770   8771   8774   8775     1  180.0000771  1.0460000  2
   8770   8771   8774   8775     1  0.0000000  0.7531200  3
   8770   8771   8774   8782     1  0.0000000  0.6508444  3
   8770   8792   8776   8775     1  180.0000771  0.4184000  2
   8770   8792   8776   8775     1  0.0000000  1.6024720  3
   8770   8792   8776   8780     1  180.0000771  5.6484000  1
   8770   8792   8776   8780     1  180.0000771  3.5564000  2
   8770   8792   8776   8780     1  0.0000000  0.4184000  3
   8771   8770   8784   8790     1  0.0000000  0.6508444  3
   8771   8770   8792   8776     1  180.0000771  0.4184000  2
   8771   8770   8792   8776     1  0.0000000  1.6024720  3
   8771   8774   8775   8776     1  180.0000771  0.8368000  1
   8771   8774   8775   8776     1  180.0000771  1.0460000  2
   8771   8774   8775   8776     1  0.0000000  0.7531200  3
   8771   8774   8775   8781     1  0.0000000  0.6508444  3
   8774   8771   8770   8784     1  180.0000771  0.8368000  1
   8774   8771   8770   8784     1  180.0000771  1.0460000  2
   8774   8771   8770   8784     1  0.0000000  0.7531200  3
   8774   8771   8770   8792     1  0.0000000  0.6508444  3
   8774   8775   8776   8780     1  0.0000000  0.6508444  3
   8774   8775   8776   8792     1  0.0000000  0.6508444  3
   8775   8774   8771   8783     1  0.0000000  0.6508444  3
   8776   8775   8774   8782     1  0.0000000  0.6508444  3
   8776   8792   8770   8784     1  180.0000771  0.4184000  2
   8776   8792   8770   8784     1  0.0000000  1.6024720  3
   8780   8776   8775   8781     1  0.0000000  4.9162000  2
   8780   8776   8775   8781     1  0.0000000  0.6024960  3
   8781   8775   8774   8782     1  0.0000000  4.9162000  2
   8781   8775   8774   8782     1  0.0000000  0.6024960  3
   8781   8775   8776   8792     1  0.0000000  4.9162000  2
   8781   8775   8776   8792     1  0.0000000  0.6024960  3
   8782   8774   8771   8783     1  0.0000000  4.9162000  2
   8782   8774   8771   8783     1  0.0000000  0.6024960  3
   8783   8771   8770   8784     1  0.0000000  0.6508444  3
   8783   8771   8770   8792     1  0.0000000  4.9162000  2
   8783   8771   8770   8792     1  0.0000000  0.6024960  3
   8790   8784   8770   8792     1  0.0000000  4.9162000  2
   8790   8784   8770   8792     1  0.0000000  0.6024960  3
   8793   8794   8797   8798     1  180.0000771  0.8368000  1
   8793   8794   8797   8798     1  180.0000771  1.0460000  2
   8793   8794   8797   8798     1  0.0000000  0.7531200  3
   8793   8794   8797   8805     1  0.0000000  0.6508444  3
   8793   8815   8799   8803     1  180.0000771  5.6484000  1
   8793   8815   8799   8803     1  180.0000771  3.5564000  2
   8793   8815   8799   8803     1  0.0000000  0.4184000  3
   8793   8815   8799   8798     1  180.0000771  0.4184000  2
   8793   8815   8799   8798     1  0.0000000  1.6024720  3
   8794   8797   8798   8799     1  180.0000771  0.8368000  1
   8794   8797   8798   8799     1  180.0000771  1.0460000  2
   8794   8797   8798   8799     1  0.0000000  0.7531200  3
   8794   8797   8798   8804     1  0.0000000  0.6508444  3
   8794   8793   8807   8813     1  0.0000000  0.6508444  3
   8794   8793   8815   8799     1  180.0000771  0.4184000  2
   8794   8793   8815   8799     1  0.0000000  1.6024720  3
   8797   8798   8799   8803     1  0.0000000  0.6508444  3
   8797   8798   8799   8815     1  0.0000000  0.6508444  3
   8797   8794   8793   8807     1  180.0000771  0.8368000  1
   8797   8794   8793   8807     1  180.0000771  1.0460000  2
   8797   8794   8793   8807     1  0.0000000  0.7531200  3
   8797   8794   8793   8815     1  0.0000000  0.6508444  3
   8798   8797   8794   8806     1  0.0000000  0.6508444  3
   8799   8815   8793   8807     1  180.0000771  0.4184000  2
   8799   8815   8793   8807     1  0.0000000  1.6024720  3
   8799   8798   8797   8805     1  0.0000000  0.6508444  3
   8803   8799   8798   8804     1  0.0000000  4.9162000  2
   8803   8799   8798   8804     1  0.0000000  0.6024960  3
   8804   8798   8799   8815     1  0.0000000  4.9162000  2
   8804   8798   8799   8815     1  0.0000000  0.6024960  3
   8804   8798   8797   8805     1  0.0000000  4.9162000  2
   8804   8798   8797   8805     1  0.0000000  0.6024960  3
   8805   8797   8794   8806     1  0.0000000  4.9162000  2
   8805   8797   8794   8806     1  0.0000000  0.6024960  3
   8806   8794   8793   8807     1  0.0000000  0.6508444  3
   8806   8794   8793   8815     1  0.0000000  4.9162000  2
   8806   8794   8793   8815     1  0.0000000  0.6024960  3
   8813   8807   8793   8815     1  0.0000000  4.9162000  2
   8813   8807   8793   8815     1  0.0000000  0.6024960  3
   8816   8817   8820   8821     1  180.0000771  0.8368000  1
   8816   8817   8820   8821     1  180.0000771  1.0460000  2
   8816   8817   8820   8821     1  0.0000000  0.7531200  3
   8816   8817   8820   8828     1  0.0000000  0.6508444  3
   8816   8838   8822   8821     1  180.0000771  0.4184000  2
   8816   8838   8822   8821     1  0.0000000  1.6024720  3
   8816   8838   8822   8826     1  180.0000771  5.6484000  1
   8816   8838   8822   8826     1  180.0000771  3.5564000  2
   8816   8838   8822   8826     1  0.0000000  0.4184000  3
   8817   8816   8830   8836     1  0.0000000  0.6508444  3
   8817   8816   8838   8822     1  180.0000771  0.4184000  2
   8817   8816   8838   8822     1  0.0000000  1.6024720  3
   8817   8820   8821   8822     1  180.0000771  0.8368000  1
   8817   8820   8821   8822     1  180.0000771  1.0460000  2
   8817   8820   8821   8822     1  0.0000000  0.7531200  3
   8817   8820   8821   8827     1  0.0000000  0.6508444  3
   8820   8817   8816   8830     1  180.0000771  0.8368000  1
   8820   8817   8816   8830     1  180.0000771  1.0460000  2
   8820   8817   8816   8830     1  0.0000000  0.7531200  3
   8820   8817   8816   8838     1  0.0000000  0.6508444  3
   8820   8821   8822   8826     1  0.0000000  0.6508444  3
   8820   8821   8822   8838     1  0.0000000  0.6508444  3
   8821   8820   8817   8829     1  0.0000000  0.6508444  3
   8822   8821   8820   8828     1  0.0000000  0.6508444  3
   8822   8838   8816   8830     1  180.0000771  0.4184000  2
   8822   8838   8816   8830     1  0.0000000  1.6024720  3
   8826   8822   8821   8827     1  0.0000000  4.9162000  2
   8826   8822   8821   8827     1  0.0000000  0.6024960  3
   8827   8821   8820   8828     1  0.0000000  4.9162000  2
   8827   8821   8820   8828     1  0.0000000  0.6024960  3
   8827   8821   8822   8838     1  0.0000000  4.9162000  2
   8827   8821   8822   8838     1  0.0000000  0.6024960  3
   8828   8820   8817   8829     1  0.0000000  4.9162000  2
   8828   8820   8817   8829     1  0.0000000  0.6024960  3
   8829   8817   8816   8830     1  0.0000000  0.6508444  3
   8829   8817   8816   8838     1  0.0000000  4.9162000  2
   8829   8817   8816   8838     1  0.0000000  0.6024960  3
   8836   8830   8816   8838     1  0.0000000  4.9162000  2
   8836   8830   8816   8838     1  0.0000000  0.6024960  3
   8839   8840   8843   8844     1  180.0000771  0.8368000  1
   8839   8840   8843   8844     1  180.0000771  1.0460000  2
   8839   8840   8843   8844     1  0.0000000  0.7531200  3
   8839   8840   8843   8851     1  0.0000000  0.6508444  3
   8839   8861   8845   8849     1  180.0000771  5.6484000  1
   8839   8861   8845   8849     1  180.0000771  3.5564000  2
   8839   8861   8845   8849     1  0.0000000  0.4184000  3
   8839   8861   8845   8844     1  180.0000771  0.4184000  2
   8839   8861   8845   8844     1  0.0000000  1.6024720  3
   8840   8843   8844   8845     1  180.0000771  0.8368000  1
   8840   8843   8844   8845     1  180.0000771  1.0460000  2
   8840   8843   8844   8845     1  0.0000000  0.7531200  3
   8840   8843   8844   8850     1  0.0000000  0.6508444  3
   8840   8839   8853   8859     1  0.0000000  0.6508444  3
   8840   8839   8861   8845     1  180.0000771  0.4184000  2
   8840   8839   8861   8845     1  0.0000000  1.6024720  3
   8843   8844   8845   8849     1  0.0000000  0.6508444  3
   8843   8844   8845   8861     1  0.0000000  0.6508444  3
   8843   8840   8839   8853     1  180.0000771  0.8368000  1
   8843   8840   8839   8853     1  180.0000771  1.0460000  2
   8843   8840   8839   8853     1  0.0000000  0.7531200  3
   8843   8840   8839   8861     1  0.0000000  0.6508444  3
   8844   8843   8840   8852     1  0.0000000  0.6508444  3
   8845   8861   8839   8853     1  180.0000771  0.4184000  2
   8845   8861   8839   8853     1  0.0000000  1.6024720  3
   8845   8844   8843   8851     1  0.0000000  0.6508444  3
   8849   8845   8844   8850     1  0.0000000  4.9162000  2
   8849   8845   8844   8850     1  0.0000000  0.6024960  3
   8850   8844   8845   8861     1  0.0000000  4.9162000  2
   8850   8844   8845   8861     1  0.0000000  0.6024960  3
   8850   8844   8843   8851     1  0.0000000  4.9162000  2
   8850   8844   8843   8851     1  0.0000000  0.6024960  3
   8851   8843   8840   8852     1  0.0000000  4.9162000  2
   8851   8843   8840   8852     1  0.0000000  0.6024960  3
   8852   8840   8839   8853     1  0.0000000  0.6508444  3
   8852   8840   8839   8861     1  0.0000000  4.9162000  2
   8852   8840   8839   8861     1  0.0000000  0.6024960  3
   8859   8853   8839   8861     1  0.0000000  4.9162000  2
   8859   8853   8839   8861     1  0.0000000  0.6024960  3
   8862   8863   8866   8867     1  180.0000771  0.8368000  1
   8862   8863   8866   8867     1  180.0000771  1.0460000  2
   8862   8863   8866   8867     1  0.0000000  0.7531200  3
   8862   8863   8866   8874     1  0.0000000  0.6508444  3
   8862   8884   8868   8867     1  180.0000771  0.4184000  2
   8862   8884   8868   8867     1  0.0000000  1.6024720  3
   8862   8884   8868   8872     1  180.0000771  5.6484000  1
   8862   8884   8868   8872     1  180.0000771  3.5564000  2
   8862   8884   8868   8872     1  0.0000000  0.4184000  3
   8863   8862   8876   8882     1  0.0000000  0.6508444  3
   8863   8862   8884   8868     1  180.0000771  0.4184000  2
   8863   8862   8884   8868     1  0.0000000  1.6024720  3
   8863   8866   8867   8868     1  180.0000771  0.8368000  1
   8863   8866   8867   8868     1  180.0000771  1.0460000  2
   8863   8866   8867   8868     1  0.0000000  0.7531200  3
   8863   8866   8867   8873     1  0.0000000  0.6508444  3
   8866   8863   8862   8876     1  180.0000771  0.8368000  1
   8866   8863   8862   8876     1  180.0000771  1.0460000  2
   8866   8863   8862   8876     1  0.0000000  0.7531200  3
   8866   8863   8862   8884     1  0.0000000  0.6508444  3
   8866   8867   8868   8872     1  0.0000000  0.6508444  3
   8866   8867   8868   8884     1  0.0000000  0.6508444  3
   8867   8866   8863   8875     1  0.0000000  0.6508444  3
   8868   8867   8866   8874     1  0.0000000  0.6508444  3
   8868   8884   8862   8876     1  180.0000771  0.4184000  2
   8868   8884   8862   8876     1  0.0000000  1.6024720  3
   8872   8868   8867   8873     1  0.0000000  4.9162000  2
   8872   8868   8867   8873     1  0.0000000  0.6024960  3
   8873   8867   8866   8874     1  0.0000000  4.9162000  2
   8873   8867   8866   8874     1  0.0000000  0.6024960  3
   8873   8867   8868   8884     1  0.0000000  4.9162000  2
   8873   8867   8868   8884     1  0.0000000  0.6024960  3
   8874   8866   8863   8875     1  0.0000000  4.9162000  2
   8874   8866   8863   8875     1  0.0000000  0.6024960  3
   8875   8863   8862   8876     1  0.0000000  0.6508444  3
   8875   8863   8862   8884     1  0.0000000  4.9162000  2
   8875   8863   8862   8884     1  0.0000000  0.6024960  3
   8882   8876   8862   8884     1  0.0000000  4.9162000  2
   8882   8876   8862   8884     1  0.0000000  0.6024960  3
   8885   8886   8889   8890     1  180.0000771  0.8368000  1
   8885   8886   8889   8890     1  180.0000771  1.0460000  2
   8885   8886   8889   8890     1  0.0000000  0.7531200  3
   8885   8886   8889   8897     1  0.0000000  0.6508444  3
   8885   8907   8891   8895     1  180.0000771  5.6484000  1
   8885   8907   8891   8895     1  180.0000771  3.5564000  2
   8885   8907   8891   8895     1  0.0000000  0.4184000  3
   8885   8907   8891   8890     1  180.0000771  0.4184000  2
   8885   8907   8891   8890     1  0.0000000  1.6024720  3
   8886   8889   8890   8891     1  180.0000771  0.8368000  1
   8886   8889   8890   8891     1  180.0000771  1.0460000  2
   8886   8889   8890   8891     1  0.0000000  0.7531200  3
   8886   8889   8890   8896     1  0.0000000  0.6508444  3
   8886   8885   8899   8905     1  0.0000000  0.6508444  3
   8886   8885   8907   8891     1  180.0000771  0.4184000  2
   8886   8885   8907   8891     1  0.0000000  1.6024720  3
   8889   8890   8891   8895     1  0.0000000  0.6508444  3
   8889   8890   8891   8907     1  0.0000000  0.6508444  3
   8889   8886   8885   8899     1  180.0000771  0.8368000  1
   8889   8886   8885   8899     1  180.0000771  1.0460000  2
   8889   8886   8885   8899     1  0.0000000  0.7531200  3
   8889   8886   8885   8907     1  0.0000000  0.6508444  3
   8890   8889   8886   8898     1  0.0000000  0.6508444  3
   8891   8907   8885   8899     1  180.0000771  0.4184000  2
   8891   8907   8885   8899     1  0.0000000  1.6024720  3
   8891   8890   8889   8897     1  0.0000000  0.6508444  3
   8895   8891   8890   8896     1  0.0000000  4.9162000  2
   8895   8891   8890   8896     1  0.0000000  0.6024960  3
   8896   8890   8891   8907     1  0.0000000  4.9162000  2
   8896   8890   8891   8907     1  0.0000000  0.6024960  3
   8896   8890   8889   8897     1  0.0000000  4.9162000  2
   8896   8890   8889   8897     1  0.0000000  0.6024960  3
   8897   8889   8886   8898     1  0.0000000  4.9162000  2
   8897   8889   8886   8898     1  0.0000000  0.6024960  3
   8898   8886   8885   8899     1  0.0000000  0.6508444  3
   8898   8886   8885   8907     1  0.0000000  4.9162000  2
   8898   8886   8885   8907     1  0.0000000  0.6024960  3
   8905   8899   8885   8907     1  0.0000000  4.9162000  2
   8905   8899   8885   8907     1  0.0000000  0.6024960  3
   8908   8909   8912   8913     1  180.0000771  0.8368000  1
   8908   8909   8912   8913     1  180.0000771  1.0460000  2
   8908   8909   8912   8913     1  0.0000000  0.7531200  3
   8908   8909   8912   8920     1  0.0000000  0.6508444  3
   8908   8930   8914   8913     1  180.0000771  0.4184000  2
   8908   8930   8914   8913     1  0.0000000  1.6024720  3
   8908   8930   8914   8918     1  180.0000771  5.6484000  1
   8908   8930   8914   8918     1  180.0000771  3.5564000  2
   8908   8930   8914   8918     1  0.0000000  0.4184000  3
   8909   8908   8922   8928     1  0.0000000  0.6508444  3
   8909   8908   8930   8914     1  180.0000771  0.4184000  2
   8909   8908   8930   8914     1  0.0000000  1.6024720  3
   8909   8912   8913   8914     1  180.0000771  0.8368000  1
   8909   8912   8913   8914     1  180.0000771  1.0460000  2
   8909   8912   8913   8914     1  0.0000000  0.7531200  3
   8909   8912   8913   8919     1  0.0000000  0.6508444  3
   8912   8909   8908   8922     1  180.0000771  0.8368000  1
   8912   8909   8908   8922     1  180.0000771  1.0460000  2
   8912   8909   8908   8922     1  0.0000000  0.7531200  3
   8912   8909   8908   8930     1  0.0000000  0.6508444  3
   8912   8913   8914   8918     1  0.0000000  0.6508444  3
   8912   8913   8914   8930     1  0.0000000  0.6508444  3
   8913   8912   8909   8921     1  0.0000000  0.6508444  3
   8914   8913   8912   8920     1  0.0000000  0.6508444  3
   8914   8930   8908   8922     1  180.0000771  0.4184000  2
   8914   8930   8908   8922     1  0.0000000  1.6024720  3
   8918   8914   8913   8919     1  0.0000000  4.9162000  2
   8918   8914   8913   8919     1  0.0000000  0.6024960  3
   8919   8913   8912   8920     1  0.0000000  4.9162000  2
   8919   8913   8912   8920     1  0.0000000  0.6024960  3
   8919   8913   8914   8930     1  0.0000000  4.9162000  2
   8919   8913   8914   8930     1  0.0000000  0.6024960  3
   8920   8912   8909   8921     1  0.0000000  4.9162000  2
   8920   8912   8909   8921     1  0.0000000  0.6024960  3
   8921   8909   8908   8922     1  0.0000000  0.6508444  3
   8921   8909   8908   8930     1  0.0000000  4.9162000  2
   8921   8909   8908   8930     1  0.0000000  0.6024960  3
   8928   8922   8908   8930     1  0.0000000  4.9162000  2
   8928   8922   8908   8930     1  0.0000000  0.6024960  3
   8931   8932   8935   8936     1  180.0000771  0.8368000  1
   8931   8932   8935   8936     1  180.0000771  1.0460000  2
   8931   8932   8935   8936     1  0.0000000  0.7531200  3
   8931   8932   8935   8943     1  0.0000000  0.6508444  3
   8931   8953   8937   8941     1  180.0000771  5.6484000  1
   8931   8953   8937   8941     1  180.0000771  3.5564000  2
   8931   8953   8937   8941     1  0.0000000  0.4184000  3
   8931   8953   8937   8936     1  180.0000771  0.4184000  2
   8931   8953   8937   8936     1  0.0000000  1.6024720  3
   8932   8935   8936   8937     1  180.0000771  0.8368000  1
   8932   8935   8936   8937     1  180.0000771  1.0460000  2
   8932   8935   8936   8937     1  0.0000000  0.7531200  3
   8932   8935   8936   8942     1  0.0000000  0.6508444  3
   8932   8931   8945   8951     1  0.0000000  0.6508444  3
   8932   8931   8953   8937     1  180.0000771  0.4184000  2
   8932   8931   8953   8937     1  0.0000000  1.6024720  3
   8935   8936   8937   8941     1  0.0000000  0.6508444  3
   8935   8936   8937   8953     1  0.0000000  0.6508444  3
   8935   8932   8931   8945     1  180.0000771  0.8368000  1
   8935   8932   8931   8945     1  180.0000771  1.0460000  2
   8935   8932   8931   8945     1  0.0000000  0.7531200  3
   8935   8932   8931   8953     1  0.0000000  0.6508444  3
   8936   8935   8932   8944     1  0.0000000  0.6508444  3
   8937   8953   8931   8945     1  180.0000771  0.4184000  2
   8937   8953   8931   8945     1  0.0000000  1.6024720  3
   8937   8936   8935   8943     1  0.0000000  0.6508444  3
   8941   8937   8936   8942     1  0.0000000  4.9162000  2
   8941   8937   8936   8942     1  0.0000000  0.6024960  3
   8942   8936   8937   8953     1  0.0000000  4.9162000  2
   8942   8936   8937   8953     1  0.0000000  0.6024960  3
   8942   8936   8935   8943     1  0.0000000  4.9162000  2
   8942   8936   8935   8943     1  0.0000000  0.6024960  3
   8943   8935   8932   8944     1  0.0000000  4.9162000  2
   8943   8935   8932   8944     1  0.0000000  0.6024960  3
   8944   8932   8931   8945     1  0.0000000  0.6508444  3
   8944   8932   8931   8953     1  0.0000000  4.9162000  2
   8944   8932   8931   8953     1  0.0000000  0.6024960  3
   8951   8945   8931   8953     1  0.0000000  4.9162000  2
   8951   8945   8931   8953     1  0.0000000  0.6024960  3
   8954   8955   8958   8959     1  180.0000771  0.8368000  1
   8954   8955   8958   8959     1  180.0000771  1.0460000  2
   8954   8955   8958   8959     1  0.0000000  0.7531200  3
   8954   8955   8958   8966     1  0.0000000  0.6508444  3
   8954   8976   8960   8959     1  180.0000771  0.4184000  2
   8954   8976   8960   8959     1  0.0000000  1.6024720  3
   8954   8976   8960   8964     1  180.0000771  5.6484000  1
   8954   8976   8960   8964     1  180.0000771  3.5564000  2
   8954   8976   8960   8964     1  0.0000000  0.4184000  3
   8955   8954   8968   8974     1  0.0000000  0.6508444  3
   8955   8954   8976   8960     1  180.0000771  0.4184000  2
   8955   8954   8976   8960     1  0.0000000  1.6024720  3
   8955   8958   8959   8960     1  180.0000771  0.8368000  1
   8955   8958   8959   8960     1  180.0000771  1.0460000  2
   8955   8958   8959   8960     1  0.0000000  0.7531200  3
   8955   8958   8959   8965     1  0.0000000  0.6508444  3
   8958   8955   8954   8968     1  180.0000771  0.8368000  1
   8958   8955   8954   8968     1  180.0000771  1.0460000  2
   8958   8955   8954   8968     1  0.0000000  0.7531200  3
   8958   8955   8954   8976     1  0.0000000  0.6508444  3
   8958   8959   8960   8964     1  0.0000000  0.6508444  3
   8958   8959   8960   8976     1  0.0000000  0.6508444  3
   8959   8958   8955   8967     1  0.0000000  0.6508444  3
   8960   8959   8958   8966     1  0.0000000  0.6508444  3
   8960   8976   8954   8968     1  180.0000771  0.4184000  2
   8960   8976   8954   8968     1  0.0000000  1.6024720  3
   8964   8960   8959   8965     1  0.0000000  4.9162000  2
   8964   8960   8959   8965     1  0.0000000  0.6024960  3
   8965   8959   8958   8966     1  0.0000000  4.9162000  2
   8965   8959   8958   8966     1  0.0000000  0.6024960  3
   8965   8959   8960   8976     1  0.0000000  4.9162000  2
   8965   8959   8960   8976     1  0.0000000  0.6024960  3
   8966   8958   8955   8967     1  0.0000000  4.9162000  2
   8966   8958   8955   8967     1  0.0000000  0.6024960  3
   8967   8955   8954   8968     1  0.0000000  0.6508444  3
   8967   8955   8954   8976     1  0.0000000  4.9162000  2
   8967   8955   8954   8976     1  0.0000000  0.6024960  3
   8974   8968   8954   8976     1  0.0000000  4.9162000  2
   8974   8968   8954   8976     1  0.0000000  0.6024960  3
   8977   8978   8981   8982     1  180.0000771  0.8368000  1
   8977   8978   8981   8982     1  180.0000771  1.0460000  2
   8977   8978   8981   8982     1  0.0000000  0.7531200  3
   8977   8978   8981   8989     1  0.0000000  0.6508444  3
   8977   8999   8983   8987     1  180.0000771  5.6484000  1
   8977   8999   8983   8987     1  180.0000771  3.5564000  2
   8977   8999   8983   8987     1  0.0000000  0.4184000  3
   8977   8999   8983   8982     1  180.0000771  0.4184000  2
   8977   8999   8983   8982     1  0.0000000  1.6024720  3
   8978   8981   8982   8983     1  180.0000771  0.8368000  1
   8978   8981   8982   8983     1  180.0000771  1.0460000  2
   8978   8981   8982   8983     1  0.0000000  0.7531200  3
   8978   8981   8982   8988     1  0.0000000  0.6508444  3
   8978   8977   8991   8997     1  0.0000000  0.6508444  3
   8978   8977   8999   8983     1  180.0000771  0.4184000  2
   8978   8977   8999   8983     1  0.0000000  1.6024720  3
   8981   8982   8983   8987     1  0.0000000  0.6508444  3
   8981   8982   8983   8999     1  0.0000000  0.6508444  3
   8981   8978   8977   8991     1  180.0000771  0.8368000  1
   8981   8978   8977   8991     1  180.0000771  1.0460000  2
   8981   8978   8977   8991     1  0.0000000  0.7531200  3
   8981   8978   8977   8999     1  0.0000000  0.6508444  3
   8982   8981   8978   8990     1  0.0000000  0.6508444  3
   8983   8999   8977   8991     1  180.0000771  0.4184000  2
   8983   8999   8977   8991     1  0.0000000  1.6024720  3
   8983   8982   8981   8989     1  0.0000000  0.6508444  3
   8987   8983   8982   8988     1  0.0000000  4.9162000  2
   8987   8983   8982   8988     1  0.0000000  0.6024960  3
   8988   8982   8983   8999     1  0.0000000  4.9162000  2
   8988   8982   8983   8999     1  0.0000000  0.6024960  3
   8988   8982   8981   8989     1  0.0000000  4.9162000  2
   8988   8982   8981   8989     1  0.0000000  0.6024960  3
   8989   8981   8978   8990     1  0.0000000  4.9162000  2
   8989   8981   8978   8990     1  0.0000000  0.6024960  3
   8990   8978   8977   8991     1  0.0000000  0.6508444  3
   8990   8978   8977   8999     1  0.0000000  4.9162000  2
   8990   8978   8977   8999     1  0.0000000  0.6024960  3
   8997   8991   8977   8999     1  0.0000000  4.9162000  2
   8997   8991   8977   8999     1  0.0000000  0.6024960  3
   9000   9001   9004   9005     1  180.0000771  0.8368000  1
   9000   9001   9004   9005     1  180.0000771  1.0460000  2
   9000   9001   9004   9005     1  0.0000000  0.7531200  3
   9000   9001   9004   9012     1  0.0000000  0.6508444  3
   9000   9022   9006   9005     1  180.0000771  0.4184000  2
   9000   9022   9006   9005     1  0.0000000  1.6024720  3
   9000   9022   9006   9010     1  180.0000771  5.6484000  1
   9000   9022   9006   9010     1  180.0000771  3.5564000  2
   9000   9022   9006   9010     1  0.0000000  0.4184000  3
   9001   9000   9014   9020     1  0.0000000  0.6508444  3
   9001   9000   9022   9006     1  180.0000771  0.4184000  2
   9001   9000   9022   9006     1  0.0000000  1.6024720  3
   9001   9004   9005   9006     1  180.0000771  0.8368000  1
   9001   9004   9005   9006     1  180.0000771  1.0460000  2
   9001   9004   9005   9006     1  0.0000000  0.7531200  3
   9001   9004   9005   9011     1  0.0000000  0.6508444  3
   9004   9001   9000   9014     1  180.0000771  0.8368000  1
   9004   9001   9000   9014     1  180.0000771  1.0460000  2
   9004   9001   9000   9014     1  0.0000000  0.7531200  3
   9004   9001   9000   9022     1  0.0000000  0.6508444  3
   9004   9005   9006   9010     1  0.0000000  0.6508444  3
   9004   9005   9006   9022     1  0.0000000  0.6508444  3
   9005   9004   9001   9013     1  0.0000000  0.6508444  3
   9006   9005   9004   9012     1  0.0000000  0.6508444  3
   9006   9022   9000   9014     1  180.0000771  0.4184000  2
   9006   9022   9000   9014     1  0.0000000  1.6024720  3
   9010   9006   9005   9011     1  0.0000000  4.9162000  2
   9010   9006   9005   9011     1  0.0000000  0.6024960  3
   9011   9005   9004   9012     1  0.0000000  4.9162000  2
   9011   9005   9004   9012     1  0.0000000  0.6024960  3
   9011   9005   9006   9022     1  0.0000000  4.9162000  2
   9011   9005   9006   9022     1  0.0000000  0.6024960  3
   9012   9004   9001   9013     1  0.0000000  4.9162000  2
   9012   9004   9001   9013     1  0.0000000  0.6024960  3
   9013   9001   9000   9014     1  0.0000000  0.6508444  3
   9013   9001   9000   9022     1  0.0000000  4.9162000  2
   9013   9001   9000   9022     1  0.0000000  0.6024960  3
   9020   9014   9000   9022     1  0.0000000  4.9162000  2
   9020   9014   9000   9022     1  0.0000000  0.6024960  3
   9023   9024   9027   9028     1  180.0000771  0.8368000  1
   9023   9024   9027   9028     1  180.0000771  1.0460000  2
   9023   9024   9027   9028     1  0.0000000  0.7531200  3
   9023   9024   9027   9035     1  0.0000000  0.6508444  3
   9023   9045   9029   9033     1  180.0000771  5.6484000  1
   9023   9045   9029   9033     1  180.0000771  3.5564000  2
   9023   9045   9029   9033     1  0.0000000  0.4184000  3
   9023   9045   9029   9028     1  180.0000771  0.4184000  2
   9023   9045   9029   9028     1  0.0000000  1.6024720  3
   9024   9027   9028   9029     1  180.0000771  0.8368000  1
   9024   9027   9028   9029     1  180.0000771  1.0460000  2
   9024   9027   9028   9029     1  0.0000000  0.7531200  3
   9024   9027   9028   9034     1  0.0000000  0.6508444  3
   9024   9023   9037   9043     1  0.0000000  0.6508444  3
   9024   9023   9045   9029     1  180.0000771  0.4184000  2
   9024   9023   9045   9029     1  0.0000000  1.6024720  3
   9027   9028   9029   9033     1  0.0000000  0.6508444  3
   9027   9028   9029   9045     1  0.0000000  0.6508444  3
   9027   9024   9023   9037     1  180.0000771  0.8368000  1
   9027   9024   9023   9037     1  180.0000771  1.0460000  2
   9027   9024   9023   9037     1  0.0000000  0.7531200  3
   9027   9024   9023   9045     1  0.0000000  0.6508444  3
   9028   9027   9024   9036     1  0.0000000  0.6508444  3
   9029   9045   9023   9037     1  180.0000771  0.4184000  2
   9029   9045   9023   9037     1  0.0000000  1.6024720  3
   9029   9028   9027   9035     1  0.0000000  0.6508444  3
   9033   9029   9028   9034     1  0.0000000  4.9162000  2
   9033   9029   9028   9034     1  0.0000000  0.6024960  3
   9034   9028   9029   9045     1  0.0000000  4.9162000  2
   9034   9028   9029   9045     1  0.0000000  0.6024960  3
   9034   9028   9027   9035     1  0.0000000  4.9162000  2
   9034   9028   9027   9035     1  0.0000000  0.6024960  3
   9035   9027   9024   9036     1  0.0000000  4.9162000  2
   9035   9027   9024   9036     1  0.0000000  0.6024960  3
   9036   9024   9023   9037     1  0.0000000  0.6508444  3
   9036   9024   9023   9045     1  0.0000000  4.9162000  2
   9036   9024   9023   9045     1  0.0000000  0.6024960  3
   9043   9037   9023   9045     1  0.0000000  4.9162000  2
   9043   9037   9023   9045     1  0.0000000  0.6024960  3
   9046   9047   9050   9051     1  180.0000771  0.8368000  1
   9046   9047   9050   9051     1  180.0000771  1.0460000  2
   9046   9047   9050   9051     1  0.0000000  0.7531200  3
   9046   9047   9050   9058     1  0.0000000  0.6508444  3
   9046   9068   9052   9051     1  180.0000771  0.4184000  2
   9046   9068   9052   9051     1  0.0000000  1.6024720  3
   9046   9068   9052   9056     1  180.0000771  5.6484000  1
   9046   9068   9052   9056     1  180.0000771  3.5564000  2
   9046   9068   9052   9056     1  0.0000000  0.4184000  3
   9047   9046   9060   9066     1  0.0000000  0.6508444  3
   9047   9046   9068   9052     1  180.0000771  0.4184000  2
   9047   9046   9068   9052     1  0.0000000  1.6024720  3
   9047   9050   9051   9052     1  180.0000771  0.8368000  1
   9047   9050   9051   9052     1  180.0000771  1.0460000  2
   9047   9050   9051   9052     1  0.0000000  0.7531200  3
   9047   9050   9051   9057     1  0.0000000  0.6508444  3
   9050   9047   9046   9060     1  180.0000771  0.8368000  1
   9050   9047   9046   9060     1  180.0000771  1.0460000  2
   9050   9047   9046   9060     1  0.0000000  0.7531200  3
   9050   9047   9046   9068     1  0.0000000  0.6508444  3
   9050   9051   9052   9056     1  0.0000000  0.6508444  3
   9050   9051   9052   9068     1  0.0000000  0.6508444  3
   9051   9050   9047   9059     1  0.0000000  0.6508444  3
   9052   9051   9050   9058     1  0.0000000  0.6508444  3
   9052   9068   9046   9060     1  180.0000771  0.4184000  2
   9052   9068   9046   9060     1  0.0000000  1.6024720  3
   9056   9052   9051   9057     1  0.0000000  4.9162000  2
   9056   9052   9051   9057     1  0.0000000  0.6024960  3
   9057   9051   9050   9058     1  0.0000000  4.9162000  2
   9057   9051   9050   9058     1  0.0000000  0.6024960  3
   9057   9051   9052   9068     1  0.0000000  4.9162000  2
   9057   9051   9052   9068     1  0.0000000  0.6024960  3
   9058   9050   9047   9059     1  0.0000000  4.9162000  2
   9058   9050   9047   9059     1  0.0000000  0.6024960  3
   9059   9047   9046   9060     1  0.0000000  0.6508444  3
   9059   9047   9046   9068     1  0.0000000  4.9162000  2
   9059   9047   9046   9068     1  0.0000000  0.6024960  3
   9066   9060   9046   9068     1  0.0000000  4.9162000  2
   9066   9060   9046   9068     1  0.0000000  0.6024960  3
   9069   9070   9073   9074     1  180.0000771  0.8368000  1
   9069   9070   9073   9074     1  180.0000771  1.0460000  2
   9069   9070   9073   9074     1  0.0000000  0.7531200  3
   9069   9070   9073   9081     1  0.0000000  0.6508444  3
   9069   9091   9075   9079     1  180.0000771  5.6484000  1
   9069   9091   9075   9079     1  180.0000771  3.5564000  2
   9069   9091   9075   9079     1  0.0000000  0.4184000  3
   9069   9091   9075   9074     1  180.0000771  0.4184000  2
   9069   9091   9075   9074     1  0.0000000  1.6024720  3
   9070   9073   9074   9075     1  180.0000771  0.8368000  1
   9070   9073   9074   9075     1  180.0000771  1.0460000  2
   9070   9073   9074   9075     1  0.0000000  0.7531200  3
   9070   9073   9074   9080     1  0.0000000  0.6508444  3
   9070   9069   9083   9089     1  0.0000000  0.6508444  3
   9070   9069   9091   9075     1  180.0000771  0.4184000  2
   9070   9069   9091   9075     1  0.0000000  1.6024720  3
   9073   9074   9075   9079     1  0.0000000  0.6508444  3
   9073   9074   9075   9091     1  0.0000000  0.6508444  3
   9073   9070   9069   9083     1  180.0000771  0.8368000  1
   9073   9070   9069   9083     1  180.0000771  1.0460000  2
   9073   9070   9069   9083     1  0.0000000  0.7531200  3
   9073   9070   9069   9091     1  0.0000000  0.6508444  3
   9074   9073   9070   9082     1  0.0000000  0.6508444  3
   9075   9091   9069   9083     1  180.0000771  0.4184000  2
   9075   9091   9069   9083     1  0.0000000  1.6024720  3
   9075   9074   9073   9081     1  0.0000000  0.6508444  3
   9079   9075   9074   9080     1  0.0000000  4.9162000  2
   9079   9075   9074   9080     1  0.0000000  0.6024960  3
   9080   9074   9075   9091     1  0.0000000  4.9162000  2
   9080   9074   9075   9091     1  0.0000000  0.6024960  3
   9080   9074   9073   9081     1  0.0000000  4.9162000  2
   9080   9074   9073   9081     1  0.0000000  0.6024960  3
   9081   9073   9070   9082     1  0.0000000  4.9162000  2
   9081   9073   9070   9082     1  0.0000000  0.6024960  3
   9082   9070   9069   9083     1  0.0000000  0.6508444  3
   9082   9070   9069   9091     1  0.0000000  4.9162000  2
   9082   9070   9069   9091     1  0.0000000  0.6024960  3
   9089   9083   9069   9091     1  0.0000000  4.9162000  2
   9089   9083   9069   9091     1  0.0000000  0.6024960  3
   9092   9093   9096   9097     1  180.0000771  0.8368000  1
   9092   9093   9096   9097     1  180.0000771  1.0460000  2
   9092   9093   9096   9097     1  0.0000000  0.7531200  3
   9092   9093   9096   9104     1  0.0000000  0.6508444  3
   9092   9114   9098   9097     1  180.0000771  0.4184000  2
   9092   9114   9098   9097     1  0.0000000  1.6024720  3
   9092   9114   9098   9102     1  180.0000771  5.6484000  1
   9092   9114   9098   9102     1  180.0000771  3.5564000  2
   9092   9114   9098   9102     1  0.0000000  0.4184000  3
   9093   9092   9106   9112     1  0.0000000  0.6508444  3
   9093   9092   9114   9098     1  180.0000771  0.4184000  2
   9093   9092   9114   9098     1  0.0000000  1.6024720  3
   9093   9096   9097   9098     1  180.0000771  0.8368000  1
   9093   9096   9097   9098     1  180.0000771  1.0460000  2
   9093   9096   9097   9098     1  0.0000000  0.7531200  3
   9093   9096   9097   9103     1  0.0000000  0.6508444  3
   9096   9093   9092   9106     1  180.0000771  0.8368000  1
   9096   9093   9092   9106     1  180.0000771  1.0460000  2
   9096   9093   9092   9106     1  0.0000000  0.7531200  3
   9096   9093   9092   9114     1  0.0000000  0.6508444  3
   9096   9097   9098   9102     1  0.0000000  0.6508444  3
   9096   9097   9098   9114     1  0.0000000  0.6508444  3
   9097   9096   9093   9105     1  0.0000000  0.6508444  3
   9098   9097   9096   9104     1  0.0000000  0.6508444  3
   9098   9114   9092   9106     1  180.0000771  0.4184000  2
   9098   9114   9092   9106     1  0.0000000  1.6024720  3
   9102   9098   9097   9103     1  0.0000000  4.9162000  2
   9102   9098   9097   9103     1  0.0000000  0.6024960  3
   9103   9097   9096   9104     1  0.0000000  4.9162000  2
   9103   9097   9096   9104     1  0.0000000  0.6024960  3
   9103   9097   9098   9114     1  0.0000000  4.9162000  2
   9103   9097   9098   9114     1  0.0000000  0.6024960  3
   9104   9096   9093   9105     1  0.0000000  4.9162000  2
   9104   9096   9093   9105     1  0.0000000  0.6024960  3
   9105   9093   9092   9106     1  0.0000000  0.6508444  3
   9105   9093   9092   9114     1  0.0000000  4.9162000  2
   9105   9093   9092   9114     1  0.0000000  0.6024960  3
   9112   9106   9092   9114     1  0.0000000  4.9162000  2
   9112   9106   9092   9114     1  0.0000000  0.6024960  3
   9115   9116   9119   9120     1  180.0000771  0.8368000  1
   9115   9116   9119   9120     1  180.0000771  1.0460000  2
   9115   9116   9119   9120     1  0.0000000  0.7531200  3
   9115   9116   9119   9127     1  0.0000000  0.6508444  3
   9115   9137   9121   9125     1  180.0000771  5.6484000  1
   9115   9137   9121   9125     1  180.0000771  3.5564000  2
   9115   9137   9121   9125     1  0.0000000  0.4184000  3
   9115   9137   9121   9120     1  180.0000771  0.4184000  2
   9115   9137   9121   9120     1  0.0000000  1.6024720  3
   9116   9119   9120   9121     1  180.0000771  0.8368000  1
   9116   9119   9120   9121     1  180.0000771  1.0460000  2
   9116   9119   9120   9121     1  0.0000000  0.7531200  3
   9116   9119   9120   9126     1  0.0000000  0.6508444  3
   9116   9115   9129   9135     1  0.0000000  0.6508444  3
   9116   9115   9137   9121     1  180.0000771  0.4184000  2
   9116   9115   9137   9121     1  0.0000000  1.6024720  3
   9119   9120   9121   9125     1  0.0000000  0.6508444  3
   9119   9120   9121   9137     1  0.0000000  0.6508444  3
   9119   9116   9115   9129     1  180.0000771  0.8368000  1
   9119   9116   9115   9129     1  180.0000771  1.0460000  2
   9119   9116   9115   9129     1  0.0000000  0.7531200  3
   9119   9116   9115   9137     1  0.0000000  0.6508444  3
   9120   9119   9116   9128     1  0.0000000  0.6508444  3
   9121   9137   9115   9129     1  180.0000771  0.4184000  2
   9121   9137   9115   9129     1  0.0000000  1.6024720  3
   9121   9120   9119   9127     1  0.0000000  0.6508444  3
   9125   9121   9120   9126     1  0.0000000  4.9162000  2
   9125   9121   9120   9126     1  0.0000000  0.6024960  3
   9126   9120   9121   9137     1  0.0000000  4.9162000  2
   9126   9120   9121   9137     1  0.0000000  0.6024960  3
   9126   9120   9119   9127     1  0.0000000  4.9162000  2
   9126   9120   9119   9127     1  0.0000000  0.6024960  3
   9127   9119   9116   9128     1  0.0000000  4.9162000  2
   9127   9119   9116   9128     1  0.0000000  0.6024960  3
   9128   9116   9115   9129     1  0.0000000  0.6508444  3
   9128   9116   9115   9137     1  0.0000000  4.9162000  2
   9128   9116   9115   9137     1  0.0000000  0.6024960  3
   9135   9129   9115   9137     1  0.0000000  4.9162000  2
   9135   9129   9115   9137     1  0.0000000  0.6024960  3
   9138   9139   9142   9143     1  180.0000771  0.8368000  1
   9138   9139   9142   9143     1  180.0000771  1.0460000  2
   9138   9139   9142   9143     1  0.0000000  0.7531200  3
   9138   9139   9142   9150     1  0.0000000  0.6508444  3
   9138   9160   9144   9143     1  180.0000771  0.4184000  2
   9138   9160   9144   9143     1  0.0000000  1.6024720  3
   9138   9160   9144   9148     1  180.0000771  5.6484000  1
   9138   9160   9144   9148     1  180.0000771  3.5564000  2
   9138   9160   9144   9148     1  0.0000000  0.4184000  3
   9139   9138   9152   9158     1  0.0000000  0.6508444  3
   9139   9138   9160   9144     1  180.0000771  0.4184000  2
   9139   9138   9160   9144     1  0.0000000  1.6024720  3
   9139   9142   9143   9144     1  180.0000771  0.8368000  1
   9139   9142   9143   9144     1  180.0000771  1.0460000  2
   9139   9142   9143   9144     1  0.0000000  0.7531200  3
   9139   9142   9143   9149     1  0.0000000  0.6508444  3
   9142   9139   9138   9152     1  180.0000771  0.8368000  1
   9142   9139   9138   9152     1  180.0000771  1.0460000  2
   9142   9139   9138   9152     1  0.0000000  0.7531200  3
   9142   9139   9138   9160     1  0.0000000  0.6508444  3
   9142   9143   9144   9148     1  0.0000000  0.6508444  3
   9142   9143   9144   9160     1  0.0000000  0.6508444  3
   9143   9142   9139   9151     1  0.0000000  0.6508444  3
   9144   9143   9142   9150     1  0.0000000  0.6508444  3
   9144   9160   9138   9152     1  180.0000771  0.4184000  2
   9144   9160   9138   9152     1  0.0000000  1.6024720  3
   9148   9144   9143   9149     1  0.0000000  4.9162000  2
   9148   9144   9143   9149     1  0.0000000  0.6024960  3
   9149   9143   9142   9150     1  0.0000000  4.9162000  2
   9149   9143   9142   9150     1  0.0000000  0.6024960  3
   9149   9143   9144   9160     1  0.0000000  4.9162000  2
   9149   9143   9144   9160     1  0.0000000  0.6024960  3
   9150   9142   9139   9151     1  0.0000000  4.9162000  2
   9150   9142   9139   9151     1  0.0000000  0.6024960  3
   9151   9139   9138   9152     1  0.0000000  0.6508444  3
   9151   9139   9138   9160     1  0.0000000  4.9162000  2
   9151   9139   9138   9160     1  0.0000000  0.6024960  3
   9158   9152   9138   9160     1  0.0000000  4.9162000  2
   9158   9152   9138   9160     1  0.0000000  0.6024960  3
   9161   9162   9165   9166     1  180.0000771  0.8368000  1
   9161   9162   9165   9166     1  180.0000771  1.0460000  2
   9161   9162   9165   9166     1  0.0000000  0.7531200  3
   9161   9162   9165   9173     1  0.0000000  0.6508444  3
   9161   9183   9167   9171     1  180.0000771  5.6484000  1
   9161   9183   9167   9171     1  180.0000771  3.5564000  2
   9161   9183   9167   9171     1  0.0000000  0.4184000  3
   9161   9183   9167   9166     1  180.0000771  0.4184000  2
   9161   9183   9167   9166     1  0.0000000  1.6024720  3
   9162   9165   9166   9167     1  180.0000771  0.8368000  1
   9162   9165   9166   9167     1  180.0000771  1.0460000  2
   9162   9165   9166   9167     1  0.0000000  0.7531200  3
   9162   9165   9166   9172     1  0.0000000  0.6508444  3
   9162   9161   9175   9181     1  0.0000000  0.6508444  3
   9162   9161   9183   9167     1  180.0000771  0.4184000  2
   9162   9161   9183   9167     1  0.0000000  1.6024720  3
   9165   9166   9167   9171     1  0.0000000  0.6508444  3
   9165   9166   9167   9183     1  0.0000000  0.6508444  3
   9165   9162   9161   9175     1  180.0000771  0.8368000  1
   9165   9162   9161   9175     1  180.0000771  1.0460000  2
   9165   9162   9161   9175     1  0.0000000  0.7531200  3
   9165   9162   9161   9183     1  0.0000000  0.6508444  3
   9166   9165   9162   9174     1  0.0000000  0.6508444  3
   9167   9183   9161   9175     1  180.0000771  0.4184000  2
   9167   9183   9161   9175     1  0.0000000  1.6024720  3
   9167   9166   9165   9173     1  0.0000000  0.6508444  3
   9171   9167   9166   9172     1  0.0000000  4.9162000  2
   9171   9167   9166   9172     1  0.0000000  0.6024960  3
   9172   9166   9167   9183     1  0.0000000  4.9162000  2
   9172   9166   9167   9183     1  0.0000000  0.6024960  3
   9172   9166   9165   9173     1  0.0000000  4.9162000  2
   9172   9166   9165   9173     1  0.0000000  0.6024960  3
   9173   9165   9162   9174     1  0.0000000  4.9162000  2
   9173   9165   9162   9174     1  0.0000000  0.6024960  3
   9174   9162   9161   9175     1  0.0000000  0.6508444  3
   9174   9162   9161   9183     1  0.0000000  4.9162000  2
   9174   9162   9161   9183     1  0.0000000  0.6024960  3
   9181   9175   9161   9183     1  0.0000000  4.9162000  2
   9181   9175   9161   9183     1  0.0000000  0.6024960  3
   9184   9185   9188   9189     1  180.0000771  0.8368000  1
   9184   9185   9188   9189     1  180.0000771  1.0460000  2
   9184   9185   9188   9189     1  0.0000000  0.7531200  3
   9184   9185   9188   9196     1  0.0000000  0.6508444  3
   9184   9206   9190   9189     1  180.0000771  0.4184000  2
   9184   9206   9190   9189     1  0.0000000  1.6024720  3
   9184   9206   9190   9194     1  180.0000771  5.6484000  1
   9184   9206   9190   9194     1  180.0000771  3.5564000  2
   9184   9206   9190   9194     1  0.0000000  0.4184000  3
   9185   9184   9198   9204     1  0.0000000  0.6508444  3
   9185   9184   9206   9190     1  180.0000771  0.4184000  2
   9185   9184   9206   9190     1  0.0000000  1.6024720  3
   9185   9188   9189   9190     1  180.0000771  0.8368000  1
   9185   9188   9189   9190     1  180.0000771  1.0460000  2
   9185   9188   9189   9190     1  0.0000000  0.7531200  3
   9185   9188   9189   9195     1  0.0000000  0.6508444  3
   9188   9185   9184   9198     1  180.0000771  0.8368000  1
   9188   9185   9184   9198     1  180.0000771  1.0460000  2
   9188   9185   9184   9198     1  0.0000000  0.7531200  3
   9188   9185   9184   9206     1  0.0000000  0.6508444  3
   9188   9189   9190   9194     1  0.0000000  0.6508444  3
   9188   9189   9190   9206     1  0.0000000  0.6508444  3
   9189   9188   9185   9197     1  0.0000000  0.6508444  3
   9190   9189   9188   9196     1  0.0000000  0.6508444  3
   9190   9206   9184   9198     1  180.0000771  0.4184000  2
   9190   9206   9184   9198     1  0.0000000  1.6024720  3
   9194   9190   9189   9195     1  0.0000000  4.9162000  2
   9194   9190   9189   9195     1  0.0000000  0.6024960  3
   9195   9189   9188   9196     1  0.0000000  4.9162000  2
   9195   9189   9188   9196     1  0.0000000  0.6024960  3
   9195   9189   9190   9206     1  0.0000000  4.9162000  2
   9195   9189   9190   9206     1  0.0000000  0.6024960  3
   9196   9188   9185   9197     1  0.0000000  4.9162000  2
   9196   9188   9185   9197     1  0.0000000  0.6024960  3
   9197   9185   9184   9198     1  0.0000000  0.6508444  3
   9197   9185   9184   9206     1  0.0000000  4.9162000  2
   9197   9185   9184   9206     1  0.0000000  0.6024960  3
   9204   9198   9184   9206     1  0.0000000  4.9162000  2
   9204   9198   9184   9206     1  0.0000000  0.6024960  3
   9207   9208   9211   9212     1  180.0000771  0.8368000  1
   9207   9208   9211   9212     1  180.0000771  1.0460000  2
   9207   9208   9211   9212     1  0.0000000  0.7531200  3
   9207   9208   9211   9219     1  0.0000000  0.6508444  3
   9207   9229   9213   9217     1  180.0000771  5.6484000  1
   9207   9229   9213   9217     1  180.0000771  3.5564000  2
   9207   9229   9213   9217     1  0.0000000  0.4184000  3
   9207   9229   9213   9212     1  180.0000771  0.4184000  2
   9207   9229   9213   9212     1  0.0000000  1.6024720  3
   9208   9211   9212   9213     1  180.0000771  0.8368000  1
   9208   9211   9212   9213     1  180.0000771  1.0460000  2
   9208   9211   9212   9213     1  0.0000000  0.7531200  3
   9208   9211   9212   9218     1  0.0000000  0.6508444  3
   9208   9207   9221   9227     1  0.0000000  0.6508444  3
   9208   9207   9229   9213     1  180.0000771  0.4184000  2
   9208   9207   9229   9213     1  0.0000000  1.6024720  3
   9211   9212   9213   9217     1  0.0000000  0.6508444  3
   9211   9212   9213   9229     1  0.0000000  0.6508444  3
   9211   9208   9207   9221     1  180.0000771  0.8368000  1
   9211   9208   9207   9221     1  180.0000771  1.0460000  2
   9211   9208   9207   9221     1  0.0000000  0.7531200  3
   9211   9208   9207   9229     1  0.0000000  0.6508444  3
   9212   9211   9208   9220     1  0.0000000  0.6508444  3
   9213   9229   9207   9221     1  180.0000771  0.4184000  2
   9213   9229   9207   9221     1  0.0000000  1.6024720  3
   9213   9212   9211   9219     1  0.0000000  0.6508444  3
   9217   9213   9212   9218     1  0.0000000  4.9162000  2
   9217   9213   9212   9218     1  0.0000000  0.6024960  3
   9218   9212   9213   9229     1  0.0000000  4.9162000  2
   9218   9212   9213   9229     1  0.0000000  0.6024960  3
   9218   9212   9211   9219     1  0.0000000  4.9162000  2
   9218   9212   9211   9219     1  0.0000000  0.6024960  3
   9219   9211   9208   9220     1  0.0000000  4.9162000  2
   9219   9211   9208   9220     1  0.0000000  0.6024960  3
   9220   9208   9207   9221     1  0.0000000  0.6508444  3
   9220   9208   9207   9229     1  0.0000000  4.9162000  2
   9220   9208   9207   9229     1  0.0000000  0.6024960  3
   9227   9221   9207   9229     1  0.0000000  4.9162000  2
   9227   9221   9207   9229     1  0.0000000  0.6024960  3
   9230   9231   9234   9235     1  180.0000771  0.8368000  1
   9230   9231   9234   9235     1  180.0000771  1.0460000  2
   9230   9231   9234   9235     1  0.0000000  0.7531200  3
   9230   9231   9234   9242     1  0.0000000  0.6508444  3
   9230   9252   9236   9235     1  180.0000771  0.4184000  2
   9230   9252   9236   9235     1  0.0000000  1.6024720  3
   9230   9252   9236   9240     1  180.0000771  5.6484000  1
   9230   9252   9236   9240     1  180.0000771  3.5564000  2
   9230   9252   9236   9240     1  0.0000000  0.4184000  3
   9231   9230   9244   9250     1  0.0000000  0.6508444  3
   9231   9230   9252   9236     1  180.0000771  0.4184000  2
   9231   9230   9252   9236     1  0.0000000  1.6024720  3
   9231   9234   9235   9236     1  180.0000771  0.8368000  1
   9231   9234   9235   9236     1  180.0000771  1.0460000  2
   9231   9234   9235   9236     1  0.0000000  0.7531200  3
   9231   9234   9235   9241     1  0.0000000  0.6508444  3
   9234   9231   9230   9244     1  180.0000771  0.8368000  1
   9234   9231   9230   9244     1  180.0000771  1.0460000  2
   9234   9231   9230   9244     1  0.0000000  0.7531200  3
   9234   9231   9230   9252     1  0.0000000  0.6508444  3
   9234   9235   9236   9240     1  0.0000000  0.6508444  3
   9234   9235   9236   9252     1  0.0000000  0.6508444  3
   9235   9234   9231   9243     1  0.0000000  0.6508444  3
   9236   9235   9234   9242     1  0.0000000  0.6508444  3
   9236   9252   9230   9244     1  180.0000771  0.4184000  2
   9236   9252   9230   9244     1  0.0000000  1.6024720  3
   9240   9236   9235   9241     1  0.0000000  4.9162000  2
   9240   9236   9235   9241     1  0.0000000  0.6024960  3
   9241   9235   9234   9242     1  0.0000000  4.9162000  2
   9241   9235   9234   9242     1  0.0000000  0.6024960  3
   9241   9235   9236   9252     1  0.0000000  4.9162000  2
   9241   9235   9236   9252     1  0.0000000  0.6024960  3
   9242   9234   9231   9243     1  0.0000000  4.9162000  2
   9242   9234   9231   9243     1  0.0000000  0.6024960  3
   9243   9231   9230   9244     1  0.0000000  0.6508444  3
   9243   9231   9230   9252     1  0.0000000  4.9162000  2
   9243   9231   9230   9252     1  0.0000000  0.6024960  3
   9250   9244   9230   9252     1  0.0000000  4.9162000  2
   9250   9244   9230   9252     1  0.0000000  0.6024960  3
   9253   9254   9257   9258     1  180.0000771  0.8368000  1
   9253   9254   9257   9258     1  180.0000771  1.0460000  2
   9253   9254   9257   9258     1  0.0000000  0.7531200  3
   9253   9254   9257   9265     1  0.0000000  0.6508444  3
   9253   9275   9259   9263     1  180.0000771  5.6484000  1
   9253   9275   9259   9263     1  180.0000771  3.5564000  2
   9253   9275   9259   9263     1  0.0000000  0.4184000  3
   9253   9275   9259   9258     1  180.0000771  0.4184000  2
   9253   9275   9259   9258     1  0.0000000  1.6024720  3
   9254   9257   9258   9259     1  180.0000771  0.8368000  1
   9254   9257   9258   9259     1  180.0000771  1.0460000  2
   9254   9257   9258   9259     1  0.0000000  0.7531200  3
   9254   9257   9258   9264     1  0.0000000  0.6508444  3
   9254   9253   9267   9273     1  0.0000000  0.6508444  3
   9254   9253   9275   9259     1  180.0000771  0.4184000  2
   9254   9253   9275   9259     1  0.0000000  1.6024720  3
   9257   9258   9259   9263     1  0.0000000  0.6508444  3
   9257   9258   9259   9275     1  0.0000000  0.6508444  3
   9257   9254   9253   9267     1  180.0000771  0.8368000  1
   9257   9254   9253   9267     1  180.0000771  1.0460000  2
   9257   9254   9253   9267     1  0.0000000  0.7531200  3
   9257   9254   9253   9275     1  0.0000000  0.6508444  3
   9258   9257   9254   9266     1  0.0000000  0.6508444  3
   9259   9275   9253   9267     1  180.0000771  0.4184000  2
   9259   9275   9253   9267     1  0.0000000  1.6024720  3
   9259   9258   9257   9265     1  0.0000000  0.6508444  3
   9263   9259   9258   9264     1  0.0000000  4.9162000  2
   9263   9259   9258   9264     1  0.0000000  0.6024960  3
   9264   9258   9259   9275     1  0.0000000  4.9162000  2
   9264   9258   9259   9275     1  0.0000000  0.6024960  3
   9264   9258   9257   9265     1  0.0000000  4.9162000  2
   9264   9258   9257   9265     1  0.0000000  0.6024960  3
   9265   9257   9254   9266     1  0.0000000  4.9162000  2
   9265   9257   9254   9266     1  0.0000000  0.6024960  3
   9266   9254   9253   9267     1  0.0000000  0.6508444  3
   9266   9254   9253   9275     1  0.0000000  4.9162000  2
   9266   9254   9253   9275     1  0.0000000  0.6024960  3
   9273   9267   9253   9275     1  0.0000000  4.9162000  2
   9273   9267   9253   9275     1  0.0000000  0.6024960  3
   9276   9277   9280   9281     1  180.0000771  0.8368000  1
   9276   9277   9280   9281     1  180.0000771  1.0460000  2
   9276   9277   9280   9281     1  0.0000000  0.7531200  3
   9276   9277   9280   9288     1  0.0000000  0.6508444  3
   9276   9298   9282   9281     1  180.0000771  0.4184000  2
   9276   9298   9282   9281     1  0.0000000  1.6024720  3
   9276   9298   9282   9286     1  180.0000771  5.6484000  1
   9276   9298   9282   9286     1  180.0000771  3.5564000  2
   9276   9298   9282   9286     1  0.0000000  0.4184000  3
   9277   9276   9290   9296     1  0.0000000  0.6508444  3
   9277   9276   9298   9282     1  180.0000771  0.4184000  2
   9277   9276   9298   9282     1  0.0000000  1.6024720  3
   9277   9280   9281   9282     1  180.0000771  0.8368000  1
   9277   9280   9281   9282     1  180.0000771  1.0460000  2
   9277   9280   9281   9282     1  0.0000000  0.7531200  3
   9277   9280   9281   9287     1  0.0000000  0.6508444  3
   9280   9277   9276   9290     1  180.0000771  0.8368000  1
   9280   9277   9276   9290     1  180.0000771  1.0460000  2
   9280   9277   9276   9290     1  0.0000000  0.7531200  3
   9280   9277   9276   9298     1  0.0000000  0.6508444  3
   9280   9281   9282   9286     1  0.0000000  0.6508444  3
   9280   9281   9282   9298     1  0.0000000  0.6508444  3
   9281   9280   9277   9289     1  0.0000000  0.6508444  3
   9282   9281   9280   9288     1  0.0000000  0.6508444  3
   9282   9298   9276   9290     1  180.0000771  0.4184000  2
   9282   9298   9276   9290     1  0.0000000  1.6024720  3
   9286   9282   9281   9287     1  0.0000000  4.9162000  2
   9286   9282   9281   9287     1  0.0000000  0.6024960  3
   9287   9281   9280   9288     1  0.0000000  4.9162000  2
   9287   9281   9280   9288     1  0.0000000  0.6024960  3
   9287   9281   9282   9298     1  0.0000000  4.9162000  2
   9287   9281   9282   9298     1  0.0000000  0.6024960  3
   9288   9280   9277   9289     1  0.0000000  4.9162000  2
   9288   9280   9277   9289     1  0.0000000  0.6024960  3
   9289   9277   9276   9290     1  0.0000000  0.6508444  3
   9289   9277   9276   9298     1  0.0000000  4.9162000  2
   9289   9277   9276   9298     1  0.0000000  0.6024960  3
   9296   9290   9276   9298     1  0.0000000  4.9162000  2
   9296   9290   9276   9298     1  0.0000000  0.6024960  3
   9299   9300   9303   9304     1  180.0000771  0.8368000  1
   9299   9300   9303   9304     1  180.0000771  1.0460000  2
   9299   9300   9303   9304     1  0.0000000  0.7531200  3
   9299   9300   9303   9311     1  0.0000000  0.6508444  3
   9299   9321   9305   9309     1  180.0000771  5.6484000  1
   9299   9321   9305   9309     1  180.0000771  3.5564000  2
   9299   9321   9305   9309     1  0.0000000  0.4184000  3
   9299   9321   9305   9304     1  180.0000771  0.4184000  2
   9299   9321   9305   9304     1  0.0000000  1.6024720  3
   9300   9303   9304   9305     1  180.0000771  0.8368000  1
   9300   9303   9304   9305     1  180.0000771  1.0460000  2
   9300   9303   9304   9305     1  0.0000000  0.7531200  3
   9300   9303   9304   9310     1  0.0000000  0.6508444  3
   9300   9299   9313   9319     1  0.0000000  0.6508444  3
   9300   9299   9321   9305     1  180.0000771  0.4184000  2
   9300   9299   9321   9305     1  0.0000000  1.6024720  3
   9303   9304   9305   9309     1  0.0000000  0.6508444  3
   9303   9304   9305   9321     1  0.0000000  0.6508444  3
   9303   9300   9299   9313     1  180.0000771  0.8368000  1
   9303   9300   9299   9313     1  180.0000771  1.0460000  2
   9303   9300   9299   9313     1  0.0000000  0.7531200  3
   9303   9300   9299   9321     1  0.0000000  0.6508444  3
   9304   9303   9300   9312     1  0.0000000  0.6508444  3
   9305   9321   9299   9313     1  180.0000771  0.4184000  2
   9305   9321   9299   9313     1  0.0000000  1.6024720  3
   9305   9304   9303   9311     1  0.0000000  0.6508444  3
   9309   9305   9304   9310     1  0.0000000  4.9162000  2
   9309   9305   9304   9310     1  0.0000000  0.6024960  3
   9310   9304   9305   9321     1  0.0000000  4.9162000  2
   9310   9304   9305   9321     1  0.0000000  0.6024960  3
   9310   9304   9303   9311     1  0.0000000  4.9162000  2
   9310   9304   9303   9311     1  0.0000000  0.6024960  3
   9311   9303   9300   9312     1  0.0000000  4.9162000  2
   9311   9303   9300   9312     1  0.0000000  0.6024960  3
   9312   9300   9299   9313     1  0.0000000  0.6508444  3
   9312   9300   9299   9321     1  0.0000000  4.9162000  2
   9312   9300   9299   9321     1  0.0000000  0.6024960  3
   9319   9313   9299   9321     1  0.0000000  4.9162000  2
   9319   9313   9299   9321     1  0.0000000  0.6024960  3
   9322   9323   9326   9327     1  180.0000771  0.8368000  1
   9322   9323   9326   9327     1  180.0000771  1.0460000  2
   9322   9323   9326   9327     1  0.0000000  0.7531200  3
   9322   9323   9326   9334     1  0.0000000  0.6508444  3
   9322   9344   9328   9327     1  180.0000771  0.4184000  2
   9322   9344   9328   9327     1  0.0000000  1.6024720  3
   9322   9344   9328   9332     1  180.0000771  5.6484000  1
   9322   9344   9328   9332     1  180.0000771  3.5564000  2
   9322   9344   9328   9332     1  0.0000000  0.4184000  3
   9323   9322   9336   9342     1  0.0000000  0.6508444  3
   9323   9322   9344   9328     1  180.0000771  0.4184000  2
   9323   9322   9344   9328     1  0.0000000  1.6024720  3
   9323   9326   9327   9328     1  180.0000771  0.8368000  1
   9323   9326   9327   9328     1  180.0000771  1.0460000  2
   9323   9326   9327   9328     1  0.0000000  0.7531200  3
   9323   9326   9327   9333     1  0.0000000  0.6508444  3
   9326   9323   9322   9336     1  180.0000771  0.8368000  1
   9326   9323   9322   9336     1  180.0000771  1.0460000  2
   9326   9323   9322   9336     1  0.0000000  0.7531200  3
   9326   9323   9322   9344     1  0.0000000  0.6508444  3
   9326   9327   9328   9332     1  0.0000000  0.6508444  3
   9326   9327   9328   9344     1  0.0000000  0.6508444  3
   9327   9326   9323   9335     1  0.0000000  0.6508444  3
   9328   9327   9326   9334     1  0.0000000  0.6508444  3
   9328   9344   9322   9336     1  180.0000771  0.4184000  2
   9328   9344   9322   9336     1  0.0000000  1.6024720  3
   9332   9328   9327   9333     1  0.0000000  4.9162000  2
   9332   9328   9327   9333     1  0.0000000  0.6024960  3
   9333   9327   9326   9334     1  0.0000000  4.9162000  2
   9333   9327   9326   9334     1  0.0000000  0.6024960  3
   9333   9327   9328   9344     1  0.0000000  4.9162000  2
   9333   9327   9328   9344     1  0.0000000  0.6024960  3
   9334   9326   9323   9335     1  0.0000000  4.9162000  2
   9334   9326   9323   9335     1  0.0000000  0.6024960  3
   9335   9323   9322   9336     1  0.0000000  0.6508444  3
   9335   9323   9322   9344     1  0.0000000  4.9162000  2
   9335   9323   9322   9344     1  0.0000000  0.6024960  3
   9342   9336   9322   9344     1  0.0000000  4.9162000  2
   9342   9336   9322   9344     1  0.0000000  0.6024960  3
   9345   9346   9349   9350     1  180.0000771  0.8368000  1
   9345   9346   9349   9350     1  180.0000771  1.0460000  2
   9345   9346   9349   9350     1  0.0000000  0.7531200  3
   9345   9346   9349   9357     1  0.0000000  0.6508444  3
   9345   9367   9351   9355     1  180.0000771  5.6484000  1
   9345   9367   9351   9355     1  180.0000771  3.5564000  2
   9345   9367   9351   9355     1  0.0000000  0.4184000  3
   9345   9367   9351   9350     1  180.0000771  0.4184000  2
   9345   9367   9351   9350     1  0.0000000  1.6024720  3
   9346   9349   9350   9351     1  180.0000771  0.8368000  1
   9346   9349   9350   9351     1  180.0000771  1.0460000  2
   9346   9349   9350   9351     1  0.0000000  0.7531200  3
   9346   9349   9350   9356     1  0.0000000  0.6508444  3
   9346   9345   9359   9365     1  0.0000000  0.6508444  3
   9346   9345   9367   9351     1  180.0000771  0.4184000  2
   9346   9345   9367   9351     1  0.0000000  1.6024720  3
   9349   9350   9351   9355     1  0.0000000  0.6508444  3
   9349   9350   9351   9367     1  0.0000000  0.6508444  3
   9349   9346   9345   9359     1  180.0000771  0.8368000  1
   9349   9346   9345   9359     1  180.0000771  1.0460000  2
   9349   9346   9345   9359     1  0.0000000  0.7531200  3
   9349   9346   9345   9367     1  0.0000000  0.6508444  3
   9350   9349   9346   9358     1  0.0000000  0.6508444  3
   9351   9367   9345   9359     1  180.0000771  0.4184000  2
   9351   9367   9345   9359     1  0.0000000  1.6024720  3
   9351   9350   9349   9357     1  0.0000000  0.6508444  3
   9355   9351   9350   9356     1  0.0000000  4.9162000  2
   9355   9351   9350   9356     1  0.0000000  0.6024960  3
   9356   9350   9351   9367     1  0.0000000  4.9162000  2
   9356   9350   9351   9367     1  0.0000000  0.6024960  3
   9356   9350   9349   9357     1  0.0000000  4.9162000  2
   9356   9350   9349   9357     1  0.0000000  0.6024960  3
   9357   9349   9346   9358     1  0.0000000  4.9162000  2
   9357   9349   9346   9358     1  0.0000000  0.6024960  3
   9358   9346   9345   9359     1  0.0000000  0.6508444  3
   9358   9346   9345   9367     1  0.0000000  4.9162000  2
   9358   9346   9345   9367     1  0.0000000  0.6024960  3
   9365   9359   9345   9367     1  0.0000000  4.9162000  2
   9365   9359   9345   9367     1  0.0000000  0.6024960  3
   9368   9369   9372   9373     1  180.0000771  0.8368000  1
   9368   9369   9372   9373     1  180.0000771  1.0460000  2
   9368   9369   9372   9373     1  0.0000000  0.7531200  3
   9368   9369   9372   9380     1  0.0000000  0.6508444  3
   9368   9390   9374   9373     1  180.0000771  0.4184000  2
   9368   9390   9374   9373     1  0.0000000  1.6024720  3
   9368   9390   9374   9378     1  180.0000771  5.6484000  1
   9368   9390   9374   9378     1  180.0000771  3.5564000  2
   9368   9390   9374   9378     1  0.0000000  0.4184000  3
   9369   9368   9382   9388     1  0.0000000  0.6508444  3
   9369   9368   9390   9374     1  180.0000771  0.4184000  2
   9369   9368   9390   9374     1  0.0000000  1.6024720  3
   9369   9372   9373   9374     1  180.0000771  0.8368000  1
   9369   9372   9373   9374     1  180.0000771  1.0460000  2
   9369   9372   9373   9374     1  0.0000000  0.7531200  3
   9369   9372   9373   9379     1  0.0000000  0.6508444  3
   9372   9369   9368   9382     1  180.0000771  0.8368000  1
   9372   9369   9368   9382     1  180.0000771  1.0460000  2
   9372   9369   9368   9382     1  0.0000000  0.7531200  3
   9372   9369   9368   9390     1  0.0000000  0.6508444  3
   9372   9373   9374   9378     1  0.0000000  0.6508444  3
   9372   9373   9374   9390     1  0.0000000  0.6508444  3
   9373   9372   9369   9381     1  0.0000000  0.6508444  3
   9374   9373   9372   9380     1  0.0000000  0.6508444  3
   9374   9390   9368   9382     1  180.0000771  0.4184000  2
   9374   9390   9368   9382     1  0.0000000  1.6024720  3
   9378   9374   9373   9379     1  0.0000000  4.9162000  2
   9378   9374   9373   9379     1  0.0000000  0.6024960  3
   9379   9373   9372   9380     1  0.0000000  4.9162000  2
   9379   9373   9372   9380     1  0.0000000  0.6024960  3
   9379   9373   9374   9390     1  0.0000000  4.9162000  2
   9379   9373   9374   9390     1  0.0000000  0.6024960  3
   9380   9372   9369   9381     1  0.0000000  4.9162000  2
   9380   9372   9369   9381     1  0.0000000  0.6024960  3
   9381   9369   9368   9382     1  0.0000000  0.6508444  3
   9381   9369   9368   9390     1  0.0000000  4.9162000  2
   9381   9369   9368   9390     1  0.0000000  0.6024960  3
   9388   9382   9368   9390     1  0.0000000  4.9162000  2
   9388   9382   9368   9390     1  0.0000000  0.6024960  3
   9391   9392   9395   9396     1  180.0000771  0.8368000  1
   9391   9392   9395   9396     1  180.0000771  1.0460000  2
   9391   9392   9395   9396     1  0.0000000  0.7531200  3
   9391   9392   9395   9403     1  0.0000000  0.6508444  3
   9391   9413   9397   9401     1  180.0000771  5.6484000  1
   9391   9413   9397   9401     1  180.0000771  3.5564000  2
   9391   9413   9397   9401     1  0.0000000  0.4184000  3
   9391   9413   9397   9396     1  180.0000771  0.4184000  2
   9391   9413   9397   9396     1  0.0000000  1.6024720  3
   9392   9395   9396   9397     1  180.0000771  0.8368000  1
   9392   9395   9396   9397     1  180.0000771  1.0460000  2
   9392   9395   9396   9397     1  0.0000000  0.7531200  3
   9392   9395   9396   9402     1  0.0000000  0.6508444  3
   9392   9391   9405   9411     1  0.0000000  0.6508444  3
   9392   9391   9413   9397     1  180.0000771  0.4184000  2
   9392   9391   9413   9397     1  0.0000000  1.6024720  3
   9395   9396   9397   9401     1  0.0000000  0.6508444  3
   9395   9396   9397   9413     1  0.0000000  0.6508444  3
   9395   9392   9391   9405     1  180.0000771  0.8368000  1
   9395   9392   9391   9405     1  180.0000771  1.0460000  2
   9395   9392   9391   9405     1  0.0000000  0.7531200  3
   9395   9392   9391   9413     1  0.0000000  0.6508444  3
   9396   9395   9392   9404     1  0.0000000  0.6508444  3
   9397   9413   9391   9405     1  180.0000771  0.4184000  2
   9397   9413   9391   9405     1  0.0000000  1.6024720  3
   9397   9396   9395   9403     1  0.0000000  0.6508444  3
   9401   9397   9396   9402     1  0.0000000  4.9162000  2
   9401   9397   9396   9402     1  0.0000000  0.6024960  3
   9402   9396   9397   9413     1  0.0000000  4.9162000  2
   9402   9396   9397   9413     1  0.0000000  0.6024960  3
   9402   9396   9395   9403     1  0.0000000  4.9162000  2
   9402   9396   9395   9403     1  0.0000000  0.6024960  3
   9403   9395   9392   9404     1  0.0000000  4.9162000  2
   9403   9395   9392   9404     1  0.0000000  0.6024960  3
   9404   9392   9391   9405     1  0.0000000  0.6508444  3
   9404   9392   9391   9413     1  0.0000000  4.9162000  2
   9404   9392   9391   9413     1  0.0000000  0.6024960  3
   9411   9405   9391   9413     1  0.0000000  4.9162000  2
   9411   9405   9391   9413     1  0.0000000  0.6024960  3
   9414   9415   9418   9419     1  180.0000771  0.8368000  1
   9414   9415   9418   9419     1  180.0000771  1.0460000  2
   9414   9415   9418   9419     1  0.0000000  0.7531200  3
   9414   9415   9418   9426     1  0.0000000  0.6508444  3
   9414   9436   9420   9419     1  180.0000771  0.4184000  2
   9414   9436   9420   9419     1  0.0000000  1.6024720  3
   9414   9436   9420   9424     1  180.0000771  5.6484000  1
   9414   9436   9420   9424     1  180.0000771  3.5564000  2
   9414   9436   9420   9424     1  0.0000000  0.4184000  3
   9415   9414   9428   9434     1  0.0000000  0.6508444  3
   9415   9414   9436   9420     1  180.0000771  0.4184000  2
   9415   9414   9436   9420     1  0.0000000  1.6024720  3
   9415   9418   9419   9420     1  180.0000771  0.8368000  1
   9415   9418   9419   9420     1  180.0000771  1.0460000  2
   9415   9418   9419   9420     1  0.0000000  0.7531200  3
   9415   9418   9419   9425     1  0.0000000  0.6508444  3
   9418   9415   9414   9428     1  180.0000771  0.8368000  1
   9418   9415   9414   9428     1  180.0000771  1.0460000  2
   9418   9415   9414   9428     1  0.0000000  0.7531200  3
   9418   9415   9414   9436     1  0.0000000  0.6508444  3
   9418   9419   9420   9424     1  0.0000000  0.6508444  3
   9418   9419   9420   9436     1  0.0000000  0.6508444  3
   9419   9418   9415   9427     1  0.0000000  0.6508444  3
   9420   9419   9418   9426     1  0.0000000  0.6508444  3
   9420   9436   9414   9428     1  180.0000771  0.4184000  2
   9420   9436   9414   9428     1  0.0000000  1.6024720  3
   9424   9420   9419   9425     1  0.0000000  4.9162000  2
   9424   9420   9419   9425     1  0.0000000  0.6024960  3
   9425   9419   9418   9426     1  0.0000000  4.9162000  2
   9425   9419   9418   9426     1  0.0000000  0.6024960  3
   9425   9419   9420   9436     1  0.0000000  4.9162000  2
   9425   9419   9420   9436     1  0.0000000  0.6024960  3
   9426   9418   9415   9427     1  0.0000000  4.9162000  2
   9426   9418   9415   9427     1  0.0000000  0.6024960  3
   9427   9415   9414   9428     1  0.0000000  0.6508444  3
   9427   9415   9414   9436     1  0.0000000  4.9162000  2
   9427   9415   9414   9436     1  0.0000000  0.6024960  3
   9434   9428   9414   9436     1  0.0000000  4.9162000  2
   9434   9428   9414   9436     1  0.0000000  0.6024960  3
   9437   9438   9441   9442     1  180.0000771  0.8368000  1
   9437   9438   9441   9442     1  180.0000771  1.0460000  2
   9437   9438   9441   9442     1  0.0000000  0.7531200  3
   9437   9438   9441   9449     1  0.0000000  0.6508444  3
   9437   9459   9443   9447     1  180.0000771  5.6484000  1
   9437   9459   9443   9447     1  180.0000771  3.5564000  2
   9437   9459   9443   9447     1  0.0000000  0.4184000  3
   9437   9459   9443   9442     1  180.0000771  0.4184000  2
   9437   9459   9443   9442     1  0.0000000  1.6024720  3
   9438   9441   9442   9443     1  180.0000771  0.8368000  1
   9438   9441   9442   9443     1  180.0000771  1.0460000  2
   9438   9441   9442   9443     1  0.0000000  0.7531200  3
   9438   9441   9442   9448     1  0.0000000  0.6508444  3
   9438   9437   9451   9457     1  0.0000000  0.6508444  3
   9438   9437   9459   9443     1  180.0000771  0.4184000  2
   9438   9437   9459   9443     1  0.0000000  1.6024720  3
   9441   9442   9443   9447     1  0.0000000  0.6508444  3
   9441   9442   9443   9459     1  0.0000000  0.6508444  3
   9441   9438   9437   9451     1  180.0000771  0.8368000  1
   9441   9438   9437   9451     1  180.0000771  1.0460000  2
   9441   9438   9437   9451     1  0.0000000  0.7531200  3
   9441   9438   9437   9459     1  0.0000000  0.6508444  3
   9442   9441   9438   9450     1  0.0000000  0.6508444  3
   9443   9459   9437   9451     1  180.0000771  0.4184000  2
   9443   9459   9437   9451     1  0.0000000  1.6024720  3
   9443   9442   9441   9449     1  0.0000000  0.6508444  3
   9447   9443   9442   9448     1  0.0000000  4.9162000  2
   9447   9443   9442   9448     1  0.0000000  0.6024960  3
   9448   9442   9443   9459     1  0.0000000  4.9162000  2
   9448   9442   9443   9459     1  0.0000000  0.6024960  3
   9448   9442   9441   9449     1  0.0000000  4.9162000  2
   9448   9442   9441   9449     1  0.0000000  0.6024960  3
   9449   9441   9438   9450     1  0.0000000  4.9162000  2
   9449   9441   9438   9450     1  0.0000000  0.6024960  3
   9450   9438   9437   9451     1  0.0000000  0.6508444  3
   9450   9438   9437   9459     1  0.0000000  4.9162000  2
   9450   9438   9437   9459     1  0.0000000  0.6024960  3
   9457   9451   9437   9459     1  0.0000000  4.9162000  2
   9457   9451   9437   9459     1  0.0000000  0.6024960  3
   9460   9461   9464   9465     1  180.0000771  0.8368000  1
   9460   9461   9464   9465     1  180.0000771  1.0460000  2
   9460   9461   9464   9465     1  0.0000000  0.7531200  3
   9460   9461   9464   9472     1  0.0000000  0.6508444  3
   9460   9482   9466   9465     1  180.0000771  0.4184000  2
   9460   9482   9466   9465     1  0.0000000  1.6024720  3
   9460   9482   9466   9470     1  180.0000771  5.6484000  1
   9460   9482   9466   9470     1  180.0000771  3.5564000  2
   9460   9482   9466   9470     1  0.0000000  0.4184000  3
   9461   9460   9474   9480     1  0.0000000  0.6508444  3
   9461   9460   9482   9466     1  180.0000771  0.4184000  2
   9461   9460   9482   9466     1  0.0000000  1.6024720  3
   9461   9464   9465   9466     1  180.0000771  0.8368000  1
   9461   9464   9465   9466     1  180.0000771  1.0460000  2
   9461   9464   9465   9466     1  0.0000000  0.7531200  3
   9461   9464   9465   9471     1  0.0000000  0.6508444  3
   9464   9461   9460   9474     1  180.0000771  0.8368000  1
   9464   9461   9460   9474     1  180.0000771  1.0460000  2
   9464   9461   9460   9474     1  0.0000000  0.7531200  3
   9464   9461   9460   9482     1  0.0000000  0.6508444  3
   9464   9465   9466   9470     1  0.0000000  0.6508444  3
   9464   9465   9466   9482     1  0.0000000  0.6508444  3
   9465   9464   9461   9473     1  0.0000000  0.6508444  3
   9466   9465   9464   9472     1  0.0000000  0.6508444  3
   9466   9482   9460   9474     1  180.0000771  0.4184000  2
   9466   9482   9460   9474     1  0.0000000  1.6024720  3
   9470   9466   9465   9471     1  0.0000000  4.9162000  2
   9470   9466   9465   9471     1  0.0000000  0.6024960  3
   9471   9465   9464   9472     1  0.0000000  4.9162000  2
   9471   9465   9464   9472     1  0.0000000  0.6024960  3
   9471   9465   9466   9482     1  0.0000000  4.9162000  2
   9471   9465   9466   9482     1  0.0000000  0.6024960  3
   9472   9464   9461   9473     1  0.0000000  4.9162000  2
   9472   9464   9461   9473     1  0.0000000  0.6024960  3
   9473   9461   9460   9474     1  0.0000000  0.6508444  3
   9473   9461   9460   9482     1  0.0000000  4.9162000  2
   9473   9461   9460   9482     1  0.0000000  0.6024960  3
   9480   9474   9460   9482     1  0.0000000  4.9162000  2
   9480   9474   9460   9482     1  0.0000000  0.6024960  3
   9483   9484   9487   9488     1  180.0000771  0.8368000  1
   9483   9484   9487   9488     1  180.0000771  1.0460000  2
   9483   9484   9487   9488     1  0.0000000  0.7531200  3
   9483   9484   9487   9495     1  0.0000000  0.6508444  3
   9483   9505   9489   9493     1  180.0000771  5.6484000  1
   9483   9505   9489   9493     1  180.0000771  3.5564000  2
   9483   9505   9489   9493     1  0.0000000  0.4184000  3
   9483   9505   9489   9488     1  180.0000771  0.4184000  2
   9483   9505   9489   9488     1  0.0000000  1.6024720  3
   9484   9487   9488   9489     1  180.0000771  0.8368000  1
   9484   9487   9488   9489     1  180.0000771  1.0460000  2
   9484   9487   9488   9489     1  0.0000000  0.7531200  3
   9484   9487   9488   9494     1  0.0000000  0.6508444  3
   9484   9483   9497   9503     1  0.0000000  0.6508444  3
   9484   9483   9505   9489     1  180.0000771  0.4184000  2
   9484   9483   9505   9489     1  0.0000000  1.6024720  3
   9487   9488   9489   9493     1  0.0000000  0.6508444  3
   9487   9488   9489   9505     1  0.0000000  0.6508444  3
   9487   9484   9483   9497     1  180.0000771  0.8368000  1
   9487   9484   9483   9497     1  180.0000771  1.0460000  2
   9487   9484   9483   9497     1  0.0000000  0.7531200  3
   9487   9484   9483   9505     1  0.0000000  0.6508444  3
   9488   9487   9484   9496     1  0.0000000  0.6508444  3
   9489   9505   9483   9497     1  180.0000771  0.4184000  2
   9489   9505   9483   9497     1  0.0000000  1.6024720  3
   9489   9488   9487   9495     1  0.0000000  0.6508444  3
   9493   9489   9488   9494     1  0.0000000  4.9162000  2
   9493   9489   9488   9494     1  0.0000000  0.6024960  3
   9494   9488   9489   9505     1  0.0000000  4.9162000  2
   9494   9488   9489   9505     1  0.0000000  0.6024960  3
   9494   9488   9487   9495     1  0.0000000  4.9162000  2
   9494   9488   9487   9495     1  0.0000000  0.6024960  3
   9495   9487   9484   9496     1  0.0000000  4.9162000  2
   9495   9487   9484   9496     1  0.0000000  0.6024960  3
   9496   9484   9483   9497     1  0.0000000  0.6508444  3
   9496   9484   9483   9505     1  0.0000000  4.9162000  2
   9496   9484   9483   9505     1  0.0000000  0.6024960  3
   9503   9497   9483   9505     1  0.0000000  4.9162000  2
   9503   9497   9483   9505     1  0.0000000  0.6024960  3
   9506   9507   9510   9511     1  180.0000771  0.8368000  1
   9506   9507   9510   9511     1  180.0000771  1.0460000  2
   9506   9507   9510   9511     1  0.0000000  0.7531200  3
   9506   9507   9510   9518     1  0.0000000  0.6508444  3
   9506   9528   9512   9511     1  180.0000771  0.4184000  2
   9506   9528   9512   9511     1  0.0000000  1.6024720  3
   9506   9528   9512   9516     1  180.0000771  5.6484000  1
   9506   9528   9512   9516     1  180.0000771  3.5564000  2
   9506   9528   9512   9516     1  0.0000000  0.4184000  3
   9507   9506   9520   9526     1  0.0000000  0.6508444  3
   9507   9506   9528   9512     1  180.0000771  0.4184000  2
   9507   9506   9528   9512     1  0.0000000  1.6024720  3
   9507   9510   9511   9512     1  180.0000771  0.8368000  1
   9507   9510   9511   9512     1  180.0000771  1.0460000  2
   9507   9510   9511   9512     1  0.0000000  0.7531200  3
   9507   9510   9511   9517     1  0.0000000  0.6508444  3
   9510   9507   9506   9520     1  180.0000771  0.8368000  1
   9510   9507   9506   9520     1  180.0000771  1.0460000  2
   9510   9507   9506   9520     1  0.0000000  0.7531200  3
   9510   9507   9506   9528     1  0.0000000  0.6508444  3
   9510   9511   9512   9516     1  0.0000000  0.6508444  3
   9510   9511   9512   9528     1  0.0000000  0.6508444  3
   9511   9510   9507   9519     1  0.0000000  0.6508444  3
   9512   9511   9510   9518     1  0.0000000  0.6508444  3
   9512   9528   9506   9520     1  180.0000771  0.4184000  2
   9512   9528   9506   9520     1  0.0000000  1.6024720  3
   9516   9512   9511   9517     1  0.0000000  4.9162000  2
   9516   9512   9511   9517     1  0.0000000  0.6024960  3
   9517   9511   9510   9518     1  0.0000000  4.9162000  2
   9517   9511   9510   9518     1  0.0000000  0.6024960  3
   9517   9511   9512   9528     1  0.0000000  4.9162000  2
   9517   9511   9512   9528     1  0.0000000  0.6024960  3
   9518   9510   9507   9519     1  0.0000000  4.9162000  2
   9518   9510   9507   9519     1  0.0000000  0.6024960  3
   9519   9507   9506   9520     1  0.0000000  0.6508444  3
   9519   9507   9506   9528     1  0.0000000  4.9162000  2
   9519   9507   9506   9528     1  0.0000000  0.6024960  3
   9526   9520   9506   9528     1  0.0000000  4.9162000  2
   9526   9520   9506   9528     1  0.0000000  0.6024960  3
   9529   9530   9533   9534     1  180.0000771  0.8368000  1
   9529   9530   9533   9534     1  180.0000771  1.0460000  2
   9529   9530   9533   9534     1  0.0000000  0.7531200  3
   9529   9530   9533   9541     1  0.0000000  0.6508444  3
   9529   9551   9535   9539     1  180.0000771  5.6484000  1
   9529   9551   9535   9539     1  180.0000771  3.5564000  2
   9529   9551   9535   9539     1  0.0000000  0.4184000  3
   9529   9551   9535   9534     1  180.0000771  0.4184000  2
   9529   9551   9535   9534     1  0.0000000  1.6024720  3
   9530   9533   9534   9535     1  180.0000771  0.8368000  1
   9530   9533   9534   9535     1  180.0000771  1.0460000  2
   9530   9533   9534   9535     1  0.0000000  0.7531200  3
   9530   9533   9534   9540     1  0.0000000  0.6508444  3
   9530   9529   9543   9549     1  0.0000000  0.6508444  3
   9530   9529   9551   9535     1  180.0000771  0.4184000  2
   9530   9529   9551   9535     1  0.0000000  1.6024720  3
   9533   9534   9535   9539     1  0.0000000  0.6508444  3
   9533   9534   9535   9551     1  0.0000000  0.6508444  3
   9533   9530   9529   9543     1  180.0000771  0.8368000  1
   9533   9530   9529   9543     1  180.0000771  1.0460000  2
   9533   9530   9529   9543     1  0.0000000  0.7531200  3
   9533   9530   9529   9551     1  0.0000000  0.6508444  3
   9534   9533   9530   9542     1  0.0000000  0.6508444  3
   9535   9551   9529   9543     1  180.0000771  0.4184000  2
   9535   9551   9529   9543     1  0.0000000  1.6024720  3
   9535   9534   9533   9541     1  0.0000000  0.6508444  3
   9539   9535   9534   9540     1  0.0000000  4.9162000  2
   9539   9535   9534   9540     1  0.0000000  0.6024960  3
   9540   9534   9535   9551     1  0.0000000  4.9162000  2
   9540   9534   9535   9551     1  0.0000000  0.6024960  3
   9540   9534   9533   9541     1  0.0000000  4.9162000  2
   9540   9534   9533   9541     1  0.0000000  0.6024960  3
   9541   9533   9530   9542     1  0.0000000  4.9162000  2
   9541   9533   9530   9542     1  0.0000000  0.6024960  3
   9542   9530   9529   9543     1  0.0000000  0.6508444  3
   9542   9530   9529   9551     1  0.0000000  4.9162000  2
   9542   9530   9529   9551     1  0.0000000  0.6024960  3
   9549   9543   9529   9551     1  0.0000000  4.9162000  2
   9549   9543   9529   9551     1  0.0000000  0.6024960  3
   9552   9553   9556   9557     1  180.0000771  0.8368000  1
   9552   9553   9556   9557     1  180.0000771  1.0460000  2
   9552   9553   9556   9557     1  0.0000000  0.7531200  3
   9552   9553   9556   9564     1  0.0000000  0.6508444  3
   9552   9574   9558   9557     1  180.0000771  0.4184000  2
   9552   9574   9558   9557     1  0.0000000  1.6024720  3
   9552   9574   9558   9562     1  180.0000771  5.6484000  1
   9552   9574   9558   9562     1  180.0000771  3.5564000  2
   9552   9574   9558   9562     1  0.0000000  0.4184000  3
   9553   9552   9566   9572     1  0.0000000  0.6508444  3
   9553   9552   9574   9558     1  180.0000771  0.4184000  2
   9553   9552   9574   9558     1  0.0000000  1.6024720  3
   9553   9556   9557   9558     1  180.0000771  0.8368000  1
   9553   9556   9557   9558     1  180.0000771  1.0460000  2
   9553   9556   9557   9558     1  0.0000000  0.7531200  3
   9553   9556   9557   9563     1  0.0000000  0.6508444  3
   9556   9553   9552   9566     1  180.0000771  0.8368000  1
   9556   9553   9552   9566     1  180.0000771  1.0460000  2
   9556   9553   9552   9566     1  0.0000000  0.7531200  3
   9556   9553   9552   9574     1  0.0000000  0.6508444  3
   9556   9557   9558   9562     1  0.0000000  0.6508444  3
   9556   9557   9558   9574     1  0.0000000  0.6508444  3
   9557   9556   9553   9565     1  0.0000000  0.6508444  3
   9558   9557   9556   9564     1  0.0000000  0.6508444  3
   9558   9574   9552   9566     1  180.0000771  0.4184000  2
   9558   9574   9552   9566     1  0.0000000  1.6024720  3
   9562   9558   9557   9563     1  0.0000000  4.9162000  2
   9562   9558   9557   9563     1  0.0000000  0.6024960  3
   9563   9557   9556   9564     1  0.0000000  4.9162000  2
   9563   9557   9556   9564     1  0.0000000  0.6024960  3
   9563   9557   9558   9574     1  0.0000000  4.9162000  2
   9563   9557   9558   9574     1  0.0000000  0.6024960  3
   9564   9556   9553   9565     1  0.0000000  4.9162000  2
   9564   9556   9553   9565     1  0.0000000  0.6024960  3
   9565   9553   9552   9566     1  0.0000000  0.6508444  3
   9565   9553   9552   9574     1  0.0000000  4.9162000  2
   9565   9553   9552   9574     1  0.0000000  0.6024960  3
   9572   9566   9552   9574     1  0.0000000  4.9162000  2
   9572   9566   9552   9574     1  0.0000000  0.6024960  3
   9575   9576   9579   9580     1  180.0000771  0.8368000  1
   9575   9576   9579   9580     1  180.0000771  1.0460000  2
   9575   9576   9579   9580     1  0.0000000  0.7531200  3
   9575   9576   9579   9587     1  0.0000000  0.6508444  3
   9575   9597   9581   9585     1  180.0000771  5.6484000  1
   9575   9597   9581   9585     1  180.0000771  3.5564000  2
   9575   9597   9581   9585     1  0.0000000  0.4184000  3
   9575   9597   9581   9580     1  180.0000771  0.4184000  2
   9575   9597   9581   9580     1  0.0000000  1.6024720  3
   9576   9579   9580   9581     1  180.0000771  0.8368000  1
   9576   9579   9580   9581     1  180.0000771  1.0460000  2
   9576   9579   9580   9581     1  0.0000000  0.7531200  3
   9576   9579   9580   9586     1  0.0000000  0.6508444  3
   9576   9575   9589   9595     1  0.0000000  0.6508444  3
   9576   9575   9597   9581     1  180.0000771  0.4184000  2
   9576   9575   9597   9581     1  0.0000000  1.6024720  3
   9579   9580   9581   9585     1  0.0000000  0.6508444  3
   9579   9580   9581   9597     1  0.0000000  0.6508444  3
   9579   9576   9575   9589     1  180.0000771  0.8368000  1
   9579   9576   9575   9589     1  180.0000771  1.0460000  2
   9579   9576   9575   9589     1  0.0000000  0.7531200  3
   9579   9576   9575   9597     1  0.0000000  0.6508444  3
   9580   9579   9576   9588     1  0.0000000  0.6508444  3
   9581   9597   9575   9589     1  180.0000771  0.4184000  2
   9581   9597   9575   9589     1  0.0000000  1.6024720  3
   9581   9580   9579   9587     1  0.0000000  0.6508444  3
   9585   9581   9580   9586     1  0.0000000  4.9162000  2
   9585   9581   9580   9586     1  0.0000000  0.6024960  3
   9586   9580   9581   9597     1  0.0000000  4.9162000  2
   9586   9580   9581   9597     1  0.0000000  0.6024960  3
   9586   9580   9579   9587     1  0.0000000  4.9162000  2
   9586   9580   9579   9587     1  0.0000000  0.6024960  3
   9587   9579   9576   9588     1  0.0000000  4.9162000  2
   9587   9579   9576   9588     1  0.0000000  0.6024960  3
   9588   9576   9575   9589     1  0.0000000  0.6508444  3
   9588   9576   9575   9597     1  0.0000000  4.9162000  2
   9588   9576   9575   9597     1  0.0000000  0.6024960  3
   9595   9589   9575   9597     1  0.0000000  4.9162000  2
   9595   9589   9575   9597     1  0.0000000  0.6024960  3
   9598   9599   9602   9603     1  180.0000771  0.8368000  1
   9598   9599   9602   9603     1  180.0000771  1.0460000  2
   9598   9599   9602   9603     1  0.0000000  0.7531200  3
   9598   9599   9602   9610     1  0.0000000  0.6508444  3
   9598   9620   9604   9603     1  180.0000771  0.4184000  2
   9598   9620   9604   9603     1  0.0000000  1.6024720  3
   9598   9620   9604   9608     1  180.0000771  5.6484000  1
   9598   9620   9604   9608     1  180.0000771  3.5564000  2
   9598   9620   9604   9608     1  0.0000000  0.4184000  3
   9599   9598   9612   9618     1  0.0000000  0.6508444  3
   9599   9598   9620   9604     1  180.0000771  0.4184000  2
   9599   9598   9620   9604     1  0.0000000  1.6024720  3
   9599   9602   9603   9604     1  180.0000771  0.8368000  1
   9599   9602   9603   9604     1  180.0000771  1.0460000  2
   9599   9602   9603   9604     1  0.0000000  0.7531200  3
   9599   9602   9603   9609     1  0.0000000  0.6508444  3
   9602   9599   9598   9612     1  180.0000771  0.8368000  1
   9602   9599   9598   9612     1  180.0000771  1.0460000  2
   9602   9599   9598   9612     1  0.0000000  0.7531200  3
   9602   9599   9598   9620     1  0.0000000  0.6508444  3
   9602   9603   9604   9608     1  0.0000000  0.6508444  3
   9602   9603   9604   9620     1  0.0000000  0.6508444  3
   9603   9602   9599   9611     1  0.0000000  0.6508444  3
   9604   9603   9602   9610     1  0.0000000  0.6508444  3
   9604   9620   9598   9612     1  180.0000771  0.4184000  2
   9604   9620   9598   9612     1  0.0000000  1.6024720  3
   9608   9604   9603   9609     1  0.0000000  4.9162000  2
   9608   9604   9603   9609     1  0.0000000  0.6024960  3
   9609   9603   9602   9610     1  0.0000000  4.9162000  2
   9609   9603   9602   9610     1  0.0000000  0.6024960  3
   9609   9603   9604   9620     1  0.0000000  4.9162000  2
   9609   9603   9604   9620     1  0.0000000  0.6024960  3
   9610   9602   9599   9611     1  0.0000000  4.9162000  2
   9610   9602   9599   9611     1  0.0000000  0.6024960  3
   9611   9599   9598   9612     1  0.0000000  0.6508444  3
   9611   9599   9598   9620     1  0.0000000  4.9162000  2
   9611   9599   9598   9620     1  0.0000000  0.6024960  3
   9618   9612   9598   9620     1  0.0000000  4.9162000  2
   9618   9612   9598   9620     1  0.0000000  0.6024960  3
   9621   9622   9625   9626     1  180.0000771  0.8368000  1
   9621   9622   9625   9626     1  180.0000771  1.0460000  2
   9621   9622   9625   9626     1  0.0000000  0.7531200  3
   9621   9622   9625   9633     1  0.0000000  0.6508444  3
   9621   9643   9627   9631     1  180.0000771  5.6484000  1
   9621   9643   9627   9631     1  180.0000771  3.5564000  2
   9621   9643   9627   9631     1  0.0000000  0.4184000  3
   9621   9643   9627   9626     1  180.0000771  0.4184000  2
   9621   9643   9627   9626     1  0.0000000  1.6024720  3
   9622   9625   9626   9627     1  180.0000771  0.8368000  1
   9622   9625   9626   9627     1  180.0000771  1.0460000  2
   9622   9625   9626   9627     1  0.0000000  0.7531200  3
   9622   9625   9626   9632     1  0.0000000  0.6508444  3
   9622   9621   9635   9641     1  0.0000000  0.6508444  3
   9622   9621   9643   9627     1  180.0000771  0.4184000  2
   9622   9621   9643   9627     1  0.0000000  1.6024720  3
   9625   9626   9627   9631     1  0.0000000  0.6508444  3
   9625   9626   9627   9643     1  0.0000000  0.6508444  3
   9625   9622   9621   9635     1  180.0000771  0.8368000  1
   9625   9622   9621   9635     1  180.0000771  1.0460000  2
   9625   9622   9621   9635     1  0.0000000  0.7531200  3
   9625   9622   9621   9643     1  0.0000000  0.6508444  3
   9626   9625   9622   9634     1  0.0000000  0.6508444  3
   9627   9643   9621   9635     1  180.0000771  0.4184000  2
   9627   9643   9621   9635     1  0.0000000  1.6024720  3
   9627   9626   9625   9633     1  0.0000000  0.6508444  3
   9631   9627   9626   9632     1  0.0000000  4.9162000  2
   9631   9627   9626   9632     1  0.0000000  0.6024960  3
   9632   9626   9627   9643     1  0.0000000  4.9162000  2
   9632   9626   9627   9643     1  0.0000000  0.6024960  3
   9632   9626   9625   9633     1  0.0000000  4.9162000  2
   9632   9626   9625   9633     1  0.0000000  0.6024960  3
   9633   9625   9622   9634     1  0.0000000  4.9162000  2
   9633   9625   9622   9634     1  0.0000000  0.6024960  3
   9634   9622   9621   9635     1  0.0000000  0.6508444  3
   9634   9622   9621   9643     1  0.0000000  4.9162000  2
   9634   9622   9621   9643     1  0.0000000  0.6024960  3
   9641   9635   9621   9643     1  0.0000000  4.9162000  2
   9641   9635   9621   9643     1  0.0000000  0.6024960  3
   9644   9645   9648   9649     1  180.0000771  0.8368000  1
   9644   9645   9648   9649     1  180.0000771  1.0460000  2
   9644   9645   9648   9649     1  0.0000000  0.7531200  3
   9644   9645   9648   9656     1  0.0000000  0.6508444  3
   9644   9666   9650   9649     1  180.0000771  0.4184000  2
   9644   9666   9650   9649     1  0.0000000  1.6024720  3
   9644   9666   9650   9654     1  180.0000771  5.6484000  1
   9644   9666   9650   9654     1  180.0000771  3.5564000  2
   9644   9666   9650   9654     1  0.0000000  0.4184000  3
   9645   9644   9658   9664     1  0.0000000  0.6508444  3
   9645   9644   9666   9650     1  180.0000771  0.4184000  2
   9645   9644   9666   9650     1  0.0000000  1.6024720  3
   9645   9648   9649   9650     1  180.0000771  0.8368000  1
   9645   9648   9649   9650     1  180.0000771  1.0460000  2
   9645   9648   9649   9650     1  0.0000000  0.7531200  3
   9645   9648   9649   9655     1  0.0000000  0.6508444  3
   9648   9645   9644   9658     1  180.0000771  0.8368000  1
   9648   9645   9644   9658     1  180.0000771  1.0460000  2
   9648   9645   9644   9658     1  0.0000000  0.7531200  3
   9648   9645   9644   9666     1  0.0000000  0.6508444  3
   9648   9649   9650   9654     1  0.0000000  0.6508444  3
   9648   9649   9650   9666     1  0.0000000  0.6508444  3
   9649   9648   9645   9657     1  0.0000000  0.6508444  3
   9650   9649   9648   9656     1  0.0000000  0.6508444  3
   9650   9666   9644   9658     1  180.0000771  0.4184000  2
   9650   9666   9644   9658     1  0.0000000  1.6024720  3
   9654   9650   9649   9655     1  0.0000000  4.9162000  2
   9654   9650   9649   9655     1  0.0000000  0.6024960  3
   9655   9649   9648   9656     1  0.0000000  4.9162000  2
   9655   9649   9648   9656     1  0.0000000  0.6024960  3
   9655   9649   9650   9666     1  0.0000000  4.9162000  2
   9655   9649   9650   9666     1  0.0000000  0.6024960  3
   9656   9648   9645   9657     1  0.0000000  4.9162000  2
   9656   9648   9645   9657     1  0.0000000  0.6024960  3
   9657   9645   9644   9658     1  0.0000000  0.6508444  3
   9657   9645   9644   9666     1  0.0000000  4.9162000  2
   9657   9645   9644   9666     1  0.0000000  0.6024960  3
   9664   9658   9644   9666     1  0.0000000  4.9162000  2
   9664   9658   9644   9666     1  0.0000000  0.6024960  3
   9667   9668   9671   9672     1  180.0000771  0.8368000  1
   9667   9668   9671   9672     1  180.0000771  1.0460000  2
   9667   9668   9671   9672     1  0.0000000  0.7531200  3
   9667   9668   9671   9679     1  0.0000000  0.6508444  3
   9667   9689   9673   9677     1  180.0000771  5.6484000  1
   9667   9689   9673   9677     1  180.0000771  3.5564000  2
   9667   9689   9673   9677     1  0.0000000  0.4184000  3
   9667   9689   9673   9672     1  180.0000771  0.4184000  2
   9667   9689   9673   9672     1  0.0000000  1.6024720  3
   9668   9671   9672   9673     1  180.0000771  0.8368000  1
   9668   9671   9672   9673     1  180.0000771  1.0460000  2
   9668   9671   9672   9673     1  0.0000000  0.7531200  3
   9668   9671   9672   9678     1  0.0000000  0.6508444  3
   9668   9667   9681   9687     1  0.0000000  0.6508444  3
   9668   9667   9689   9673     1  180.0000771  0.4184000  2
   9668   9667   9689   9673     1  0.0000000  1.6024720  3
   9671   9672   9673   9677     1  0.0000000  0.6508444  3
   9671   9672   9673   9689     1  0.0000000  0.6508444  3
   9671   9668   9667   9681     1  180.0000771  0.8368000  1
   9671   9668   9667   9681     1  180.0000771  1.0460000  2
   9671   9668   9667   9681     1  0.0000000  0.7531200  3
   9671   9668   9667   9689     1  0.0000000  0.6508444  3
   9672   9671   9668   9680     1  0.0000000  0.6508444  3
   9673   9689   9667   9681     1  180.0000771  0.4184000  2
   9673   9689   9667   9681     1  0.0000000  1.6024720  3
   9673   9672   9671   9679     1  0.0000000  0.6508444  3
   9677   9673   9672   9678     1  0.0000000  4.9162000  2
   9677   9673   9672   9678     1  0.0000000  0.6024960  3
   9678   9672   9673   9689     1  0.0000000  4.9162000  2
   9678   9672   9673   9689     1  0.0000000  0.6024960  3
   9678   9672   9671   9679     1  0.0000000  4.9162000  2
   9678   9672   9671   9679     1  0.0000000  0.6024960  3
   9679   9671   9668   9680     1  0.0000000  4.9162000  2
   9679   9671   9668   9680     1  0.0000000  0.6024960  3
   9680   9668   9667   9681     1  0.0000000  0.6508444  3
   9680   9668   9667   9689     1  0.0000000  4.9162000  2
   9680   9668   9667   9689     1  0.0000000  0.6024960  3
   9687   9681   9667   9689     1  0.0000000  4.9162000  2
   9687   9681   9667   9689     1  0.0000000  0.6024960  3
   9690   9691   9694   9695     1  180.0000771  0.8368000  1
   9690   9691   9694   9695     1  180.0000771  1.0460000  2
   9690   9691   9694   9695     1  0.0000000  0.7531200  3
   9690   9691   9694   9702     1  0.0000000  0.6508444  3
   9690   9712   9696   9695     1  180.0000771  0.4184000  2
   9690   9712   9696   9695     1  0.0000000  1.6024720  3
   9690   9712   9696   9700     1  180.0000771  5.6484000  1
   9690   9712   9696   9700     1  180.0000771  3.5564000  2
   9690   9712   9696   9700     1  0.0000000  0.4184000  3
   9691   9690   9704   9710     1  0.0000000  0.6508444  3
   9691   9690   9712   9696     1  180.0000771  0.4184000  2
   9691   9690   9712   9696     1  0.0000000  1.6024720  3
   9691   9694   9695   9696     1  180.0000771  0.8368000  1
   9691   9694   9695   9696     1  180.0000771  1.0460000  2
   9691   9694   9695   9696     1  0.0000000  0.7531200  3
   9691   9694   9695   9701     1  0.0000000  0.6508444  3
   9694   9691   9690   9704     1  180.0000771  0.8368000  1
   9694   9691   9690   9704     1  180.0000771  1.0460000  2
   9694   9691   9690   9704     1  0.0000000  0.7531200  3
   9694   9691   9690   9712     1  0.0000000  0.6508444  3
   9694   9695   9696   9700     1  0.0000000  0.6508444  3
   9694   9695   9696   9712     1  0.0000000  0.6508444  3
   9695   9694   9691   9703     1  0.0000000  0.6508444  3
   9696   9695   9694   9702     1  0.0000000  0.6508444  3
   9696   9712   9690   9704     1  180.0000771  0.4184000  2
   9696   9712   9690   9704     1  0.0000000  1.6024720  3
   9700   9696   9695   9701     1  0.0000000  4.9162000  2
   9700   9696   9695   9701     1  0.0000000  0.6024960  3
   9701   9695   9694   9702     1  0.0000000  4.9162000  2
   9701   9695   9694   9702     1  0.0000000  0.6024960  3
   9701   9695   9696   9712     1  0.0000000  4.9162000  2
   9701   9695   9696   9712     1  0.0000000  0.6024960  3
   9702   9694   9691   9703     1  0.0000000  4.9162000  2
   9702   9694   9691   9703     1  0.0000000  0.6024960  3
   9703   9691   9690   9704     1  0.0000000  0.6508444  3
   9703   9691   9690   9712     1  0.0000000  4.9162000  2
   9703   9691   9690   9712     1  0.0000000  0.6024960  3
   9710   9704   9690   9712     1  0.0000000  4.9162000  2
   9710   9704   9690   9712     1  0.0000000  0.6024960  3
   9713   9714   9717   9718     1  180.0000771  0.8368000  1
   9713   9714   9717   9718     1  180.0000771  1.0460000  2
   9713   9714   9717   9718     1  0.0000000  0.7531200  3
   9713   9714   9717   9725     1  0.0000000  0.6508444  3
   9713   9735   9719   9723     1  180.0000771  5.6484000  1
   9713   9735   9719   9723     1  180.0000771  3.5564000  2
   9713   9735   9719   9723     1  0.0000000  0.4184000  3
   9713   9735   9719   9718     1  180.0000771  0.4184000  2
   9713   9735   9719   9718     1  0.0000000  1.6024720  3
   9714   9717   9718   9719     1  180.0000771  0.8368000  1
   9714   9717   9718   9719     1  180.0000771  1.0460000  2
   9714   9717   9718   9719     1  0.0000000  0.7531200  3
   9714   9717   9718   9724     1  0.0000000  0.6508444  3
   9714   9713   9727   9733     1  0.0000000  0.6508444  3
   9714   9713   9735   9719     1  180.0000771  0.4184000  2
   9714   9713   9735   9719     1  0.0000000  1.6024720  3
   9717   9718   9719   9723     1  0.0000000  0.6508444  3
   9717   9718   9719   9735     1  0.0000000  0.6508444  3
   9717   9714   9713   9727     1  180.0000771  0.8368000  1
   9717   9714   9713   9727     1  180.0000771  1.0460000  2
   9717   9714   9713   9727     1  0.0000000  0.7531200  3
   9717   9714   9713   9735     1  0.0000000  0.6508444  3
   9718   9717   9714   9726     1  0.0000000  0.6508444  3
   9719   9735   9713   9727     1  180.0000771  0.4184000  2
   9719   9735   9713   9727     1  0.0000000  1.6024720  3
   9719   9718   9717   9725     1  0.0000000  0.6508444  3
   9723   9719   9718   9724     1  0.0000000  4.9162000  2
   9723   9719   9718   9724     1  0.0000000  0.6024960  3
   9724   9718   9719   9735     1  0.0000000  4.9162000  2
   9724   9718   9719   9735     1  0.0000000  0.6024960  3
   9724   9718   9717   9725     1  0.0000000  4.9162000  2
   9724   9718   9717   9725     1  0.0000000  0.6024960  3
   9725   9717   9714   9726     1  0.0000000  4.9162000  2
   9725   9717   9714   9726     1  0.0000000  0.6024960  3
   9726   9714   9713   9727     1  0.0000000  0.6508444  3
   9726   9714   9713   9735     1  0.0000000  4.9162000  2
   9726   9714   9713   9735     1  0.0000000  0.6024960  3
   9733   9727   9713   9735     1  0.0000000  4.9162000  2
   9733   9727   9713   9735     1  0.0000000  0.6024960  3
   9736   9737   9740   9741     1  180.0000771  0.8368000  1
   9736   9737   9740   9741     1  180.0000771  1.0460000  2
   9736   9737   9740   9741     1  0.0000000  0.7531200  3
   9736   9737   9740   9748     1  0.0000000  0.6508444  3
   9736   9758   9742   9741     1  180.0000771  0.4184000  2
   9736   9758   9742   9741     1  0.0000000  1.6024720  3
   9736   9758   9742   9746     1  180.0000771  5.6484000  1
   9736   9758   9742   9746     1  180.0000771  3.5564000  2
   9736   9758   9742   9746     1  0.0000000  0.4184000  3
   9737   9736   9750   9756     1  0.0000000  0.6508444  3
   9737   9736   9758   9742     1  180.0000771  0.4184000  2
   9737   9736   9758   9742     1  0.0000000  1.6024720  3
   9737   9740   9741   9742     1  180.0000771  0.8368000  1
   9737   9740   9741   9742     1  180.0000771  1.0460000  2
   9737   9740   9741   9742     1  0.0000000  0.7531200  3
   9737   9740   9741   9747     1  0.0000000  0.6508444  3
   9740   9737   9736   9750     1  180.0000771  0.8368000  1
   9740   9737   9736   9750     1  180.0000771  1.0460000  2
   9740   9737   9736   9750     1  0.0000000  0.7531200  3
   9740   9737   9736   9758     1  0.0000000  0.6508444  3
   9740   9741   9742   9746     1  0.0000000  0.6508444  3
   9740   9741   9742   9758     1  0.0000000  0.6508444  3
   9741   9740   9737   9749     1  0.0000000  0.6508444  3
   9742   9741   9740   9748     1  0.0000000  0.6508444  3
   9742   9758   9736   9750     1  180.0000771  0.4184000  2
   9742   9758   9736   9750     1  0.0000000  1.6024720  3
   9746   9742   9741   9747     1  0.0000000  4.9162000  2
   9746   9742   9741   9747     1  0.0000000  0.6024960  3
   9747   9741   9740   9748     1  0.0000000  4.9162000  2
   9747   9741   9740   9748     1  0.0000000  0.6024960  3
   9747   9741   9742   9758     1  0.0000000  4.9162000  2
   9747   9741   9742   9758     1  0.0000000  0.6024960  3
   9748   9740   9737   9749     1  0.0000000  4.9162000  2
   9748   9740   9737   9749     1  0.0000000  0.6024960  3
   9749   9737   9736   9750     1  0.0000000  0.6508444  3
   9749   9737   9736   9758     1  0.0000000  4.9162000  2
   9749   9737   9736   9758     1  0.0000000  0.6024960  3
   9756   9750   9736   9758     1  0.0000000  4.9162000  2
   9756   9750   9736   9758     1  0.0000000  0.6024960  3
   9759   9760   9763   9764     1  180.0000771  0.8368000  1
   9759   9760   9763   9764     1  180.0000771  1.0460000  2
   9759   9760   9763   9764     1  0.0000000  0.7531200  3
   9759   9760   9763   9771     1  0.0000000  0.6508444  3
   9759   9781   9765   9769     1  180.0000771  5.6484000  1
   9759   9781   9765   9769     1  180.0000771  3.5564000  2
   9759   9781   9765   9769     1  0.0000000  0.4184000  3
   9759   9781   9765   9764     1  180.0000771  0.4184000  2
   9759   9781   9765   9764     1  0.0000000  1.6024720  3
   9760   9763   9764   9765     1  180.0000771  0.8368000  1
   9760   9763   9764   9765     1  180.0000771  1.0460000  2
   9760   9763   9764   9765     1  0.0000000  0.7531200  3
   9760   9763   9764   9770     1  0.0000000  0.6508444  3
   9760   9759   9773   9779     1  0.0000000  0.6508444  3
   9760   9759   9781   9765     1  180.0000771  0.4184000  2
   9760   9759   9781   9765     1  0.0000000  1.6024720  3
   9763   9764   9765   9769     1  0.0000000  0.6508444  3
   9763   9764   9765   9781     1  0.0000000  0.6508444  3
   9763   9760   9759   9773     1  180.0000771  0.8368000  1
   9763   9760   9759   9773     1  180.0000771  1.0460000  2
   9763   9760   9759   9773     1  0.0000000  0.7531200  3
   9763   9760   9759   9781     1  0.0000000  0.6508444  3
   9764   9763   9760   9772     1  0.0000000  0.6508444  3
   9765   9781   9759   9773     1  180.0000771  0.4184000  2
   9765   9781   9759   9773     1  0.0000000  1.6024720  3
   9765   9764   9763   9771     1  0.0000000  0.6508444  3
   9769   9765   9764   9770     1  0.0000000  4.9162000  2
   9769   9765   9764   9770     1  0.0000000  0.6024960  3
   9770   9764   9765   9781     1  0.0000000  4.9162000  2
   9770   9764   9765   9781     1  0.0000000  0.6024960  3
   9770   9764   9763   9771     1  0.0000000  4.9162000  2
   9770   9764   9763   9771     1  0.0000000  0.6024960  3
   9771   9763   9760   9772     1  0.0000000  4.9162000  2
   9771   9763   9760   9772     1  0.0000000  0.6024960  3
   9772   9760   9759   9773     1  0.0000000  0.6508444  3
   9772   9760   9759   9781     1  0.0000000  4.9162000  2
   9772   9760   9759   9781     1  0.0000000  0.6024960  3
   9779   9773   9759   9781     1  0.0000000  4.9162000  2
   9779   9773   9759   9781     1  0.0000000  0.6024960  3
   9782   9783   9786   9787     1  180.0000771  0.8368000  1
   9782   9783   9786   9787     1  180.0000771  1.0460000  2
   9782   9783   9786   9787     1  0.0000000  0.7531200  3
   9782   9783   9786   9794     1  0.0000000  0.6508444  3
   9782   9804   9788   9787     1  180.0000771  0.4184000  2
   9782   9804   9788   9787     1  0.0000000  1.6024720  3
   9782   9804   9788   9792     1  180.0000771  5.6484000  1
   9782   9804   9788   9792     1  180.0000771  3.5564000  2
   9782   9804   9788   9792     1  0.0000000  0.4184000  3
   9783   9782   9796   9802     1  0.0000000  0.6508444  3
   9783   9782   9804   9788     1  180.0000771  0.4184000  2
   9783   9782   9804   9788     1  0.0000000  1.6024720  3
   9783   9786   9787   9788     1  180.0000771  0.8368000  1
   9783   9786   9787   9788     1  180.0000771  1.0460000  2
   9783   9786   9787   9788     1  0.0000000  0.7531200  3
   9783   9786   9787   9793     1  0.0000000  0.6508444  3
   9786   9783   9782   9796     1  180.0000771  0.8368000  1
   9786   9783   9782   9796     1  180.0000771  1.0460000  2
   9786   9783   9782   9796     1  0.0000000  0.7531200  3
   9786   9783   9782   9804     1  0.0000000  0.6508444  3
   9786   9787   9788   9792     1  0.0000000  0.6508444  3
   9786   9787   9788   9804     1  0.0000000  0.6508444  3
   9787   9786   9783   9795     1  0.0000000  0.6508444  3
   9788   9787   9786   9794     1  0.0000000  0.6508444  3
   9788   9804   9782   9796     1  180.0000771  0.4184000  2
   9788   9804   9782   9796     1  0.0000000  1.6024720  3
   9792   9788   9787   9793     1  0.0000000  4.9162000  2
   9792   9788   9787   9793     1  0.0000000  0.6024960  3
   9793   9787   9786   9794     1  0.0000000  4.9162000  2
   9793   9787   9786   9794     1  0.0000000  0.6024960  3
   9793   9787   9788   9804     1  0.0000000  4.9162000  2
   9793   9787   9788   9804     1  0.0000000  0.6024960  3
   9794   9786   9783   9795     1  0.0000000  4.9162000  2
   9794   9786   9783   9795     1  0.0000000  0.6024960  3
   9795   9783   9782   9796     1  0.0000000  0.6508444  3
   9795   9783   9782   9804     1  0.0000000  4.9162000  2
   9795   9783   9782   9804     1  0.0000000  0.6024960  3
   9802   9796   9782   9804     1  0.0000000  4.9162000  2
   9802   9796   9782   9804     1  0.0000000  0.6024960  3
   9805   9806   9809   9810     1  180.0000771  0.8368000  1
   9805   9806   9809   9810     1  180.0000771  1.0460000  2
   9805   9806   9809   9810     1  0.0000000  0.7531200  3
   9805   9806   9809   9817     1  0.0000000  0.6508444  3
   9805   9827   9811   9815     1  180.0000771  5.6484000  1
   9805   9827   9811   9815     1  180.0000771  3.5564000  2
   9805   9827   9811   9815     1  0.0000000  0.4184000  3
   9805   9827   9811   9810     1  180.0000771  0.4184000  2
   9805   9827   9811   9810     1  0.0000000  1.6024720  3
   9806   9809   9810   9811     1  180.0000771  0.8368000  1
   9806   9809   9810   9811     1  180.0000771  1.0460000  2
   9806   9809   9810   9811     1  0.0000000  0.7531200  3
   9806   9809   9810   9816     1  0.0000000  0.6508444  3
   9806   9805   9819   9825     1  0.0000000  0.6508444  3
   9806   9805   9827   9811     1  180.0000771  0.4184000  2
   9806   9805   9827   9811     1  0.0000000  1.6024720  3
   9809   9810   9811   9815     1  0.0000000  0.6508444  3
   9809   9810   9811   9827     1  0.0000000  0.6508444  3
   9809   9806   9805   9819     1  180.0000771  0.8368000  1
   9809   9806   9805   9819     1  180.0000771  1.0460000  2
   9809   9806   9805   9819     1  0.0000000  0.7531200  3
   9809   9806   9805   9827     1  0.0000000  0.6508444  3
   9810   9809   9806   9818     1  0.0000000  0.6508444  3
   9811   9827   9805   9819     1  180.0000771  0.4184000  2
   9811   9827   9805   9819     1  0.0000000  1.6024720  3
   9811   9810   9809   9817     1  0.0000000  0.6508444  3
   9815   9811   9810   9816     1  0.0000000  4.9162000  2
   9815   9811   9810   9816     1  0.0000000  0.6024960  3
   9816   9810   9811   9827     1  0.0000000  4.9162000  2
   9816   9810   9811   9827     1  0.0000000  0.6024960  3
   9816   9810   9809   9817     1  0.0000000  4.9162000  2
   9816   9810   9809   9817     1  0.0000000  0.6024960  3
   9817   9809   9806   9818     1  0.0000000  4.9162000  2
   9817   9809   9806   9818     1  0.0000000  0.6024960  3
   9818   9806   9805   9819     1  0.0000000  0.6508444  3
   9818   9806   9805   9827     1  0.0000000  4.9162000  2
   9818   9806   9805   9827     1  0.0000000  0.6024960  3
   9825   9819   9805   9827     1  0.0000000  4.9162000  2
   9825   9819   9805   9827     1  0.0000000  0.6024960  3
   9828   9829   9832   9833     1  180.0000771  0.8368000  1
   9828   9829   9832   9833     1  180.0000771  1.0460000  2
   9828   9829   9832   9833     1  0.0000000  0.7531200  3
   9828   9829   9832   9840     1  0.0000000  0.6508444  3
   9828   9850   9834   9833     1  180.0000771  0.4184000  2
   9828   9850   9834   9833     1  0.0000000  1.6024720  3
   9828   9850   9834   9838     1  180.0000771  5.6484000  1
   9828   9850   9834   9838     1  180.0000771  3.5564000  2
   9828   9850   9834   9838     1  0.0000000  0.4184000  3
   9829   9828   9842   9848     1  0.0000000  0.6508444  3
   9829   9828   9850   9834     1  180.0000771  0.4184000  2
   9829   9828   9850   9834     1  0.0000000  1.6024720  3
   9829   9832   9833   9834     1  180.0000771  0.8368000  1
   9829   9832   9833   9834     1  180.0000771  1.0460000  2
   9829   9832   9833   9834     1  0.0000000  0.7531200  3
   9829   9832   9833   9839     1  0.0000000  0.6508444  3
   9832   9829   9828   9842     1  180.0000771  0.8368000  1
   9832   9829   9828   9842     1  180.0000771  1.0460000  2
   9832   9829   9828   9842     1  0.0000000  0.7531200  3
   9832   9829   9828   9850     1  0.0000000  0.6508444  3
   9832   9833   9834   9838     1  0.0000000  0.6508444  3
   9832   9833   9834   9850     1  0.0000000  0.6508444  3
   9833   9832   9829   9841     1  0.0000000  0.6508444  3
   9834   9833   9832   9840     1  0.0000000  0.6508444  3
   9834   9850   9828   9842     1  180.0000771  0.4184000  2
   9834   9850   9828   9842     1  0.0000000  1.6024720  3
   9838   9834   9833   9839     1  0.0000000  4.9162000  2
   9838   9834   9833   9839     1  0.0000000  0.6024960  3
   9839   9833   9832   9840     1  0.0000000  4.9162000  2
   9839   9833   9832   9840     1  0.0000000  0.6024960  3
   9839   9833   9834   9850     1  0.0000000  4.9162000  2
   9839   9833   9834   9850     1  0.0000000  0.6024960  3
   9840   9832   9829   9841     1  0.0000000  4.9162000  2
   9840   9832   9829   9841     1  0.0000000  0.6024960  3
   9841   9829   9828   9842     1  0.0000000  0.6508444  3
   9841   9829   9828   9850     1  0.0000000  4.9162000  2
   9841   9829   9828   9850     1  0.0000000  0.6024960  3
   9848   9842   9828   9850     1  0.0000000  4.9162000  2
   9848   9842   9828   9850     1  0.0000000  0.6024960  3
   9851   9852   9855   9856     1  180.0000771  0.8368000  1
   9851   9852   9855   9856     1  180.0000771  1.0460000  2
   9851   9852   9855   9856     1  0.0000000  0.7531200  3
   9851   9852   9855   9863     1  0.0000000  0.6508444  3
   9851   9873   9857   9861     1  180.0000771  5.6484000  1
   9851   9873   9857   9861     1  180.0000771  3.5564000  2
   9851   9873   9857   9861     1  0.0000000  0.4184000  3
   9851   9873   9857   9856     1  180.0000771  0.4184000  2
   9851   9873   9857   9856     1  0.0000000  1.6024720  3
   9852   9855   9856   9857     1  180.0000771  0.8368000  1
   9852   9855   9856   9857     1  180.0000771  1.0460000  2
   9852   9855   9856   9857     1  0.0000000  0.7531200  3
   9852   9855   9856   9862     1  0.0000000  0.6508444  3
   9852   9851   9865   9871     1  0.0000000  0.6508444  3
   9852   9851   9873   9857     1  180.0000771  0.4184000  2
   9852   9851   9873   9857     1  0.0000000  1.6024720  3
   9855   9856   9857   9861     1  0.0000000  0.6508444  3
   9855   9856   9857   9873     1  0.0000000  0.6508444  3
   9855   9852   9851   9865     1  180.0000771  0.8368000  1
   9855   9852   9851   9865     1  180.0000771  1.0460000  2
   9855   9852   9851   9865     1  0.0000000  0.7531200  3
   9855   9852   9851   9873     1  0.0000000  0.6508444  3
   9856   9855   9852   9864     1  0.0000000  0.6508444  3
   9857   9873   9851   9865     1  180.0000771  0.4184000  2
   9857   9873   9851   9865     1  0.0000000  1.6024720  3
   9857   9856   9855   9863     1  0.0000000  0.6508444  3
   9861   9857   9856   9862     1  0.0000000  4.9162000  2
   9861   9857   9856   9862     1  0.0000000  0.6024960  3
   9862   9856   9857   9873     1  0.0000000  4.9162000  2
   9862   9856   9857   9873     1  0.0000000  0.6024960  3
   9862   9856   9855   9863     1  0.0000000  4.9162000  2
   9862   9856   9855   9863     1  0.0000000  0.6024960  3
   9863   9855   9852   9864     1  0.0000000  4.9162000  2
   9863   9855   9852   9864     1  0.0000000  0.6024960  3
   9864   9852   9851   9865     1  0.0000000  0.6508444  3
   9864   9852   9851   9873     1  0.0000000  4.9162000  2
   9864   9852   9851   9873     1  0.0000000  0.6024960  3
   9871   9865   9851   9873     1  0.0000000  4.9162000  2
   9871   9865   9851   9873     1  0.0000000  0.6024960  3
   9874   9875   9878   9879     1  180.0000771  0.8368000  1
   9874   9875   9878   9879     1  180.0000771  1.0460000  2
   9874   9875   9878   9879     1  0.0000000  0.7531200  3
   9874   9875   9878   9886     1  0.0000000  0.6508444  3
   9874   9896   9880   9879     1  180.0000771  0.4184000  2
   9874   9896   9880   9879     1  0.0000000  1.6024720  3
   9874   9896   9880   9884     1  180.0000771  5.6484000  1
   9874   9896   9880   9884     1  180.0000771  3.5564000  2
   9874   9896   9880   9884     1  0.0000000  0.4184000  3
   9875   9874   9888   9894     1  0.0000000  0.6508444  3
   9875   9874   9896   9880     1  180.0000771  0.4184000  2
   9875   9874   9896   9880     1  0.0000000  1.6024720  3
   9875   9878   9879   9880     1  180.0000771  0.8368000  1
   9875   9878   9879   9880     1  180.0000771  1.0460000  2
   9875   9878   9879   9880     1  0.0000000  0.7531200  3
   9875   9878   9879   9885     1  0.0000000  0.6508444  3
   9878   9875   9874   9888     1  180.0000771  0.8368000  1
   9878   9875   9874   9888     1  180.0000771  1.0460000  2
   9878   9875   9874   9888     1  0.0000000  0.7531200  3
   9878   9875   9874   9896     1  0.0000000  0.6508444  3
   9878   9879   9880   9884     1  0.0000000  0.6508444  3
   9878   9879   9880   9896     1  0.0000000  0.6508444  3
   9879   9878   9875   9887     1  0.0000000  0.6508444  3
   9880   9879   9878   9886     1  0.0000000  0.6508444  3
   9880   9896   9874   9888     1  180.0000771  0.4184000  2
   9880   9896   9874   9888     1  0.0000000  1.6024720  3
   9884   9880   9879   9885     1  0.0000000  4.9162000  2
   9884   9880   9879   9885     1  0.0000000  0.6024960  3
   9885   9879   9878   9886     1  0.0000000  4.9162000  2
   9885   9879   9878   9886     1  0.0000000  0.6024960  3
   9885   9879   9880   9896     1  0.0000000  4.9162000  2
   9885   9879   9880   9896     1  0.0000000  0.6024960  3
   9886   9878   9875   9887     1  0.0000000  4.9162000  2
   9886   9878   9875   9887     1  0.0000000  0.6024960  3
   9887   9875   9874   9888     1  0.0000000  0.6508444  3
   9887   9875   9874   9896     1  0.0000000  4.9162000  2
   9887   9875   9874   9896     1  0.0000000  0.6024960  3
   9894   9888   9874   9896     1  0.0000000  4.9162000  2
   9894   9888   9874   9896     1  0.0000000  0.6024960  3
   9897   9898   9901   9902     1  180.0000771  0.8368000  1
   9897   9898   9901   9902     1  180.0000771  1.0460000  2
   9897   9898   9901   9902     1  0.0000000  0.7531200  3
   9897   9898   9901   9909     1  0.0000000  0.6508444  3
   9897   9919   9903   9907     1  180.0000771  5.6484000  1
   9897   9919   9903   9907     1  180.0000771  3.5564000  2
   9897   9919   9903   9907     1  0.0000000  0.4184000  3
   9897   9919   9903   9902     1  180.0000771  0.4184000  2
   9897   9919   9903   9902     1  0.0000000  1.6024720  3
   9898   9901   9902   9903     1  180.0000771  0.8368000  1
   9898   9901   9902   9903     1  180.0000771  1.0460000  2
   9898   9901   9902   9903     1  0.0000000  0.7531200  3
   9898   9901   9902   9908     1  0.0000000  0.6508444  3
   9898   9897   9911   9917     1  0.0000000  0.6508444  3
   9898   9897   9919   9903     1  180.0000771  0.4184000  2
   9898   9897   9919   9903     1  0.0000000  1.6024720  3
   9901   9902   9903   9907     1  0.0000000  0.6508444  3
   9901   9902   9903   9919     1  0.0000000  0.6508444  3
   9901   9898   9897   9911     1  180.0000771  0.8368000  1
   9901   9898   9897   9911     1  180.0000771  1.0460000  2
   9901   9898   9897   9911     1  0.0000000  0.7531200  3
   9901   9898   9897   9919     1  0.0000000  0.6508444  3
   9902   9901   9898   9910     1  0.0000000  0.6508444  3
   9903   9919   9897   9911     1  180.0000771  0.4184000  2
   9903   9919   9897   9911     1  0.0000000  1.6024720  3
   9903   9902   9901   9909     1  0.0000000  0.6508444  3
   9907   9903   9902   9908     1  0.0000000  4.9162000  2
   9907   9903   9902   9908     1  0.0000000  0.6024960  3
   9908   9902   9903   9919     1  0.0000000  4.9162000  2
   9908   9902   9903   9919     1  0.0000000  0.6024960  3
   9908   9902   9901   9909     1  0.0000000  4.9162000  2
   9908   9902   9901   9909     1  0.0000000  0.6024960  3
   9909   9901   9898   9910     1  0.0000000  4.9162000  2
   9909   9901   9898   9910     1  0.0000000  0.6024960  3
   9910   9898   9897   9911     1  0.0000000  0.6508444  3
   9910   9898   9897   9919     1  0.0000000  4.9162000  2
   9910   9898   9897   9919     1  0.0000000  0.6024960  3
   9917   9911   9897   9919     1  0.0000000  4.9162000  2
   9917   9911   9897   9919     1  0.0000000  0.6024960  3
   9920   9921   9924   9925     1  180.0000771  0.8368000  1
   9920   9921   9924   9925     1  180.0000771  1.0460000  2
   9920   9921   9924   9925     1  0.0000000  0.7531200  3
   9920   9921   9924   9932     1  0.0000000  0.6508444  3
   9920   9942   9926   9925     1  180.0000771  0.4184000  2
   9920   9942   9926   9925     1  0.0000000  1.6024720  3
   9920   9942   9926   9930     1  180.0000771  5.6484000  1
   9920   9942   9926   9930     1  180.0000771  3.5564000  2
   9920   9942   9926   9930     1  0.0000000  0.4184000  3
   9921   9920   9934   9940     1  0.0000000  0.6508444  3
   9921   9920   9942   9926     1  180.0000771  0.4184000  2
   9921   9920   9942   9926     1  0.0000000  1.6024720  3
   9921   9924   9925   9926     1  180.0000771  0.8368000  1
   9921   9924   9925   9926     1  180.0000771  1.0460000  2
   9921   9924   9925   9926     1  0.0000000  0.7531200  3
   9921   9924   9925   9931     1  0.0000000  0.6508444  3
   9924   9921   9920   9934     1  180.0000771  0.8368000  1
   9924   9921   9920   9934     1  180.0000771  1.0460000  2
   9924   9921   9920   9934     1  0.0000000  0.7531200  3
   9924   9921   9920   9942     1  0.0000000  0.6508444  3
   9924   9925   9926   9930     1  0.0000000  0.6508444  3
   9924   9925   9926   9942     1  0.0000000  0.6508444  3
   9925   9924   9921   9933     1  0.0000000  0.6508444  3
   9926   9925   9924   9932     1  0.0000000  0.6508444  3
   9926   9942   9920   9934     1  180.0000771  0.4184000  2
   9926   9942   9920   9934     1  0.0000000  1.6024720  3
   9930   9926   9925   9931     1  0.0000000  4.9162000  2
   9930   9926   9925   9931     1  0.0000000  0.6024960  3
   9931   9925   9924   9932     1  0.0000000  4.9162000  2
   9931   9925   9924   9932     1  0.0000000  0.6024960  3
   9931   9925   9926   9942     1  0.0000000  4.9162000  2
   9931   9925   9926   9942     1  0.0000000  0.6024960  3
   9932   9924   9921   9933     1  0.0000000  4.9162000  2
   9932   9924   9921   9933     1  0.0000000  0.6024960  3
   9933   9921   9920   9934     1  0.0000000  0.6508444  3
   9933   9921   9920   9942     1  0.0000000  4.9162000  2
   9933   9921   9920   9942     1  0.0000000  0.6024960  3
   9940   9934   9920   9942     1  0.0000000  4.9162000  2
   9940   9934   9920   9942     1  0.0000000  0.6024960  3
   9943   9944   9947   9948     1  180.0000771  0.8368000  1
   9943   9944   9947   9948     1  180.0000771  1.0460000  2
   9943   9944   9947   9948     1  0.0000000  0.7531200  3
   9943   9944   9947   9955     1  0.0000000  0.6508444  3
   9943   9965   9949   9953     1  180.0000771  5.6484000  1
   9943   9965   9949   9953     1  180.0000771  3.5564000  2
   9943   9965   9949   9953     1  0.0000000  0.4184000  3
   9943   9965   9949   9948     1  180.0000771  0.4184000  2
   9943   9965   9949   9948     1  0.0000000  1.6024720  3
   9944   9947   9948   9949     1  180.0000771  0.8368000  1
   9944   9947   9948   9949     1  180.0000771  1.0460000  2
   9944   9947   9948   9949     1  0.0000000  0.7531200  3
   9944   9947   9948   9954     1  0.0000000  0.6508444  3
   9944   9943   9957   9963     1  0.0000000  0.6508444  3
   9944   9943   9965   9949     1  180.0000771  0.4184000  2
   9944   9943   9965   9949     1  0.0000000  1.6024720  3
   9947   9948   9949   9953     1  0.0000000  0.6508444  3
   9947   9948   9949   9965     1  0.0000000  0.6508444  3
   9947   9944   9943   9957     1  180.0000771  0.8368000  1
   9947   9944   9943   9957     1  180.0000771  1.0460000  2
   9947   9944   9943   9957     1  0.0000000  0.7531200  3
   9947   9944   9943   9965     1  0.0000000  0.6508444  3
   9948   9947   9944   9956     1  0.0000000  0.6508444  3
   9949   9965   9943   9957     1  180.0000771  0.4184000  2
   9949   9965   9943   9957     1  0.0000000  1.6024720  3
   9949   9948   9947   9955     1  0.0000000  0.6508444  3
   9953   9949   9948   9954     1  0.0000000  4.9162000  2
   9953   9949   9948   9954     1  0.0000000  0.6024960  3
   9954   9948   9949   9965     1  0.0000000  4.9162000  2
   9954   9948   9949   9965     1  0.0000000  0.6024960  3
   9954   9948   9947   9955     1  0.0000000  4.9162000  2
   9954   9948   9947   9955     1  0.0000000  0.6024960  3
   9955   9947   9944   9956     1  0.0000000  4.9162000  2
   9955   9947   9944   9956     1  0.0000000  0.6024960  3
   9956   9944   9943   9957     1  0.0000000  0.6508444  3
   9956   9944   9943   9965     1  0.0000000  4.9162000  2
   9956   9944   9943   9965     1  0.0000000  0.6024960  3
   9963   9957   9943   9965     1  0.0000000  4.9162000  2
   9963   9957   9943   9965     1  0.0000000  0.6024960  3
   9966   9967   9970   9971     1  180.0000771  0.8368000  1
   9966   9967   9970   9971     1  180.0000771  1.0460000  2
   9966   9967   9970   9971     1  0.0000000  0.7531200  3
   9966   9967   9970   9978     1  0.0000000  0.6508444  3
   9966   9988   9972   9971     1  180.0000771  0.4184000  2
   9966   9988   9972   9971     1  0.0000000  1.6024720  3
   9966   9988   9972   9976     1  180.0000771  5.6484000  1
   9966   9988   9972   9976     1  180.0000771  3.5564000  2
   9966   9988   9972   9976     1  0.0000000  0.4184000  3
   9967   9966   9980   9986     1  0.0000000  0.6508444  3
   9967   9966   9988   9972     1  180.0000771  0.4184000  2
   9967   9966   9988   9972     1  0.0000000  1.6024720  3
   9967   9970   9971   9972     1  180.0000771  0.8368000  1
   9967   9970   9971   9972     1  180.0000771  1.0460000  2
   9967   9970   9971   9972     1  0.0000000  0.7531200  3
   9967   9970   9971   9977     1  0.0000000  0.6508444  3
   9970   9967   9966   9980     1  180.0000771  0.8368000  1
   9970   9967   9966   9980     1  180.0000771  1.0460000  2
   9970   9967   9966   9980     1  0.0000000  0.7531200  3
   9970   9967   9966   9988     1  0.0000000  0.6508444  3
   9970   9971   9972   9976     1  0.0000000  0.6508444  3
   9970   9971   9972   9988     1  0.0000000  0.6508444  3
   9971   9970   9967   9979     1  0.0000000  0.6508444  3
   9972   9971   9970   9978     1  0.0000000  0.6508444  3
   9972   9988   9966   9980     1  180.0000771  0.4184000  2
   9972   9988   9966   9980     1  0.0000000  1.6024720  3
   9976   9972   9971   9977     1  0.0000000  4.9162000  2
   9976   9972   9971   9977     1  0.0000000  0.6024960  3
   9977   9971   9970   9978     1  0.0000000  4.9162000  2
   9977   9971   9970   9978     1  0.0000000  0.6024960  3
   9977   9971   9972   9988     1  0.0000000  4.9162000  2
   9977   9971   9972   9988     1  0.0000000  0.6024960  3
   9978   9970   9967   9979     1  0.0000000  4.9162000  2
   9978   9970   9967   9979     1  0.0000000  0.6024960  3
   9979   9967   9966   9980     1  0.0000000  0.6508444  3
   9979   9967   9966   9988     1  0.0000000  4.9162000  2
   9979   9967   9966   9988     1  0.0000000  0.6024960  3
   9986   9980   9966   9988     1  0.0000000  4.9162000  2
   9986   9980   9966   9988     1  0.0000000  0.6024960  3
   9989   9990   9993   9994     1  180.0000771  0.8368000  1
   9989   9990   9993   9994     1  180.0000771  1.0460000  2
   9989   9990   9993   9994     1  0.0000000  0.7531200  3
   9989   9990   9993  10001     1  0.0000000  0.6508444  3
   9989  10011   9995   9999     1  180.0000771  5.6484000  1
   9989  10011   9995   9999     1  180.0000771  3.5564000  2
   9989  10011   9995   9999     1  0.0000000  0.4184000  3
   9989  10011   9995   9994     1  180.0000771  0.4184000  2
   9989  10011   9995   9994     1  0.0000000  1.6024720  3
   9990   9993   9994   9995     1  180.0000771  0.8368000  1
   9990   9993   9994   9995     1  180.0000771  1.0460000  2
   9990   9993   9994   9995     1  0.0000000  0.7531200  3
   9990   9993   9994  10000     1  0.0000000  0.6508444  3
   9990   9989  10003  10009     1  0.0000000  0.6508444  3
   9990   9989  10011   9995     1  180.0000771  0.4184000  2
   9990   9989  10011   9995     1  0.0000000  1.6024720  3
   9993   9994   9995   9999     1  0.0000000  0.6508444  3
   9993   9994   9995  10011     1  0.0000000  0.6508444  3
   9993   9990   9989  10003     1  180.0000771  0.8368000  1
   9993   9990   9989  10003     1  180.0000771  1.0460000  2
   9993   9990   9989  10003     1  0.0000000  0.7531200  3
   9993   9990   9989  10011     1  0.0000000  0.6508444  3
   9994   9993   9990  10002     1  0.0000000  0.6508444  3
   9995  10011   9989  10003     1  180.0000771  0.4184000  2
   9995  10011   9989  10003     1  0.0000000  1.6024720  3
   9995   9994   9993  10001     1  0.0000000  0.6508444  3
   9999   9995   9994  10000     1  0.0000000  4.9162000  2
   9999   9995   9994  10000     1  0.0000000  0.6024960  3
  10000   9994   9995  10011     1  0.0000000  4.9162000  2
  10000   9994   9995  10011     1  0.0000000  0.6024960  3
  10000   9994   9993  10001     1  0.0000000  4.9162000  2
  10000   9994   9993  10001     1  0.0000000  0.6024960  3
  10001   9993   9990  10002     1  0.0000000  4.9162000  2
  10001   9993   9990  10002     1  0.0000000  0.6024960  3
  10002   9990   9989  10003     1  0.0000000  0.6508444  3
  10002   9990   9989  10011     1  0.0000000  4.9162000  2
  10002   9990   9989  10011     1  0.0000000  0.6024960  3
  10009  10003   9989  10011     1  0.0000000  4.9162000  2
  10009  10003   9989  10011     1  0.0000000  0.6024960  3
  10012  10013  10016  10017     1  180.0000771  0.8368000  1
  10012  10013  10016  10017     1  180.0000771  1.0460000  2
  10012  10013  10016  10017     1  0.0000000  0.7531200  3
  10012  10013  10016  10024     1  0.0000000  0.6508444  3
  10012  10034  10018  10017     1  180.0000771  0.4184000  2
  10012  10034  10018  10017     1  0.0000000  1.6024720  3
  10012  10034  10018  10022     1  180.0000771  5.6484000  1
  10012  10034  10018  10022     1  180.0000771  3.5564000  2
  10012  10034  10018  10022     1  0.0000000  0.4184000  3
  10013  10012  10026  10032     1  0.0000000  0.6508444  3
  10013  10012  10034  10018     1  180.0000771  0.4184000  2
  10013  10012  10034  10018     1  0.0000000  1.6024720  3
  10013  10016  10017  10018     1  180.0000771  0.8368000  1
  10013  10016  10017  10018     1  180.0000771  1.0460000  2
  10013  10016  10017  10018     1  0.0000000  0.7531200  3
  10013  10016  10017  10023     1  0.0000000  0.6508444  3
  10016  10013  10012  10026     1  180.0000771  0.8368000  1
  10016  10013  10012  10026     1  180.0000771  1.0460000  2
  10016  10013  10012  10026     1  0.0000000  0.7531200  3
  10016  10013  10012  10034     1  0.0000000  0.6508444  3
  10016  10017  10018  10022     1  0.0000000  0.6508444  3
  10016  10017  10018  10034     1  0.0000000  0.6508444  3
  10017  10016  10013  10025     1  0.0000000  0.6508444  3
  10018  10017  10016  10024     1  0.0000000  0.6508444  3
  10018  10034  10012  10026     1  180.0000771  0.4184000  2
  10018  10034  10012  10026     1  0.0000000  1.6024720  3
  10022  10018  10017  10023     1  0.0000000  4.9162000  2
  10022  10018  10017  10023     1  0.0000000  0.6024960  3
  10023  10017  10016  10024     1  0.0000000  4.9162000  2
  10023  10017  10016  10024     1  0.0000000  0.6024960  3
  10023  10017  10018  10034     1  0.0000000  4.9162000  2
  10023  10017  10018  10034     1  0.0000000  0.6024960  3
  10024  10016  10013  10025     1  0.0000000  4.9162000  2
  10024  10016  10013  10025     1  0.0000000  0.6024960  3
  10025  10013  10012  10026     1  0.0000000  0.6508444  3
  10025  10013  10012  10034     1  0.0000000  4.9162000  2
  10025  10013  10012  10034     1  0.0000000  0.6024960  3
  10032  10026  10012  10034     1  0.0000000  4.9162000  2
  10032  10026  10012  10034     1  0.0000000  0.6024960  3
  10035  10036  10039  10040     1  180.0000771  0.8368000  1
  10035  10036  10039  10040     1  180.0000771  1.0460000  2
  10035  10036  10039  10040     1  0.0000000  0.7531200  3
  10035  10036  10039  10047     1  0.0000000  0.6508444  3
  10035  10057  10041  10045     1  180.0000771  5.6484000  1
  10035  10057  10041  10045     1  180.0000771  3.5564000  2
  10035  10057  10041  10045     1  0.0000000  0.4184000  3
  10035  10057  10041  10040     1  180.0000771  0.4184000  2
  10035  10057  10041  10040     1  0.0000000  1.6024720  3
  10036  10039  10040  10041     1  180.0000771  0.8368000  1
  10036  10039  10040  10041     1  180.0000771  1.0460000  2
  10036  10039  10040  10041     1  0.0000000  0.7531200  3
  10036  10039  10040  10046     1  0.0000000  0.6508444  3
  10036  10035  10049  10055     1  0.0000000  0.6508444  3
  10036  10035  10057  10041     1  180.0000771  0.4184000  2
  10036  10035  10057  10041     1  0.0000000  1.6024720  3
  10039  10040  10041  10045     1  0.0000000  0.6508444  3
  10039  10040  10041  10057     1  0.0000000  0.6508444  3
  10039  10036  10035  10049     1  180.0000771  0.8368000  1
  10039  10036  10035  10049     1  180.0000771  1.0460000  2
  10039  10036  10035  10049     1  0.0000000  0.7531200  3
  10039  10036  10035  10057     1  0.0000000  0.6508444  3
  10040  10039  10036  10048     1  0.0000000  0.6508444  3
  10041  10057  10035  10049     1  180.0000771  0.4184000  2
  10041  10057  10035  10049     1  0.0000000  1.6024720  3
  10041  10040  10039  10047     1  0.0000000  0.6508444  3
  10045  10041  10040  10046     1  0.0000000  4.9162000  2
  10045  10041  10040  10046     1  0.0000000  0.6024960  3
  10046  10040  10041  10057     1  0.0000000  4.9162000  2
  10046  10040  10041  10057     1  0.0000000  0.6024960  3
  10046  10040  10039  10047     1  0.0000000  4.9162000  2
  10046  10040  10039  10047     1  0.0000000  0.6024960  3
  10047  10039  10036  10048     1  0.0000000  4.9162000  2
  10047  10039  10036  10048     1  0.0000000  0.6024960  3
  10048  10036  10035  10049     1  0.0000000  0.6508444  3
  10048  10036  10035  10057     1  0.0000000  4.9162000  2
  10048  10036  10035  10057     1  0.0000000  0.6024960  3
  10055  10049  10035  10057     1  0.0000000  4.9162000  2
  10055  10049  10035  10057     1  0.0000000  0.6024960  3
  10058  10059  10062  10063     1  180.0000771  0.8368000  1
  10058  10059  10062  10063     1  180.0000771  1.0460000  2
  10058  10059  10062  10063     1  0.0000000  0.7531200  3
  10058  10059  10062  10070     1  0.0000000  0.6508444  3
  10058  10080  10064  10063     1  180.0000771  0.4184000  2
  10058  10080  10064  10063     1  0.0000000  1.6024720  3
  10058  10080  10064  10068     1  180.0000771  5.6484000  1
  10058  10080  10064  10068     1  180.0000771  3.5564000  2
  10058  10080  10064  10068     1  0.0000000  0.4184000  3
  10059  10058  10072  10078     1  0.0000000  0.6508444  3
  10059  10058  10080  10064     1  180.0000771  0.4184000  2
  10059  10058  10080  10064     1  0.0000000  1.6024720  3
  10059  10062  10063  10064     1  180.0000771  0.8368000  1
  10059  10062  10063  10064     1  180.0000771  1.0460000  2
  10059  10062  10063  10064     1  0.0000000  0.7531200  3
  10059  10062  10063  10069     1  0.0000000  0.6508444  3
  10062  10059  10058  10072     1  180.0000771  0.8368000  1
  10062  10059  10058  10072     1  180.0000771  1.0460000  2
  10062  10059  10058  10072     1  0.0000000  0.7531200  3
  10062  10059  10058  10080     1  0.0000000  0.6508444  3
  10062  10063  10064  10068     1  0.0000000  0.6508444  3
  10062  10063  10064  10080     1  0.0000000  0.6508444  3
  10063  10062  10059  10071     1  0.0000000  0.6508444  3
  10064  10063  10062  10070     1  0.0000000  0.6508444  3
  10064  10080  10058  10072     1  180.0000771  0.4184000  2
  10064  10080  10058  10072     1  0.0000000  1.6024720  3
  10068  10064  10063  10069     1  0.0000000  4.9162000  2
  10068  10064  10063  10069     1  0.0000000  0.6024960  3
  10069  10063  10062  10070     1  0.0000000  4.9162000  2
  10069  10063  10062  10070     1  0.0000000  0.6024960  3
  10069  10063  10064  10080     1  0.0000000  4.9162000  2
  10069  10063  10064  10080     1  0.0000000  0.6024960  3
  10070  10062  10059  10071     1  0.0000000  4.9162000  2
  10070  10062  10059  10071     1  0.0000000  0.6024960  3
  10071  10059  10058  10072     1  0.0000000  0.6508444  3
  10071  10059  10058  10080     1  0.0000000  4.9162000  2
  10071  10059  10058  10080     1  0.0000000  0.6024960  3
  10078  10072  10058  10080     1  0.0000000  4.9162000  2
  10078  10072  10058  10080     1  0.0000000  0.6024960  3
  10081  10082  10085  10086     1  180.0000771  0.8368000  1
  10081  10082  10085  10086     1  180.0000771  1.0460000  2
  10081  10082  10085  10086     1  0.0000000  0.7531200  3
  10081  10082  10085  10093     1  0.0000000  0.6508444  3
  10081  10103  10087  10091     1  180.0000771  5.6484000  1
  10081  10103  10087  10091     1  180.0000771  3.5564000  2
  10081  10103  10087  10091     1  0.0000000  0.4184000  3
  10081  10103  10087  10086     1  180.0000771  0.4184000  2
  10081  10103  10087  10086     1  0.0000000  1.6024720  3
  10082  10085  10086  10087     1  180.0000771  0.8368000  1
  10082  10085  10086  10087     1  180.0000771  1.0460000  2
  10082  10085  10086  10087     1  0.0000000  0.7531200  3
  10082  10085  10086  10092     1  0.0000000  0.6508444  3
  10082  10081  10095  10101     1  0.0000000  0.6508444  3
  10082  10081  10103  10087     1  180.0000771  0.4184000  2
  10082  10081  10103  10087     1  0.0000000  1.6024720  3
  10085  10086  10087  10091     1  0.0000000  0.6508444  3
  10085  10086  10087  10103     1  0.0000000  0.6508444  3
  10085  10082  10081  10095     1  180.0000771  0.8368000  1
  10085  10082  10081  10095     1  180.0000771  1.0460000  2
  10085  10082  10081  10095     1  0.0000000  0.7531200  3
  10085  10082  10081  10103     1  0.0000000  0.6508444  3
  10086  10085  10082  10094     1  0.0000000  0.6508444  3
  10087  10103  10081  10095     1  180.0000771  0.4184000  2
  10087  10103  10081  10095     1  0.0000000  1.6024720  3
  10087  10086  10085  10093     1  0.0000000  0.6508444  3
  10091  10087  10086  10092     1  0.0000000  4.9162000  2
  10091  10087  10086  10092     1  0.0000000  0.6024960  3
  10092  10086  10087  10103     1  0.0000000  4.9162000  2
  10092  10086  10087  10103     1  0.0000000  0.6024960  3
  10092  10086  10085  10093     1  0.0000000  4.9162000  2
  10092  10086  10085  10093     1  0.0000000  0.6024960  3
  10093  10085  10082  10094     1  0.0000000  4.9162000  2
  10093  10085  10082  10094     1  0.0000000  0.6024960  3
  10094  10082  10081  10095     1  0.0000000  0.6508444  3
  10094  10082  10081  10103     1  0.0000000  4.9162000  2
  10094  10082  10081  10103     1  0.0000000  0.6024960  3
  10101  10095  10081  10103     1  0.0000000  4.9162000  2
  10101  10095  10081  10103     1  0.0000000  0.6024960  3
  10104  10105  10108  10109     1  180.0000771  0.8368000  1
  10104  10105  10108  10109     1  180.0000771  1.0460000  2
  10104  10105  10108  10109     1  0.0000000  0.7531200  3
  10104  10105  10108  10116     1  0.0000000  0.6508444  3
  10104  10126  10110  10109     1  180.0000771  0.4184000  2
  10104  10126  10110  10109     1  0.0000000  1.6024720  3
  10104  10126  10110  10114     1  180.0000771  5.6484000  1
  10104  10126  10110  10114     1  180.0000771  3.5564000  2
  10104  10126  10110  10114     1  0.0000000  0.4184000  3
  10105  10104  10118  10124     1  0.0000000  0.6508444  3
  10105  10104  10126  10110     1  180.0000771  0.4184000  2
  10105  10104  10126  10110     1  0.0000000  1.6024720  3
  10105  10108  10109  10110     1  180.0000771  0.8368000  1
  10105  10108  10109  10110     1  180.0000771  1.0460000  2
  10105  10108  10109  10110     1  0.0000000  0.7531200  3
  10105  10108  10109  10115     1  0.0000000  0.6508444  3
  10108  10105  10104  10118     1  180.0000771  0.8368000  1
  10108  10105  10104  10118     1  180.0000771  1.0460000  2
  10108  10105  10104  10118     1  0.0000000  0.7531200  3
  10108  10105  10104  10126     1  0.0000000  0.6508444  3
  10108  10109  10110  10114     1  0.0000000  0.6508444  3
  10108  10109  10110  10126     1  0.0000000  0.6508444  3
  10109  10108  10105  10117     1  0.0000000  0.6508444  3
  10110  10109  10108  10116     1  0.0000000  0.6508444  3
  10110  10126  10104  10118     1  180.0000771  0.4184000  2
  10110  10126  10104  10118     1  0.0000000  1.6024720  3
  10114  10110  10109  10115     1  0.0000000  4.9162000  2
  10114  10110  10109  10115     1  0.0000000  0.6024960  3
  10115  10109  10108  10116     1  0.0000000  4.9162000  2
  10115  10109  10108  10116     1  0.0000000  0.6024960  3
  10115  10109  10110  10126     1  0.0000000  4.9162000  2
  10115  10109  10110  10126     1  0.0000000  0.6024960  3
  10116  10108  10105  10117     1  0.0000000  4.9162000  2
  10116  10108  10105  10117     1  0.0000000  0.6024960  3
  10117  10105  10104  10118     1  0.0000000  0.6508444  3
  10117  10105  10104  10126     1  0.0000000  4.9162000  2
  10117  10105  10104  10126     1  0.0000000  0.6024960  3
  10124  10118  10104  10126     1  0.0000000  4.9162000  2
  10124  10118  10104  10126     1  0.0000000  0.6024960  3
  10127  10128  10131  10132     1  180.0000771  0.8368000  1
  10127  10128  10131  10132     1  180.0000771  1.0460000  2
  10127  10128  10131  10132     1  0.0000000  0.7531200  3
  10127  10128  10131  10139     1  0.0000000  0.6508444  3
  10127  10149  10133  10137     1  180.0000771  5.6484000  1
  10127  10149  10133  10137     1  180.0000771  3.5564000  2
  10127  10149  10133  10137     1  0.0000000  0.4184000  3
  10127  10149  10133  10132     1  180.0000771  0.4184000  2
  10127  10149  10133  10132     1  0.0000000  1.6024720  3
  10128  10131  10132  10133     1  180.0000771  0.8368000  1
  10128  10131  10132  10133     1  180.0000771  1.0460000  2
  10128  10131  10132  10133     1  0.0000000  0.7531200  3
  10128  10131  10132  10138     1  0.0000000  0.6508444  3
  10128  10127  10141  10147     1  0.0000000  0.6508444  3
  10128  10127  10149  10133     1  180.0000771  0.4184000  2
  10128  10127  10149  10133     1  0.0000000  1.6024720  3
  10131  10132  10133  10137     1  0.0000000  0.6508444  3
  10131  10132  10133  10149     1  0.0000000  0.6508444  3
  10131  10128  10127  10141     1  180.0000771  0.8368000  1
  10131  10128  10127  10141     1  180.0000771  1.0460000  2
  10131  10128  10127  10141     1  0.0000000  0.7531200  3
  10131  10128  10127  10149     1  0.0000000  0.6508444  3
  10132  10131  10128  10140     1  0.0000000  0.6508444  3
  10133  10149  10127  10141     1  180.0000771  0.4184000  2
  10133  10149  10127  10141     1  0.0000000  1.6024720  3
  10133  10132  10131  10139     1  0.0000000  0.6508444  3
  10137  10133  10132  10138     1  0.0000000  4.9162000  2
  10137  10133  10132  10138     1  0.0000000  0.6024960  3
  10138  10132  10133  10149     1  0.0000000  4.9162000  2
  10138  10132  10133  10149     1  0.0000000  0.6024960  3
  10138  10132  10131  10139     1  0.0000000  4.9162000  2
  10138  10132  10131  10139     1  0.0000000  0.6024960  3
  10139  10131  10128  10140     1  0.0000000  4.9162000  2
  10139  10131  10128  10140     1  0.0000000  0.6024960  3
  10140  10128  10127  10141     1  0.0000000  0.6508444  3
  10140  10128  10127  10149     1  0.0000000  4.9162000  2
  10140  10128  10127  10149     1  0.0000000  0.6024960  3
  10147  10141  10127  10149     1  0.0000000  4.9162000  2
  10147  10141  10127  10149     1  0.0000000  0.6024960  3
  10150  10151  10154  10155     1  180.0000771  0.8368000  1
  10150  10151  10154  10155     1  180.0000771  1.0460000  2
  10150  10151  10154  10155     1  0.0000000  0.7531200  3
  10150  10151  10154  10162     1  0.0000000  0.6508444  3
  10150  10172  10156  10155     1  180.0000771  0.4184000  2
  10150  10172  10156  10155     1  0.0000000  1.6024720  3
  10150  10172  10156  10160     1  180.0000771  5.6484000  1
  10150  10172  10156  10160     1  180.0000771  3.5564000  2
  10150  10172  10156  10160     1  0.0000000  0.4184000  3
  10151  10150  10164  10170     1  0.0000000  0.6508444  3
  10151  10150  10172  10156     1  180.0000771  0.4184000  2
  10151  10150  10172  10156     1  0.0000000  1.6024720  3
  10151  10154  10155  10156     1  180.0000771  0.8368000  1
  10151  10154  10155  10156     1  180.0000771  1.0460000  2
  10151  10154  10155  10156     1  0.0000000  0.7531200  3
  10151  10154  10155  10161     1  0.0000000  0.6508444  3
  10154  10151  10150  10164     1  180.0000771  0.8368000  1
  10154  10151  10150  10164     1  180.0000771  1.0460000  2
  10154  10151  10150  10164     1  0.0000000  0.7531200  3
  10154  10151  10150  10172     1  0.0000000  0.6508444  3
  10154  10155  10156  10160     1  0.0000000  0.6508444  3
  10154  10155  10156  10172     1  0.0000000  0.6508444  3
  10155  10154  10151  10163     1  0.0000000  0.6508444  3
  10156  10155  10154  10162     1  0.0000000  0.6508444  3
  10156  10172  10150  10164     1  180.0000771  0.4184000  2
  10156  10172  10150  10164     1  0.0000000  1.6024720  3
  10160  10156  10155  10161     1  0.0000000  4.9162000  2
  10160  10156  10155  10161     1  0.0000000  0.6024960  3
  10161  10155  10154  10162     1  0.0000000  4.9162000  2
  10161  10155  10154  10162     1  0.0000000  0.6024960  3
  10161  10155  10156  10172     1  0.0000000  4.9162000  2
  10161  10155  10156  10172     1  0.0000000  0.6024960  3
  10162  10154  10151  10163     1  0.0000000  4.9162000  2
  10162  10154  10151  10163     1  0.0000000  0.6024960  3
  10163  10151  10150  10164     1  0.0000000  0.6508444  3
  10163  10151  10150  10172     1  0.0000000  4.9162000  2
  10163  10151  10150  10172     1  0.0000000  0.6024960  3
  10170  10164  10150  10172     1  0.0000000  4.9162000  2
  10170  10164  10150  10172     1  0.0000000  0.6024960  3
  10173  10174  10177  10178     1  180.0000771  0.8368000  1
  10173  10174  10177  10178     1  180.0000771  1.0460000  2
  10173  10174  10177  10178     1  0.0000000  0.7531200  3
  10173  10174  10177  10185     1  0.0000000  0.6508444  3
  10173  10195  10179  10183     1  180.0000771  5.6484000  1
  10173  10195  10179  10183     1  180.0000771  3.5564000  2
  10173  10195  10179  10183     1  0.0000000  0.4184000  3
  10173  10195  10179  10178     1  180.0000771  0.4184000  2
  10173  10195  10179  10178     1  0.0000000  1.6024720  3
  10174  10177  10178  10179     1  180.0000771  0.8368000  1
  10174  10177  10178  10179     1  180.0000771  1.0460000  2
  10174  10177  10178  10179     1  0.0000000  0.7531200  3
  10174  10177  10178  10184     1  0.0000000  0.6508444  3
  10174  10173  10187  10193     1  0.0000000  0.6508444  3
  10174  10173  10195  10179     1  180.0000771  0.4184000  2
  10174  10173  10195  10179     1  0.0000000  1.6024720  3
  10177  10178  10179  10183     1  0.0000000  0.6508444  3
  10177  10178  10179  10195     1  0.0000000  0.6508444  3
  10177  10174  10173  10187     1  180.0000771  0.8368000  1
  10177  10174  10173  10187     1  180.0000771  1.0460000  2
  10177  10174  10173  10187     1  0.0000000  0.7531200  3
  10177  10174  10173  10195     1  0.0000000  0.6508444  3
  10178  10177  10174  10186     1  0.0000000  0.6508444  3
  10179  10195  10173  10187     1  180.0000771  0.4184000  2
  10179  10195  10173  10187     1  0.0000000  1.6024720  3
  10179  10178  10177  10185     1  0.0000000  0.6508444  3
  10183  10179  10178  10184     1  0.0000000  4.9162000  2
  10183  10179  10178  10184     1  0.0000000  0.6024960  3
  10184  10178  10179  10195     1  0.0000000  4.9162000  2
  10184  10178  10179  10195     1  0.0000000  0.6024960  3
  10184  10178  10177  10185     1  0.0000000  4.9162000  2
  10184  10178  10177  10185     1  0.0000000  0.6024960  3
  10185  10177  10174  10186     1  0.0000000  4.9162000  2
  10185  10177  10174  10186     1  0.0000000  0.6024960  3
  10186  10174  10173  10187     1  0.0000000  0.6508444  3
  10186  10174  10173  10195     1  0.0000000  4.9162000  2
  10186  10174  10173  10195     1  0.0000000  0.6024960  3
  10193  10187  10173  10195     1  0.0000000  4.9162000  2
  10193  10187  10173  10195     1  0.0000000  0.6024960  3
  10196  10197  10200  10201     1  180.0000771  0.8368000  1
  10196  10197  10200  10201     1  180.0000771  1.0460000  2
  10196  10197  10200  10201     1  0.0000000  0.7531200  3
  10196  10197  10200  10208     1  0.0000000  0.6508444  3
  10196  10218  10202  10201     1  180.0000771  0.4184000  2
  10196  10218  10202  10201     1  0.0000000  1.6024720  3
  10196  10218  10202  10206     1  180.0000771  5.6484000  1
  10196  10218  10202  10206     1  180.0000771  3.5564000  2
  10196  10218  10202  10206     1  0.0000000  0.4184000  3
  10197  10196  10210  10216     1  0.0000000  0.6508444  3
  10197  10196  10218  10202     1  180.0000771  0.4184000  2
  10197  10196  10218  10202     1  0.0000000  1.6024720  3
  10197  10200  10201  10202     1  180.0000771  0.8368000  1
  10197  10200  10201  10202     1  180.0000771  1.0460000  2
  10197  10200  10201  10202     1  0.0000000  0.7531200  3
  10197  10200  10201  10207     1  0.0000000  0.6508444  3
  10200  10197  10196  10210     1  180.0000771  0.8368000  1
  10200  10197  10196  10210     1  180.0000771  1.0460000  2
  10200  10197  10196  10210     1  0.0000000  0.7531200  3
  10200  10197  10196  10218     1  0.0000000  0.6508444  3
  10200  10201  10202  10206     1  0.0000000  0.6508444  3
  10200  10201  10202  10218     1  0.0000000  0.6508444  3
  10201  10200  10197  10209     1  0.0000000  0.6508444  3
  10202  10201  10200  10208     1  0.0000000  0.6508444  3
  10202  10218  10196  10210     1  180.0000771  0.4184000  2
  10202  10218  10196  10210     1  0.0000000  1.6024720  3
  10206  10202  10201  10207     1  0.0000000  4.9162000  2
  10206  10202  10201  10207     1  0.0000000  0.6024960  3
  10207  10201  10200  10208     1  0.0000000  4.9162000  2
  10207  10201  10200  10208     1  0.0000000  0.6024960  3
  10207  10201  10202  10218     1  0.0000000  4.9162000  2
  10207  10201  10202  10218     1  0.0000000  0.6024960  3
  10208  10200  10197  10209     1  0.0000000  4.9162000  2
  10208  10200  10197  10209     1  0.0000000  0.6024960  3
  10209  10197  10196  10210     1  0.0000000  0.6508444  3
  10209  10197  10196  10218     1  0.0000000  4.9162000  2
  10209  10197  10196  10218     1  0.0000000  0.6024960  3
  10216  10210  10196  10218     1  0.0000000  4.9162000  2
  10216  10210  10196  10218     1  0.0000000  0.6024960  3
  10219  10220  10223  10224     1  180.0000771  0.8368000  1
  10219  10220  10223  10224     1  180.0000771  1.0460000  2
  10219  10220  10223  10224     1  0.0000000  0.7531200  3
  10219  10220  10223  10231     1  0.0000000  0.6508444  3
  10219  10241  10225  10229     1  180.0000771  5.6484000  1
  10219  10241  10225  10229     1  180.0000771  3.5564000  2
  10219  10241  10225  10229     1  0.0000000  0.4184000  3
  10219  10241  10225  10224     1  180.0000771  0.4184000  2
  10219  10241  10225  10224     1  0.0000000  1.6024720  3
  10220  10223  10224  10225     1  180.0000771  0.8368000  1
  10220  10223  10224  10225     1  180.0000771  1.0460000  2
  10220  10223  10224  10225     1  0.0000000  0.7531200  3
  10220  10223  10224  10230     1  0.0000000  0.6508444  3
  10220  10219  10233  10239     1  0.0000000  0.6508444  3
  10220  10219  10241  10225     1  180.0000771  0.4184000  2
  10220  10219  10241  10225     1  0.0000000  1.6024720  3
  10223  10224  10225  10229     1  0.0000000  0.6508444  3
  10223  10224  10225  10241     1  0.0000000  0.6508444  3
  10223  10220  10219  10233     1  180.0000771  0.8368000  1
  10223  10220  10219  10233     1  180.0000771  1.0460000  2
  10223  10220  10219  10233     1  0.0000000  0.7531200  3
  10223  10220  10219  10241     1  0.0000000  0.6508444  3
  10224  10223  10220  10232     1  0.0000000  0.6508444  3
  10225  10241  10219  10233     1  180.0000771  0.4184000  2
  10225  10241  10219  10233     1  0.0000000  1.6024720  3
  10225  10224  10223  10231     1  0.0000000  0.6508444  3
  10229  10225  10224  10230     1  0.0000000  4.9162000  2
  10229  10225  10224  10230     1  0.0000000  0.6024960  3
  10230  10224  10225  10241     1  0.0000000  4.9162000  2
  10230  10224  10225  10241     1  0.0000000  0.6024960  3
  10230  10224  10223  10231     1  0.0000000  4.9162000  2
  10230  10224  10223  10231     1  0.0000000  0.6024960  3
  10231  10223  10220  10232     1  0.0000000  4.9162000  2
  10231  10223  10220  10232     1  0.0000000  0.6024960  3
  10232  10220  10219  10233     1  0.0000000  0.6508444  3
  10232  10220  10219  10241     1  0.0000000  4.9162000  2
  10232  10220  10219  10241     1  0.0000000  0.6024960  3
  10239  10233  10219  10241     1  0.0000000  4.9162000  2
  10239  10233  10219  10241     1  0.0000000  0.6024960  3
  10242  10243  10246  10247     1  180.0000771  0.8368000  1
  10242  10243  10246  10247     1  180.0000771  1.0460000  2
  10242  10243  10246  10247     1  0.0000000  0.7531200  3
  10242  10243  10246  10254     1  0.0000000  0.6508444  3
  10242  10264  10248  10247     1  180.0000771  0.4184000  2
  10242  10264  10248  10247     1  0.0000000  1.6024720  3
  10242  10264  10248  10252     1  180.0000771  5.6484000  1
  10242  10264  10248  10252     1  180.0000771  3.5564000  2
  10242  10264  10248  10252     1  0.0000000  0.4184000  3
  10243  10242  10256  10262     1  0.0000000  0.6508444  3
  10243  10242  10264  10248     1  180.0000771  0.4184000  2
  10243  10242  10264  10248     1  0.0000000  1.6024720  3
  10243  10246  10247  10248     1  180.0000771  0.8368000  1
  10243  10246  10247  10248     1  180.0000771  1.0460000  2
  10243  10246  10247  10248     1  0.0000000  0.7531200  3
  10243  10246  10247  10253     1  0.0000000  0.6508444  3
  10246  10243  10242  10256     1  180.0000771  0.8368000  1
  10246  10243  10242  10256     1  180.0000771  1.0460000  2
  10246  10243  10242  10256     1  0.0000000  0.7531200  3
  10246  10243  10242  10264     1  0.0000000  0.6508444  3
  10246  10247  10248  10252     1  0.0000000  0.6508444  3
  10246  10247  10248  10264     1  0.0000000  0.6508444  3
  10247  10246  10243  10255     1  0.0000000  0.6508444  3
  10248  10247  10246  10254     1  0.0000000  0.6508444  3
  10248  10264  10242  10256     1  180.0000771  0.4184000  2
  10248  10264  10242  10256     1  0.0000000  1.6024720  3
  10252  10248  10247  10253     1  0.0000000  4.9162000  2
  10252  10248  10247  10253     1  0.0000000  0.6024960  3
  10253  10247  10246  10254     1  0.0000000  4.9162000  2
  10253  10247  10246  10254     1  0.0000000  0.6024960  3
  10253  10247  10248  10264     1  0.0000000  4.9162000  2
  10253  10247  10248  10264     1  0.0000000  0.6024960  3
  10254  10246  10243  10255     1  0.0000000  4.9162000  2
  10254  10246  10243  10255     1  0.0000000  0.6024960  3
  10255  10243  10242  10256     1  0.0000000  0.6508444  3
  10255  10243  10242  10264     1  0.0000000  4.9162000  2
  10255  10243  10242  10264     1  0.0000000  0.6024960  3
  10262  10256  10242  10264     1  0.0000000  4.9162000  2
  10262  10256  10242  10264     1  0.0000000  0.6024960  3
  10265  10266  10269  10270     1  180.0000771  0.8368000  1
  10265  10266  10269  10270     1  180.0000771  1.0460000  2
  10265  10266  10269  10270     1  0.0000000  0.7531200  3
  10265  10266  10269  10277     1  0.0000000  0.6508444  3
  10265  10287  10271  10275     1  180.0000771  5.6484000  1
  10265  10287  10271  10275     1  180.0000771  3.5564000  2
  10265  10287  10271  10275     1  0.0000000  0.4184000  3
  10265  10287  10271  10270     1  180.0000771  0.4184000  2
  10265  10287  10271  10270     1  0.0000000  1.6024720  3
  10266  10269  10270  10271     1  180.0000771  0.8368000  1
  10266  10269  10270  10271     1  180.0000771  1.0460000  2
  10266  10269  10270  10271     1  0.0000000  0.7531200  3
  10266  10269  10270  10276     1  0.0000000  0.6508444  3
  10266  10265  10279  10285     1  0.0000000  0.6508444  3
  10266  10265  10287  10271     1  180.0000771  0.4184000  2
  10266  10265  10287  10271     1  0.0000000  1.6024720  3
  10269  10270  10271  10275     1  0.0000000  0.6508444  3
  10269  10270  10271  10287     1  0.0000000  0.6508444  3
  10269  10266  10265  10279     1  180.0000771  0.8368000  1
  10269  10266  10265  10279     1  180.0000771  1.0460000  2
  10269  10266  10265  10279     1  0.0000000  0.7531200  3
  10269  10266  10265  10287     1  0.0000000  0.6508444  3
  10270  10269  10266  10278     1  0.0000000  0.6508444  3
  10271  10287  10265  10279     1  180.0000771  0.4184000  2
  10271  10287  10265  10279     1  0.0000000  1.6024720  3
  10271  10270  10269  10277     1  0.0000000  0.6508444  3
  10275  10271  10270  10276     1  0.0000000  4.9162000  2
  10275  10271  10270  10276     1  0.0000000  0.6024960  3
  10276  10270  10271  10287     1  0.0000000  4.9162000  2
  10276  10270  10271  10287     1  0.0000000  0.6024960  3
  10276  10270  10269  10277     1  0.0000000  4.9162000  2
  10276  10270  10269  10277     1  0.0000000  0.6024960  3
  10277  10269  10266  10278     1  0.0000000  4.9162000  2
  10277  10269  10266  10278     1  0.0000000  0.6024960  3
  10278  10266  10265  10279     1  0.0000000  0.6508444  3
  10278  10266  10265  10287     1  0.0000000  4.9162000  2
  10278  10266  10265  10287     1  0.0000000  0.6024960  3
  10285  10279  10265  10287     1  0.0000000  4.9162000  2
  10285  10279  10265  10287     1  0.0000000  0.6024960  3
  10288  10289  10292  10293     1  180.0000771  0.8368000  1
  10288  10289  10292  10293     1  180.0000771  1.0460000  2
  10288  10289  10292  10293     1  0.0000000  0.7531200  3
  10288  10289  10292  10300     1  0.0000000  0.6508444  3
  10288  10310  10294  10293     1  180.0000771  0.4184000  2
  10288  10310  10294  10293     1  0.0000000  1.6024720  3
  10288  10310  10294  10298     1  180.0000771  5.6484000  1
  10288  10310  10294  10298     1  180.0000771  3.5564000  2
  10288  10310  10294  10298     1  0.0000000  0.4184000  3
  10289  10288  10302  10308     1  0.0000000  0.6508444  3
  10289  10288  10310  10294     1  180.0000771  0.4184000  2
  10289  10288  10310  10294     1  0.0000000  1.6024720  3
  10289  10292  10293  10294     1  180.0000771  0.8368000  1
  10289  10292  10293  10294     1  180.0000771  1.0460000  2
  10289  10292  10293  10294     1  0.0000000  0.7531200  3
  10289  10292  10293  10299     1  0.0000000  0.6508444  3
  10292  10289  10288  10302     1  180.0000771  0.8368000  1
  10292  10289  10288  10302     1  180.0000771  1.0460000  2
  10292  10289  10288  10302     1  0.0000000  0.7531200  3
  10292  10289  10288  10310     1  0.0000000  0.6508444  3
  10292  10293  10294  10298     1  0.0000000  0.6508444  3
  10292  10293  10294  10310     1  0.0000000  0.6508444  3
  10293  10292  10289  10301     1  0.0000000  0.6508444  3
  10294  10293  10292  10300     1  0.0000000  0.6508444  3
  10294  10310  10288  10302     1  180.0000771  0.4184000  2
  10294  10310  10288  10302     1  0.0000000  1.6024720  3
  10298  10294  10293  10299     1  0.0000000  4.9162000  2
  10298  10294  10293  10299     1  0.0000000  0.6024960  3
  10299  10293  10292  10300     1  0.0000000  4.9162000  2
  10299  10293  10292  10300     1  0.0000000  0.6024960  3
  10299  10293  10294  10310     1  0.0000000  4.9162000  2
  10299  10293  10294  10310     1  0.0000000  0.6024960  3
  10300  10292  10289  10301     1  0.0000000  4.9162000  2
  10300  10292  10289  10301     1  0.0000000  0.6024960  3
  10301  10289  10288  10302     1  0.0000000  0.6508444  3
  10301  10289  10288  10310     1  0.0000000  4.9162000  2
  10301  10289  10288  10310     1  0.0000000  0.6024960  3
  10308  10302  10288  10310     1  0.0000000  4.9162000  2
  10308  10302  10288  10310     1  0.0000000  0.6024960  3
  10311  10312  10315  10316     1  180.0000771  0.8368000  1
  10311  10312  10315  10316     1  180.0000771  1.0460000  2
  10311  10312  10315  10316     1  0.0000000  0.7531200  3
  10311  10312  10315  10323     1  0.0000000  0.6508444  3
  10311  10333  10317  10321     1  180.0000771  5.6484000  1
  10311  10333  10317  10321     1  180.0000771  3.5564000  2
  10311  10333  10317  10321     1  0.0000000  0.4184000  3
  10311  10333  10317  10316     1  180.0000771  0.4184000  2
  10311  10333  10317  10316     1  0.0000000  1.6024720  3
  10312  10315  10316  10317     1  180.0000771  0.8368000  1
  10312  10315  10316  10317     1  180.0000771  1.0460000  2
  10312  10315  10316  10317     1  0.0000000  0.7531200  3
  10312  10315  10316  10322     1  0.0000000  0.6508444  3
  10312  10311  10325  10331     1  0.0000000  0.6508444  3
  10312  10311  10333  10317     1  180.0000771  0.4184000  2
  10312  10311  10333  10317     1  0.0000000  1.6024720  3
  10315  10316  10317  10321     1  0.0000000  0.6508444  3
  10315  10316  10317  10333     1  0.0000000  0.6508444  3
  10315  10312  10311  10325     1  180.0000771  0.8368000  1
  10315  10312  10311  10325     1  180.0000771  1.0460000  2
  10315  10312  10311  10325     1  0.0000000  0.7531200  3
  10315  10312  10311  10333     1  0.0000000  0.6508444  3
  10316  10315  10312  10324     1  0.0000000  0.6508444  3
  10317  10333  10311  10325     1  180.0000771  0.4184000  2
  10317  10333  10311  10325     1  0.0000000  1.6024720  3
  10317  10316  10315  10323     1  0.0000000  0.6508444  3
  10321  10317  10316  10322     1  0.0000000  4.9162000  2
  10321  10317  10316  10322     1  0.0000000  0.6024960  3
  10322  10316  10317  10333     1  0.0000000  4.9162000  2
  10322  10316  10317  10333     1  0.0000000  0.6024960  3
  10322  10316  10315  10323     1  0.0000000  4.9162000  2
  10322  10316  10315  10323     1  0.0000000  0.6024960  3
  10323  10315  10312  10324     1  0.0000000  4.9162000  2
  10323  10315  10312  10324     1  0.0000000  0.6024960  3
  10324  10312  10311  10325     1  0.0000000  0.6508444  3
  10324  10312  10311  10333     1  0.0000000  4.9162000  2
  10324  10312  10311  10333     1  0.0000000  0.6024960  3
  10331  10325  10311  10333     1  0.0000000  4.9162000  2
  10331  10325  10311  10333     1  0.0000000  0.6024960  3
  10334  10335  10338  10339     1  180.0000771  0.8368000  1
  10334  10335  10338  10339     1  180.0000771  1.0460000  2
  10334  10335  10338  10339     1  0.0000000  0.7531200  3
  10334  10335  10338  10346     1  0.0000000  0.6508444  3
  10334  10356  10340  10339     1  180.0000771  0.4184000  2
  10334  10356  10340  10339     1  0.0000000  1.6024720  3
  10334  10356  10340  10344     1  180.0000771  5.6484000  1
  10334  10356  10340  10344     1  180.0000771  3.5564000  2
  10334  10356  10340  10344     1  0.0000000  0.4184000  3
  10335  10334  10348  10354     1  0.0000000  0.6508444  3
  10335  10334  10356  10340     1  180.0000771  0.4184000  2
  10335  10334  10356  10340     1  0.0000000  1.6024720  3
  10335  10338  10339  10340     1  180.0000771  0.8368000  1
  10335  10338  10339  10340     1  180.0000771  1.0460000  2
  10335  10338  10339  10340     1  0.0000000  0.7531200  3
  10335  10338  10339  10345     1  0.0000000  0.6508444  3
  10338  10335  10334  10348     1  180.0000771  0.8368000  1
  10338  10335  10334  10348     1  180.0000771  1.0460000  2
  10338  10335  10334  10348     1  0.0000000  0.7531200  3
  10338  10335  10334  10356     1  0.0000000  0.6508444  3
  10338  10339  10340  10344     1  0.0000000  0.6508444  3
  10338  10339  10340  10356     1  0.0000000  0.6508444  3
  10339  10338  10335  10347     1  0.0000000  0.6508444  3
  10340  10339  10338  10346     1  0.0000000  0.6508444  3
  10340  10356  10334  10348     1  180.0000771  0.4184000  2
  10340  10356  10334  10348     1  0.0000000  1.6024720  3
  10344  10340  10339  10345     1  0.0000000  4.9162000  2
  10344  10340  10339  10345     1  0.0000000  0.6024960  3
  10345  10339  10338  10346     1  0.0000000  4.9162000  2
  10345  10339  10338  10346     1  0.0000000  0.6024960  3
  10345  10339  10340  10356     1  0.0000000  4.9162000  2
  10345  10339  10340  10356     1  0.0000000  0.6024960  3
  10346  10338  10335  10347     1  0.0000000  4.9162000  2
  10346  10338  10335  10347     1  0.0000000  0.6024960  3
  10347  10335  10334  10348     1  0.0000000  0.6508444  3
  10347  10335  10334  10356     1  0.0000000  4.9162000  2
  10347  10335  10334  10356     1  0.0000000  0.6024960  3
  10354  10348  10334  10356     1  0.0000000  4.9162000  2
  10354  10348  10334  10356     1  0.0000000  0.6024960  3
  10357  10358  10361  10362     1  180.0000771  0.8368000  1
  10357  10358  10361  10362     1  180.0000771  1.0460000  2
  10357  10358  10361  10362     1  0.0000000  0.7531200  3
  10357  10358  10361  10369     1  0.0000000  0.6508444  3
  10357  10379  10363  10367     1  180.0000771  5.6484000  1
  10357  10379  10363  10367     1  180.0000771  3.5564000  2
  10357  10379  10363  10367     1  0.0000000  0.4184000  3
  10357  10379  10363  10362     1  180.0000771  0.4184000  2
  10357  10379  10363  10362     1  0.0000000  1.6024720  3
  10358  10361  10362  10363     1  180.0000771  0.8368000  1
  10358  10361  10362  10363     1  180.0000771  1.0460000  2
  10358  10361  10362  10363     1  0.0000000  0.7531200  3
  10358  10361  10362  10368     1  0.0000000  0.6508444  3
  10358  10357  10371  10377     1  0.0000000  0.6508444  3
  10358  10357  10379  10363     1  180.0000771  0.4184000  2
  10358  10357  10379  10363     1  0.0000000  1.6024720  3
  10361  10362  10363  10367     1  0.0000000  0.6508444  3
  10361  10362  10363  10379     1  0.0000000  0.6508444  3
  10361  10358  10357  10371     1  180.0000771  0.8368000  1
  10361  10358  10357  10371     1  180.0000771  1.0460000  2
  10361  10358  10357  10371     1  0.0000000  0.7531200  3
  10361  10358  10357  10379     1  0.0000000  0.6508444  3
  10362  10361  10358  10370     1  0.0000000  0.6508444  3
  10363  10379  10357  10371     1  180.0000771  0.4184000  2
  10363  10379  10357  10371     1  0.0000000  1.6024720  3
  10363  10362  10361  10369     1  0.0000000  0.6508444  3
  10367  10363  10362  10368     1  0.0000000  4.9162000  2
  10367  10363  10362  10368     1  0.0000000  0.6024960  3
  10368  10362  10363  10379     1  0.0000000  4.9162000  2
  10368  10362  10363  10379     1  0.0000000  0.6024960  3
  10368  10362  10361  10369     1  0.0000000  4.9162000  2
  10368  10362  10361  10369     1  0.0000000  0.6024960  3
  10369  10361  10358  10370     1  0.0000000  4.9162000  2
  10369  10361  10358  10370     1  0.0000000  0.6024960  3
  10370  10358  10357  10371     1  0.0000000  0.6508444  3
  10370  10358  10357  10379     1  0.0000000  4.9162000  2
  10370  10358  10357  10379     1  0.0000000  0.6024960  3
  10377  10371  10357  10379     1  0.0000000  4.9162000  2
  10377  10371  10357  10379     1  0.0000000  0.6024960  3
  10380  10381  10384  10385     1  180.0000771  0.8368000  1
  10380  10381  10384  10385     1  180.0000771  1.0460000  2
  10380  10381  10384  10385     1  0.0000000  0.7531200  3
  10380  10381  10384  10392     1  0.0000000  0.6508444  3
  10380  10402  10386  10385     1  180.0000771  0.4184000  2
  10380  10402  10386  10385     1  0.0000000  1.6024720  3
  10380  10402  10386  10390     1  180.0000771  5.6484000  1
  10380  10402  10386  10390     1  180.0000771  3.5564000  2
  10380  10402  10386  10390     1  0.0000000  0.4184000  3
  10381  10380  10394  10400     1  0.0000000  0.6508444  3
  10381  10380  10402  10386     1  180.0000771  0.4184000  2
  10381  10380  10402  10386     1  0.0000000  1.6024720  3
  10381  10384  10385  10386     1  180.0000771  0.8368000  1
  10381  10384  10385  10386     1  180.0000771  1.0460000  2
  10381  10384  10385  10386     1  0.0000000  0.7531200  3
  10381  10384  10385  10391     1  0.0000000  0.6508444  3
  10384  10381  10380  10394     1  180.0000771  0.8368000  1
  10384  10381  10380  10394     1  180.0000771  1.0460000  2
  10384  10381  10380  10394     1  0.0000000  0.7531200  3
  10384  10381  10380  10402     1  0.0000000  0.6508444  3
  10384  10385  10386  10390     1  0.0000000  0.6508444  3
  10384  10385  10386  10402     1  0.0000000  0.6508444  3
  10385  10384  10381  10393     1  0.0000000  0.6508444  3
  10386  10385  10384  10392     1  0.0000000  0.6508444  3
  10386  10402  10380  10394     1  180.0000771  0.4184000  2
  10386  10402  10380  10394     1  0.0000000  1.6024720  3
  10390  10386  10385  10391     1  0.0000000  4.9162000  2
  10390  10386  10385  10391     1  0.0000000  0.6024960  3
  10391  10385  10384  10392     1  0.0000000  4.9162000  2
  10391  10385  10384  10392     1  0.0000000  0.6024960  3
  10391  10385  10386  10402     1  0.0000000  4.9162000  2
  10391  10385  10386  10402     1  0.0000000  0.6024960  3
  10392  10384  10381  10393     1  0.0000000  4.9162000  2
  10392  10384  10381  10393     1  0.0000000  0.6024960  3
  10393  10381  10380  10394     1  0.0000000  0.6508444  3
  10393  10381  10380  10402     1  0.0000000  4.9162000  2
  10393  10381  10380  10402     1  0.0000000  0.6024960  3
  10400  10394  10380  10402     1  0.0000000  4.9162000  2
  10400  10394  10380  10402     1  0.0000000  0.6024960  3
  10403  10404  10407  10408     1  180.0000771  0.8368000  1
  10403  10404  10407  10408     1  180.0000771  1.0460000  2
  10403  10404  10407  10408     1  0.0000000  0.7531200  3
  10403  10404  10407  10415     1  0.0000000  0.6508444  3
  10403  10425  10409  10413     1  180.0000771  5.6484000  1
  10403  10425  10409  10413     1  180.0000771  3.5564000  2
  10403  10425  10409  10413     1  0.0000000  0.4184000  3
  10403  10425  10409  10408     1  180.0000771  0.4184000  2
  10403  10425  10409  10408     1  0.0000000  1.6024720  3
  10404  10407  10408  10409     1  180.0000771  0.8368000  1
  10404  10407  10408  10409     1  180.0000771  1.0460000  2
  10404  10407  10408  10409     1  0.0000000  0.7531200  3
  10404  10407  10408  10414     1  0.0000000  0.6508444  3
  10404  10403  10417  10423     1  0.0000000  0.6508444  3
  10404  10403  10425  10409     1  180.0000771  0.4184000  2
  10404  10403  10425  10409     1  0.0000000  1.6024720  3
  10407  10408  10409  10413     1  0.0000000  0.6508444  3
  10407  10408  10409  10425     1  0.0000000  0.6508444  3
  10407  10404  10403  10417     1  180.0000771  0.8368000  1
  10407  10404  10403  10417     1  180.0000771  1.0460000  2
  10407  10404  10403  10417     1  0.0000000  0.7531200  3
  10407  10404  10403  10425     1  0.0000000  0.6508444  3
  10408  10407  10404  10416     1  0.0000000  0.6508444  3
  10409  10425  10403  10417     1  180.0000771  0.4184000  2
  10409  10425  10403  10417     1  0.0000000  1.6024720  3
  10409  10408  10407  10415     1  0.0000000  0.6508444  3
  10413  10409  10408  10414     1  0.0000000  4.9162000  2
  10413  10409  10408  10414     1  0.0000000  0.6024960  3
  10414  10408  10409  10425     1  0.0000000  4.9162000  2
  10414  10408  10409  10425     1  0.0000000  0.6024960  3
  10414  10408  10407  10415     1  0.0000000  4.9162000  2
  10414  10408  10407  10415     1  0.0000000  0.6024960  3
  10415  10407  10404  10416     1  0.0000000  4.9162000  2
  10415  10407  10404  10416     1  0.0000000  0.6024960  3
  10416  10404  10403  10417     1  0.0000000  0.6508444  3
  10416  10404  10403  10425     1  0.0000000  4.9162000  2
  10416  10404  10403  10425     1  0.0000000  0.6024960  3
  10423  10417  10403  10425     1  0.0000000  4.9162000  2
  10423  10417  10403  10425     1  0.0000000  0.6024960  3
  10426  10427  10430  10431     1  180.0000771  0.8368000  1
  10426  10427  10430  10431     1  180.0000771  1.0460000  2
  10426  10427  10430  10431     1  0.0000000  0.7531200  3
  10426  10427  10430  10438     1  0.0000000  0.6508444  3
  10426  10448  10432  10431     1  180.0000771  0.4184000  2
  10426  10448  10432  10431     1  0.0000000  1.6024720  3
  10426  10448  10432  10436     1  180.0000771  5.6484000  1
  10426  10448  10432  10436     1  180.0000771  3.5564000  2
  10426  10448  10432  10436     1  0.0000000  0.4184000  3
  10427  10426  10440  10446     1  0.0000000  0.6508444  3
  10427  10426  10448  10432     1  180.0000771  0.4184000  2
  10427  10426  10448  10432     1  0.0000000  1.6024720  3
  10427  10430  10431  10432     1  180.0000771  0.8368000  1
  10427  10430  10431  10432     1  180.0000771  1.0460000  2
  10427  10430  10431  10432     1  0.0000000  0.7531200  3
  10427  10430  10431  10437     1  0.0000000  0.6508444  3
  10430  10427  10426  10440     1  180.0000771  0.8368000  1
  10430  10427  10426  10440     1  180.0000771  1.0460000  2
  10430  10427  10426  10440     1  0.0000000  0.7531200  3
  10430  10427  10426  10448     1  0.0000000  0.6508444  3
  10430  10431  10432  10436     1  0.0000000  0.6508444  3
  10430  10431  10432  10448     1  0.0000000  0.6508444  3
  10431  10430  10427  10439     1  0.0000000  0.6508444  3
  10432  10431  10430  10438     1  0.0000000  0.6508444  3
  10432  10448  10426  10440     1  180.0000771  0.4184000  2
  10432  10448  10426  10440     1  0.0000000  1.6024720  3
  10436  10432  10431  10437     1  0.0000000  4.9162000  2
  10436  10432  10431  10437     1  0.0000000  0.6024960  3
  10437  10431  10430  10438     1  0.0000000  4.9162000  2
  10437  10431  10430  10438     1  0.0000000  0.6024960  3
  10437  10431  10432  10448     1  0.0000000  4.9162000  2
  10437  10431  10432  10448     1  0.0000000  0.6024960  3
  10438  10430  10427  10439     1  0.0000000  4.9162000  2
  10438  10430  10427  10439     1  0.0000000  0.6024960  3
  10439  10427  10426  10440     1  0.0000000  0.6508444  3
  10439  10427  10426  10448     1  0.0000000  4.9162000  2
  10439  10427  10426  10448     1  0.0000000  0.6024960  3
  10446  10440  10426  10448     1  0.0000000  4.9162000  2
  10446  10440  10426  10448     1  0.0000000  0.6024960  3
  10449  10450  10453  10454     1  180.0000771  0.8368000  1
  10449  10450  10453  10454     1  180.0000771  1.0460000  2
  10449  10450  10453  10454     1  0.0000000  0.7531200  3
  10449  10450  10453  10461     1  0.0000000  0.6508444  3
  10449  10471  10455  10459     1  180.0000771  5.6484000  1
  10449  10471  10455  10459     1  180.0000771  3.5564000  2
  10449  10471  10455  10459     1  0.0000000  0.4184000  3
  10449  10471  10455  10454     1  180.0000771  0.4184000  2
  10449  10471  10455  10454     1  0.0000000  1.6024720  3
  10450  10453  10454  10455     1  180.0000771  0.8368000  1
  10450  10453  10454  10455     1  180.0000771  1.0460000  2
  10450  10453  10454  10455     1  0.0000000  0.7531200  3
  10450  10453  10454  10460     1  0.0000000  0.6508444  3
  10450  10449  10463  10469     1  0.0000000  0.6508444  3
  10450  10449  10471  10455     1  180.0000771  0.4184000  2
  10450  10449  10471  10455     1  0.0000000  1.6024720  3
  10453  10454  10455  10459     1  0.0000000  0.6508444  3
  10453  10454  10455  10471     1  0.0000000  0.6508444  3
  10453  10450  10449  10463     1  180.0000771  0.8368000  1
  10453  10450  10449  10463     1  180.0000771  1.0460000  2
  10453  10450  10449  10463     1  0.0000000  0.7531200  3
  10453  10450  10449  10471     1  0.0000000  0.6508444  3
  10454  10453  10450  10462     1  0.0000000  0.6508444  3
  10455  10471  10449  10463     1  180.0000771  0.4184000  2
  10455  10471  10449  10463     1  0.0000000  1.6024720  3
  10455  10454  10453  10461     1  0.0000000  0.6508444  3
  10459  10455  10454  10460     1  0.0000000  4.9162000  2
  10459  10455  10454  10460     1  0.0000000  0.6024960  3
  10460  10454  10455  10471     1  0.0000000  4.9162000  2
  10460  10454  10455  10471     1  0.0000000  0.6024960  3
  10460  10454  10453  10461     1  0.0000000  4.9162000  2
  10460  10454  10453  10461     1  0.0000000  0.6024960  3
  10461  10453  10450  10462     1  0.0000000  4.9162000  2
  10461  10453  10450  10462     1  0.0000000  0.6024960  3
  10462  10450  10449  10463     1  0.0000000  0.6508444  3
  10462  10450  10449  10471     1  0.0000000  4.9162000  2
  10462  10450  10449  10471     1  0.0000000  0.6024960  3
  10469  10463  10449  10471     1  0.0000000  4.9162000  2
  10469  10463  10449  10471     1  0.0000000  0.6024960  3
  10472  10473  10476  10477     1  180.0000771  0.8368000  1
  10472  10473  10476  10477     1  180.0000771  1.0460000  2
  10472  10473  10476  10477     1  0.0000000  0.7531200  3
  10472  10473  10476  10484     1  0.0000000  0.6508444  3
  10472  10494  10478  10477     1  180.0000771  0.4184000  2
  10472  10494  10478  10477     1  0.0000000  1.6024720  3
  10472  10494  10478  10482     1  180.0000771  5.6484000  1
  10472  10494  10478  10482     1  180.0000771  3.5564000  2
  10472  10494  10478  10482     1  0.0000000  0.4184000  3
  10473  10472  10486  10492     1  0.0000000  0.6508444  3
  10473  10472  10494  10478     1  180.0000771  0.4184000  2
  10473  10472  10494  10478     1  0.0000000  1.6024720  3
  10473  10476  10477  10478     1  180.0000771  0.8368000  1
  10473  10476  10477  10478     1  180.0000771  1.0460000  2
  10473  10476  10477  10478     1  0.0000000  0.7531200  3
  10473  10476  10477  10483     1  0.0000000  0.6508444  3
  10476  10473  10472  10486     1  180.0000771  0.8368000  1
  10476  10473  10472  10486     1  180.0000771  1.0460000  2
  10476  10473  10472  10486     1  0.0000000  0.7531200  3
  10476  10473  10472  10494     1  0.0000000  0.6508444  3
  10476  10477  10478  10482     1  0.0000000  0.6508444  3
  10476  10477  10478  10494     1  0.0000000  0.6508444  3
  10477  10476  10473  10485     1  0.0000000  0.6508444  3
  10478  10477  10476  10484     1  0.0000000  0.6508444  3
  10478  10494  10472  10486     1  180.0000771  0.4184000  2
  10478  10494  10472  10486     1  0.0000000  1.6024720  3
  10482  10478  10477  10483     1  0.0000000  4.9162000  2
  10482  10478  10477  10483     1  0.0000000  0.6024960  3
  10483  10477  10476  10484     1  0.0000000  4.9162000  2
  10483  10477  10476  10484     1  0.0000000  0.6024960  3
  10483  10477  10478  10494     1  0.0000000  4.9162000  2
  10483  10477  10478  10494     1  0.0000000  0.6024960  3
  10484  10476  10473  10485     1  0.0000000  4.9162000  2
  10484  10476  10473  10485     1  0.0000000  0.6024960  3
  10485  10473  10472  10486     1  0.0000000  0.6508444  3
  10485  10473  10472  10494     1  0.0000000  4.9162000  2
  10485  10473  10472  10494     1  0.0000000  0.6024960  3
  10492  10486  10472  10494     1  0.0000000  4.9162000  2
  10492  10486  10472  10494     1  0.0000000  0.6024960  3
  10495  10496  10499  10500     1  180.0000771  0.8368000  1
  10495  10496  10499  10500     1  180.0000771  1.0460000  2
  10495  10496  10499  10500     1  0.0000000  0.7531200  3
  10495  10496  10499  10507     1  0.0000000  0.6508444  3
  10495  10517  10501  10505     1  180.0000771  5.6484000  1
  10495  10517  10501  10505     1  180.0000771  3.5564000  2
  10495  10517  10501  10505     1  0.0000000  0.4184000  3
  10495  10517  10501  10500     1  180.0000771  0.4184000  2
  10495  10517  10501  10500     1  0.0000000  1.6024720  3
  10496  10499  10500  10501     1  180.0000771  0.8368000  1
  10496  10499  10500  10501     1  180.0000771  1.0460000  2
  10496  10499  10500  10501     1  0.0000000  0.7531200  3
  10496  10499  10500  10506     1  0.0000000  0.6508444  3
  10496  10495  10509  10515     1  0.0000000  0.6508444  3
  10496  10495  10517  10501     1  180.0000771  0.4184000  2
  10496  10495  10517  10501     1  0.0000000  1.6024720  3
  10499  10500  10501  10505     1  0.0000000  0.6508444  3
  10499  10500  10501  10517     1  0.0000000  0.6508444  3
  10499  10496  10495  10509     1  180.0000771  0.8368000  1
  10499  10496  10495  10509     1  180.0000771  1.0460000  2
  10499  10496  10495  10509     1  0.0000000  0.7531200  3
  10499  10496  10495  10517     1  0.0000000  0.6508444  3
  10500  10499  10496  10508     1  0.0000000  0.6508444  3
  10501  10517  10495  10509     1  180.0000771  0.4184000  2
  10501  10517  10495  10509     1  0.0000000  1.6024720  3
  10501  10500  10499  10507     1  0.0000000  0.6508444  3
  10505  10501  10500  10506     1  0.0000000  4.9162000  2
  10505  10501  10500  10506     1  0.0000000  0.6024960  3
  10506  10500  10501  10517     1  0.0000000  4.9162000  2
  10506  10500  10501  10517     1  0.0000000  0.6024960  3
  10506  10500  10499  10507     1  0.0000000  4.9162000  2
  10506  10500  10499  10507     1  0.0000000  0.6024960  3
  10507  10499  10496  10508     1  0.0000000  4.9162000  2
  10507  10499  10496  10508     1  0.0000000  0.6024960  3
  10508  10496  10495  10509     1  0.0000000  0.6508444  3
  10508  10496  10495  10517     1  0.0000000  4.9162000  2
  10508  10496  10495  10517     1  0.0000000  0.6024960  3
  10515  10509  10495  10517     1  0.0000000  4.9162000  2
  10515  10509  10495  10517     1  0.0000000  0.6024960  3
  10518  10519  10522  10523     1  180.0000771  0.8368000  1
  10518  10519  10522  10523     1  180.0000771  1.0460000  2
  10518  10519  10522  10523     1  0.0000000  0.7531200  3
  10518  10519  10522  10530     1  0.0000000  0.6508444  3
  10518  10540  10524  10523     1  180.0000771  0.4184000  2
  10518  10540  10524  10523     1  0.0000000  1.6024720  3
  10518  10540  10524  10528     1  180.0000771  5.6484000  1
  10518  10540  10524  10528     1  180.0000771  3.5564000  2
  10518  10540  10524  10528     1  0.0000000  0.4184000  3
  10519  10518  10532  10538     1  0.0000000  0.6508444  3
  10519  10518  10540  10524     1  180.0000771  0.4184000  2
  10519  10518  10540  10524     1  0.0000000  1.6024720  3
  10519  10522  10523  10524     1  180.0000771  0.8368000  1
  10519  10522  10523  10524     1  180.0000771  1.0460000  2
  10519  10522  10523  10524     1  0.0000000  0.7531200  3
  10519  10522  10523  10529     1  0.0000000  0.6508444  3
  10522  10519  10518  10532     1  180.0000771  0.8368000  1
  10522  10519  10518  10532     1  180.0000771  1.0460000  2
  10522  10519  10518  10532     1  0.0000000  0.7531200  3
  10522  10519  10518  10540     1  0.0000000  0.6508444  3
  10522  10523  10524  10528     1  0.0000000  0.6508444  3
  10522  10523  10524  10540     1  0.0000000  0.6508444  3
  10523  10522  10519  10531     1  0.0000000  0.6508444  3
  10524  10523  10522  10530     1  0.0000000  0.6508444  3
  10524  10540  10518  10532     1  180.0000771  0.4184000  2
  10524  10540  10518  10532     1  0.0000000  1.6024720  3
  10528  10524  10523  10529     1  0.0000000  4.9162000  2
  10528  10524  10523  10529     1  0.0000000  0.6024960  3
  10529  10523  10522  10530     1  0.0000000  4.9162000  2
  10529  10523  10522  10530     1  0.0000000  0.6024960  3
  10529  10523  10524  10540     1  0.0000000  4.9162000  2
  10529  10523  10524  10540     1  0.0000000  0.6024960  3
  10530  10522  10519  10531     1  0.0000000  4.9162000  2
  10530  10522  10519  10531     1  0.0000000  0.6024960  3
  10531  10519  10518  10532     1  0.0000000  0.6508444  3
  10531  10519  10518  10540     1  0.0000000  4.9162000  2
  10531  10519  10518  10540     1  0.0000000  0.6024960  3
  10538  10532  10518  10540     1  0.0000000  4.9162000  2
  10538  10532  10518  10540     1  0.0000000  0.6024960  3
  10541  10542  10545  10546     1  180.0000771  0.8368000  1
  10541  10542  10545  10546     1  180.0000771  1.0460000  2
  10541  10542  10545  10546     1  0.0000000  0.7531200  3
  10541  10542  10545  10553     1  0.0000000  0.6508444  3
  10541  10563  10547  10551     1  180.0000771  5.6484000  1
  10541  10563  10547  10551     1  180.0000771  3.5564000  2
  10541  10563  10547  10551     1  0.0000000  0.4184000  3
  10541  10563  10547  10546     1  180.0000771  0.4184000  2
  10541  10563  10547  10546     1  0.0000000  1.6024720  3
  10542  10545  10546  10547     1  180.0000771  0.8368000  1
  10542  10545  10546  10547     1  180.0000771  1.0460000  2
  10542  10545  10546  10547     1  0.0000000  0.7531200  3
  10542  10545  10546  10552     1  0.0000000  0.6508444  3
  10542  10541  10555  10561     1  0.0000000  0.6508444  3
  10542  10541  10563  10547     1  180.0000771  0.4184000  2
  10542  10541  10563  10547     1  0.0000000  1.6024720  3
  10545  10546  10547  10551     1  0.0000000  0.6508444  3
  10545  10546  10547  10563     1  0.0000000  0.6508444  3
  10545  10542  10541  10555     1  180.0000771  0.8368000  1
  10545  10542  10541  10555     1  180.0000771  1.0460000  2
  10545  10542  10541  10555     1  0.0000000  0.7531200  3
  10545  10542  10541  10563     1  0.0000000  0.6508444  3
  10546  10545  10542  10554     1  0.0000000  0.6508444  3
  10547  10563  10541  10555     1  180.0000771  0.4184000  2
  10547  10563  10541  10555     1  0.0000000  1.6024720  3
  10547  10546  10545  10553     1  0.0000000  0.6508444  3
  10551  10547  10546  10552     1  0.0000000  4.9162000  2
  10551  10547  10546  10552     1  0.0000000  0.6024960  3
  10552  10546  10547  10563     1  0.0000000  4.9162000  2
  10552  10546  10547  10563     1  0.0000000  0.6024960  3
  10552  10546  10545  10553     1  0.0000000  4.9162000  2
  10552  10546  10545  10553     1  0.0000000  0.6024960  3
  10553  10545  10542  10554     1  0.0000000  4.9162000  2
  10553  10545  10542  10554     1  0.0000000  0.6024960  3
  10554  10542  10541  10555     1  0.0000000  0.6508444  3
  10554  10542  10541  10563     1  0.0000000  4.9162000  2
  10554  10542  10541  10563     1  0.0000000  0.6024960  3
  10561  10555  10541  10563     1  0.0000000  4.9162000  2
  10561  10555  10541  10563     1  0.0000000  0.6024960  3
  10564  10565  10568  10569     1  180.0000771  0.8368000  1
  10564  10565  10568  10569     1  180.0000771  1.0460000  2
  10564  10565  10568  10569     1  0.0000000  0.7531200  3
  10564  10565  10568  10576     1  0.0000000  0.6508444  3
  10564  10586  10570  10569     1  180.0000771  0.4184000  2
  10564  10586  10570  10569     1  0.0000000  1.6024720  3
  10564  10586  10570  10574     1  180.0000771  5.6484000  1
  10564  10586  10570  10574     1  180.0000771  3.5564000  2
  10564  10586  10570  10574     1  0.0000000  0.4184000  3
  10565  10564  10578  10584     1  0.0000000  0.6508444  3
  10565  10564  10586  10570     1  180.0000771  0.4184000  2
  10565  10564  10586  10570     1  0.0000000  1.6024720  3
  10565  10568  10569  10570     1  180.0000771  0.8368000  1
  10565  10568  10569  10570     1  180.0000771  1.0460000  2
  10565  10568  10569  10570     1  0.0000000  0.7531200  3
  10565  10568  10569  10575     1  0.0000000  0.6508444  3
  10568  10565  10564  10578     1  180.0000771  0.8368000  1
  10568  10565  10564  10578     1  180.0000771  1.0460000  2
  10568  10565  10564  10578     1  0.0000000  0.7531200  3
  10568  10565  10564  10586     1  0.0000000  0.6508444  3
  10568  10569  10570  10574     1  0.0000000  0.6508444  3
  10568  10569  10570  10586     1  0.0000000  0.6508444  3
  10569  10568  10565  10577     1  0.0000000  0.6508444  3
  10570  10569  10568  10576     1  0.0000000  0.6508444  3
  10570  10586  10564  10578     1  180.0000771  0.4184000  2
  10570  10586  10564  10578     1  0.0000000  1.6024720  3
  10574  10570  10569  10575     1  0.0000000  4.9162000  2
  10574  10570  10569  10575     1  0.0000000  0.6024960  3
  10575  10569  10568  10576     1  0.0000000  4.9162000  2
  10575  10569  10568  10576     1  0.0000000  0.6024960  3
  10575  10569  10570  10586     1  0.0000000  4.9162000  2
  10575  10569  10570  10586     1  0.0000000  0.6024960  3
  10576  10568  10565  10577     1  0.0000000  4.9162000  2
  10576  10568  10565  10577     1  0.0000000  0.6024960  3
  10577  10565  10564  10578     1  0.0000000  0.6508444  3
  10577  10565  10564  10586     1  0.0000000  4.9162000  2
  10577  10565  10564  10586     1  0.0000000  0.6024960  3
  10584  10578  10564  10586     1  0.0000000  4.9162000  2
  10584  10578  10564  10586     1  0.0000000  0.6024960  3
  10587  10588  10591  10592     1  180.0000771  0.8368000  1
  10587  10588  10591  10592     1  180.0000771  1.0460000  2
  10587  10588  10591  10592     1  0.0000000  0.7531200  3
  10587  10588  10591  10599     1  0.0000000  0.6508444  3
  10587  10609  10593  10597     1  180.0000771  5.6484000  1
  10587  10609  10593  10597     1  180.0000771  3.5564000  2
  10587  10609  10593  10597     1  0.0000000  0.4184000  3
  10587  10609  10593  10592     1  180.0000771  0.4184000  2
  10587  10609  10593  10592     1  0.0000000  1.6024720  3
  10588  10591  10592  10593     1  180.0000771  0.8368000  1
  10588  10591  10592  10593     1  180.0000771  1.0460000  2
  10588  10591  10592  10593     1  0.0000000  0.7531200  3
  10588  10591  10592  10598     1  0.0000000  0.6508444  3
  10588  10587  10601  10607     1  0.0000000  0.6508444  3
  10588  10587  10609  10593     1  180.0000771  0.4184000  2
  10588  10587  10609  10593     1  0.0000000  1.6024720  3
  10591  10592  10593  10597     1  0.0000000  0.6508444  3
  10591  10592  10593  10609     1  0.0000000  0.6508444  3
  10591  10588  10587  10601     1  180.0000771  0.8368000  1
  10591  10588  10587  10601     1  180.0000771  1.0460000  2
  10591  10588  10587  10601     1  0.0000000  0.7531200  3
  10591  10588  10587  10609     1  0.0000000  0.6508444  3
  10592  10591  10588  10600     1  0.0000000  0.6508444  3
  10593  10609  10587  10601     1  180.0000771  0.4184000  2
  10593  10609  10587  10601     1  0.0000000  1.6024720  3
  10593  10592  10591  10599     1  0.0000000  0.6508444  3
  10597  10593  10592  10598     1  0.0000000  4.9162000  2
  10597  10593  10592  10598     1  0.0000000  0.6024960  3
  10598  10592  10593  10609     1  0.0000000  4.9162000  2
  10598  10592  10593  10609     1  0.0000000  0.6024960  3
  10598  10592  10591  10599     1  0.0000000  4.9162000  2
  10598  10592  10591  10599     1  0.0000000  0.6024960  3
  10599  10591  10588  10600     1  0.0000000  4.9162000  2
  10599  10591  10588  10600     1  0.0000000  0.6024960  3
  10600  10588  10587  10601     1  0.0000000  0.6508444  3
  10600  10588  10587  10609     1  0.0000000  4.9162000  2
  10600  10588  10587  10609     1  0.0000000  0.6024960  3
  10607  10601  10587  10609     1  0.0000000  4.9162000  2
  10607  10601  10587  10609     1  0.0000000  0.6024960  3
  10610  10611  10614  10615     1  180.0000771  0.8368000  1
  10610  10611  10614  10615     1  180.0000771  1.0460000  2
  10610  10611  10614  10615     1  0.0000000  0.7531200  3
  10610  10611  10614  10622     1  0.0000000  0.6508444  3
  10610  10632  10616  10615     1  180.0000771  0.4184000  2
  10610  10632  10616  10615     1  0.0000000  1.6024720  3
  10610  10632  10616  10620     1  180.0000771  5.6484000  1
  10610  10632  10616  10620     1  180.0000771  3.5564000  2
  10610  10632  10616  10620     1  0.0000000  0.4184000  3
  10611  10610  10624  10630     1  0.0000000  0.6508444  3
  10611  10610  10632  10616     1  180.0000771  0.4184000  2
  10611  10610  10632  10616     1  0.0000000  1.6024720  3
  10611  10614  10615  10616     1  180.0000771  0.8368000  1
  10611  10614  10615  10616     1  180.0000771  1.0460000  2
  10611  10614  10615  10616     1  0.0000000  0.7531200  3
  10611  10614  10615  10621     1  0.0000000  0.6508444  3
  10614  10611  10610  10624     1  180.0000771  0.8368000  1
  10614  10611  10610  10624     1  180.0000771  1.0460000  2
  10614  10611  10610  10624     1  0.0000000  0.7531200  3
  10614  10611  10610  10632     1  0.0000000  0.6508444  3
  10614  10615  10616  10620     1  0.0000000  0.6508444  3
  10614  10615  10616  10632     1  0.0000000  0.6508444  3
  10615  10614  10611  10623     1  0.0000000  0.6508444  3
  10616  10615  10614  10622     1  0.0000000  0.6508444  3
  10616  10632  10610  10624     1  180.0000771  0.4184000  2
  10616  10632  10610  10624     1  0.0000000  1.6024720  3
  10620  10616  10615  10621     1  0.0000000  4.9162000  2
  10620  10616  10615  10621     1  0.0000000  0.6024960  3
  10621  10615  10614  10622     1  0.0000000  4.9162000  2
  10621  10615  10614  10622     1  0.0000000  0.6024960  3
  10621  10615  10616  10632     1  0.0000000  4.9162000  2
  10621  10615  10616  10632     1  0.0000000  0.6024960  3
  10622  10614  10611  10623     1  0.0000000  4.9162000  2
  10622  10614  10611  10623     1  0.0000000  0.6024960  3
  10623  10611  10610  10624     1  0.0000000  0.6508444  3
  10623  10611  10610  10632     1  0.0000000  4.9162000  2
  10623  10611  10610  10632     1  0.0000000  0.6024960  3
  10630  10624  10610  10632     1  0.0000000  4.9162000  2
  10630  10624  10610  10632     1  0.0000000  0.6024960  3
  10633  10634  10637  10638     1  180.0000771  0.8368000  1
  10633  10634  10637  10638     1  180.0000771  1.0460000  2
  10633  10634  10637  10638     1  0.0000000  0.7531200  3
  10633  10634  10637  10645     1  0.0000000  0.6508444  3
  10633  10655  10639  10643     1  180.0000771  5.6484000  1
  10633  10655  10639  10643     1  180.0000771  3.5564000  2
  10633  10655  10639  10643     1  0.0000000  0.4184000  3
  10633  10655  10639  10638     1  180.0000771  0.4184000  2
  10633  10655  10639  10638     1  0.0000000  1.6024720  3
  10634  10637  10638  10639     1  180.0000771  0.8368000  1
  10634  10637  10638  10639     1  180.0000771  1.0460000  2
  10634  10637  10638  10639     1  0.0000000  0.7531200  3
  10634  10637  10638  10644     1  0.0000000  0.6508444  3
  10634  10633  10647  10653     1  0.0000000  0.6508444  3
  10634  10633  10655  10639     1  180.0000771  0.4184000  2
  10634  10633  10655  10639     1  0.0000000  1.6024720  3
  10637  10638  10639  10643     1  0.0000000  0.6508444  3
  10637  10638  10639  10655     1  0.0000000  0.6508444  3
  10637  10634  10633  10647     1  180.0000771  0.8368000  1
  10637  10634  10633  10647     1  180.0000771  1.0460000  2
  10637  10634  10633  10647     1  0.0000000  0.7531200  3
  10637  10634  10633  10655     1  0.0000000  0.6508444  3
  10638  10637  10634  10646     1  0.0000000  0.6508444  3
  10639  10655  10633  10647     1  180.0000771  0.4184000  2
  10639  10655  10633  10647     1  0.0000000  1.6024720  3
  10639  10638  10637  10645     1  0.0000000  0.6508444  3
  10643  10639  10638  10644     1  0.0000000  4.9162000  2
  10643  10639  10638  10644     1  0.0000000  0.6024960  3
  10644  10638  10639  10655     1  0.0000000  4.9162000  2
  10644  10638  10639  10655     1  0.0000000  0.6024960  3
  10644  10638  10637  10645     1  0.0000000  4.9162000  2
  10644  10638  10637  10645     1  0.0000000  0.6024960  3
  10645  10637  10634  10646     1  0.0000000  4.9162000  2
  10645  10637  10634  10646     1  0.0000000  0.6024960  3
  10646  10634  10633  10647     1  0.0000000  0.6508444  3
  10646  10634  10633  10655     1  0.0000000  4.9162000  2
  10646  10634  10633  10655     1  0.0000000  0.6024960  3
  10653  10647  10633  10655     1  0.0000000  4.9162000  2
  10653  10647  10633  10655     1  0.0000000  0.6024960  3
  10656  10657  10660  10661     1  180.0000771  0.8368000  1
  10656  10657  10660  10661     1  180.0000771  1.0460000  2
  10656  10657  10660  10661     1  0.0000000  0.7531200  3
  10656  10657  10660  10668     1  0.0000000  0.6508444  3
  10656  10678  10662  10661     1  180.0000771  0.4184000  2
  10656  10678  10662  10661     1  0.0000000  1.6024720  3
  10656  10678  10662  10666     1  180.0000771  5.6484000  1
  10656  10678  10662  10666     1  180.0000771  3.5564000  2
  10656  10678  10662  10666     1  0.0000000  0.4184000  3
  10657  10656  10670  10676     1  0.0000000  0.6508444  3
  10657  10656  10678  10662     1  180.0000771  0.4184000  2
  10657  10656  10678  10662     1  0.0000000  1.6024720  3
  10657  10660  10661  10662     1  180.0000771  0.8368000  1
  10657  10660  10661  10662     1  180.0000771  1.0460000  2
  10657  10660  10661  10662     1  0.0000000  0.7531200  3
  10657  10660  10661  10667     1  0.0000000  0.6508444  3
  10660  10657  10656  10670     1  180.0000771  0.8368000  1
  10660  10657  10656  10670     1  180.0000771  1.0460000  2
  10660  10657  10656  10670     1  0.0000000  0.7531200  3
  10660  10657  10656  10678     1  0.0000000  0.6508444  3
  10660  10661  10662  10666     1  0.0000000  0.6508444  3
  10660  10661  10662  10678     1  0.0000000  0.6508444  3
  10661  10660  10657  10669     1  0.0000000  0.6508444  3
  10662  10661  10660  10668     1  0.0000000  0.6508444  3
  10662  10678  10656  10670     1  180.0000771  0.4184000  2
  10662  10678  10656  10670     1  0.0000000  1.6024720  3
  10666  10662  10661  10667     1  0.0000000  4.9162000  2
  10666  10662  10661  10667     1  0.0000000  0.6024960  3
  10667  10661  10660  10668     1  0.0000000  4.9162000  2
  10667  10661  10660  10668     1  0.0000000  0.6024960  3
  10667  10661  10662  10678     1  0.0000000  4.9162000  2
  10667  10661  10662  10678     1  0.0000000  0.6024960  3
  10668  10660  10657  10669     1  0.0000000  4.9162000  2
  10668  10660  10657  10669     1  0.0000000  0.6024960  3
  10669  10657  10656  10670     1  0.0000000  0.6508444  3
  10669  10657  10656  10678     1  0.0000000  4.9162000  2
  10669  10657  10656  10678     1  0.0000000  0.6024960  3
  10676  10670  10656  10678     1  0.0000000  4.9162000  2
  10676  10670  10656  10678     1  0.0000000  0.6024960  3
  10679  10680  10683  10684     1  180.0000771  0.8368000  1
  10679  10680  10683  10684     1  180.0000771  1.0460000  2
  10679  10680  10683  10684     1  0.0000000  0.7531200  3
  10679  10680  10683  10691     1  0.0000000  0.6508444  3
  10679  10701  10685  10689     1  180.0000771  5.6484000  1
  10679  10701  10685  10689     1  180.0000771  3.5564000  2
  10679  10701  10685  10689     1  0.0000000  0.4184000  3
  10679  10701  10685  10684     1  180.0000771  0.4184000  2
  10679  10701  10685  10684     1  0.0000000  1.6024720  3
  10680  10683  10684  10685     1  180.0000771  0.8368000  1
  10680  10683  10684  10685     1  180.0000771  1.0460000  2
  10680  10683  10684  10685     1  0.0000000  0.7531200  3
  10680  10683  10684  10690     1  0.0000000  0.6508444  3
  10680  10679  10693  10699     1  0.0000000  0.6508444  3
  10680  10679  10701  10685     1  180.0000771  0.4184000  2
  10680  10679  10701  10685     1  0.0000000  1.6024720  3
  10683  10684  10685  10689     1  0.0000000  0.6508444  3
  10683  10684  10685  10701     1  0.0000000  0.6508444  3
  10683  10680  10679  10693     1  180.0000771  0.8368000  1
  10683  10680  10679  10693     1  180.0000771  1.0460000  2
  10683  10680  10679  10693     1  0.0000000  0.7531200  3
  10683  10680  10679  10701     1  0.0000000  0.6508444  3
  10684  10683  10680  10692     1  0.0000000  0.6508444  3
  10685  10701  10679  10693     1  180.0000771  0.4184000  2
  10685  10701  10679  10693     1  0.0000000  1.6024720  3
  10685  10684  10683  10691     1  0.0000000  0.6508444  3
  10689  10685  10684  10690     1  0.0000000  4.9162000  2
  10689  10685  10684  10690     1  0.0000000  0.6024960  3
  10690  10684  10685  10701     1  0.0000000  4.9162000  2
  10690  10684  10685  10701     1  0.0000000  0.6024960  3
  10690  10684  10683  10691     1  0.0000000  4.9162000  2
  10690  10684  10683  10691     1  0.0000000  0.6024960  3
  10691  10683  10680  10692     1  0.0000000  4.9162000  2
  10691  10683  10680  10692     1  0.0000000  0.6024960  3
  10692  10680  10679  10693     1  0.0000000  0.6508444  3
  10692  10680  10679  10701     1  0.0000000  4.9162000  2
  10692  10680  10679  10701     1  0.0000000  0.6024960  3
  10699  10693  10679  10701     1  0.0000000  4.9162000  2
  10699  10693  10679  10701     1  0.0000000  0.6024960  3
  10702  10703  10706  10707     1  180.0000771  0.8368000  1
  10702  10703  10706  10707     1  180.0000771  1.0460000  2
  10702  10703  10706  10707     1  0.0000000  0.7531200  3
  10702  10703  10706  10714     1  0.0000000  0.6508444  3
  10702  10724  10708  10707     1  180.0000771  0.4184000  2
  10702  10724  10708  10707     1  0.0000000  1.6024720  3
  10702  10724  10708  10712     1  180.0000771  5.6484000  1
  10702  10724  10708  10712     1  180.0000771  3.5564000  2
  10702  10724  10708  10712     1  0.0000000  0.4184000  3
  10703  10702  10716  10722     1  0.0000000  0.6508444  3
  10703  10702  10724  10708     1  180.0000771  0.4184000  2
  10703  10702  10724  10708     1  0.0000000  1.6024720  3
  10703  10706  10707  10708     1  180.0000771  0.8368000  1
  10703  10706  10707  10708     1  180.0000771  1.0460000  2
  10703  10706  10707  10708     1  0.0000000  0.7531200  3
  10703  10706  10707  10713     1  0.0000000  0.6508444  3
  10706  10703  10702  10716     1  180.0000771  0.8368000  1
  10706  10703  10702  10716     1  180.0000771  1.0460000  2
  10706  10703  10702  10716     1  0.0000000  0.7531200  3
  10706  10703  10702  10724     1  0.0000000  0.6508444  3
  10706  10707  10708  10712     1  0.0000000  0.6508444  3
  10706  10707  10708  10724     1  0.0000000  0.6508444  3
  10707  10706  10703  10715     1  0.0000000  0.6508444  3
  10708  10707  10706  10714     1  0.0000000  0.6508444  3
  10708  10724  10702  10716     1  180.0000771  0.4184000  2
  10708  10724  10702  10716     1  0.0000000  1.6024720  3
  10712  10708  10707  10713     1  0.0000000  4.9162000  2
  10712  10708  10707  10713     1  0.0000000  0.6024960  3
  10713  10707  10706  10714     1  0.0000000  4.9162000  2
  10713  10707  10706  10714     1  0.0000000  0.6024960  3
  10713  10707  10708  10724     1  0.0000000  4.9162000  2
  10713  10707  10708  10724     1  0.0000000  0.6024960  3
  10714  10706  10703  10715     1  0.0000000  4.9162000  2
  10714  10706  10703  10715     1  0.0000000  0.6024960  3
  10715  10703  10702  10716     1  0.0000000  0.6508444  3
  10715  10703  10702  10724     1  0.0000000  4.9162000  2
  10715  10703  10702  10724     1  0.0000000  0.6024960  3
  10722  10716  10702  10724     1  0.0000000  4.9162000  2
  10722  10716  10702  10724     1  0.0000000  0.6024960  3
  10725  10726  10729  10730     1  180.0000771  0.8368000  1
  10725  10726  10729  10730     1  180.0000771  1.0460000  2
  10725  10726  10729  10730     1  0.0000000  0.7531200  3
  10725  10726  10729  10737     1  0.0000000  0.6508444  3
  10725  10747  10731  10735     1  180.0000771  5.6484000  1
  10725  10747  10731  10735     1  180.0000771  3.5564000  2
  10725  10747  10731  10735     1  0.0000000  0.4184000  3
  10725  10747  10731  10730     1  180.0000771  0.4184000  2
  10725  10747  10731  10730     1  0.0000000  1.6024720  3
  10726  10729  10730  10731     1  180.0000771  0.8368000  1
  10726  10729  10730  10731     1  180.0000771  1.0460000  2
  10726  10729  10730  10731     1  0.0000000  0.7531200  3
  10726  10729  10730  10736     1  0.0000000  0.6508444  3
  10726  10725  10739  10745     1  0.0000000  0.6508444  3
  10726  10725  10747  10731     1  180.0000771  0.4184000  2
  10726  10725  10747  10731     1  0.0000000  1.6024720  3
  10729  10730  10731  10735     1  0.0000000  0.6508444  3
  10729  10730  10731  10747     1  0.0000000  0.6508444  3
  10729  10726  10725  10739     1  180.0000771  0.8368000  1
  10729  10726  10725  10739     1  180.0000771  1.0460000  2
  10729  10726  10725  10739     1  0.0000000  0.7531200  3
  10729  10726  10725  10747     1  0.0000000  0.6508444  3
  10730  10729  10726  10738     1  0.0000000  0.6508444  3
  10731  10747  10725  10739     1  180.0000771  0.4184000  2
  10731  10747  10725  10739     1  0.0000000  1.6024720  3
  10731  10730  10729  10737     1  0.0000000  0.6508444  3
  10735  10731  10730  10736     1  0.0000000  4.9162000  2
  10735  10731  10730  10736     1  0.0000000  0.6024960  3
  10736  10730  10731  10747     1  0.0000000  4.9162000  2
  10736  10730  10731  10747     1  0.0000000  0.6024960  3
  10736  10730  10729  10737     1  0.0000000  4.9162000  2
  10736  10730  10729  10737     1  0.0000000  0.6024960  3
  10737  10729  10726  10738     1  0.0000000  4.9162000  2
  10737  10729  10726  10738     1  0.0000000  0.6024960  3
  10738  10726  10725  10739     1  0.0000000  0.6508444  3
  10738  10726  10725  10747     1  0.0000000  4.9162000  2
  10738  10726  10725  10747     1  0.0000000  0.6024960  3
  10745  10739  10725  10747     1  0.0000000  4.9162000  2
  10745  10739  10725  10747     1  0.0000000  0.6024960  3
  10748  10749  10752  10753     1  180.0000771  0.8368000  1
  10748  10749  10752  10753     1  180.0000771  1.0460000  2
  10748  10749  10752  10753     1  0.0000000  0.7531200  3
  10748  10749  10752  10760     1  0.0000000  0.6508444  3
  10748  10770  10754  10753     1  180.0000771  0.4184000  2
  10748  10770  10754  10753     1  0.0000000  1.6024720  3
  10748  10770  10754  10758     1  180.0000771  5.6484000  1
  10748  10770  10754  10758     1  180.0000771  3.5564000  2
  10748  10770  10754  10758     1  0.0000000  0.4184000  3
  10749  10748  10762  10768     1  0.0000000  0.6508444  3
  10749  10748  10770  10754     1  180.0000771  0.4184000  2
  10749  10748  10770  10754     1  0.0000000  1.6024720  3
  10749  10752  10753  10754     1  180.0000771  0.8368000  1
  10749  10752  10753  10754     1  180.0000771  1.0460000  2
  10749  10752  10753  10754     1  0.0000000  0.7531200  3
  10749  10752  10753  10759     1  0.0000000  0.6508444  3
  10752  10749  10748  10762     1  180.0000771  0.8368000  1
  10752  10749  10748  10762     1  180.0000771  1.0460000  2
  10752  10749  10748  10762     1  0.0000000  0.7531200  3
  10752  10749  10748  10770     1  0.0000000  0.6508444  3
  10752  10753  10754  10758     1  0.0000000  0.6508444  3
  10752  10753  10754  10770     1  0.0000000  0.6508444  3
  10753  10752  10749  10761     1  0.0000000  0.6508444  3
  10754  10753  10752  10760     1  0.0000000  0.6508444  3
  10754  10770  10748  10762     1  180.0000771  0.4184000  2
  10754  10770  10748  10762     1  0.0000000  1.6024720  3
  10758  10754  10753  10759     1  0.0000000  4.9162000  2
  10758  10754  10753  10759     1  0.0000000  0.6024960  3
  10759  10753  10752  10760     1  0.0000000  4.9162000  2
  10759  10753  10752  10760     1  0.0000000  0.6024960  3
  10759  10753  10754  10770     1  0.0000000  4.9162000  2
  10759  10753  10754  10770     1  0.0000000  0.6024960  3
  10760  10752  10749  10761     1  0.0000000  4.9162000  2
  10760  10752  10749  10761     1  0.0000000  0.6024960  3
  10761  10749  10748  10762     1  0.0000000  0.6508444  3
  10761  10749  10748  10770     1  0.0000000  4.9162000  2
  10761  10749  10748  10770     1  0.0000000  0.6024960  3
  10768  10762  10748  10770     1  0.0000000  4.9162000  2
  10768  10762  10748  10770     1  0.0000000  0.6024960  3
  10771  10772  10775  10776     1  180.0000771  0.8368000  1
  10771  10772  10775  10776     1  180.0000771  1.0460000  2
  10771  10772  10775  10776     1  0.0000000  0.7531200  3
  10771  10772  10775  10783     1  0.0000000  0.6508444  3
  10771  10793  10777  10781     1  180.0000771  5.6484000  1
  10771  10793  10777  10781     1  180.0000771  3.5564000  2
  10771  10793  10777  10781     1  0.0000000  0.4184000  3
  10771  10793  10777  10776     1  180.0000771  0.4184000  2
  10771  10793  10777  10776     1  0.0000000  1.6024720  3
  10772  10775  10776  10777     1  180.0000771  0.8368000  1
  10772  10775  10776  10777     1  180.0000771  1.0460000  2
  10772  10775  10776  10777     1  0.0000000  0.7531200  3
  10772  10775  10776  10782     1  0.0000000  0.6508444  3
  10772  10771  10785  10791     1  0.0000000  0.6508444  3
  10772  10771  10793  10777     1  180.0000771  0.4184000  2
  10772  10771  10793  10777     1  0.0000000  1.6024720  3
  10775  10776  10777  10781     1  0.0000000  0.6508444  3
  10775  10776  10777  10793     1  0.0000000  0.6508444  3
  10775  10772  10771  10785     1  180.0000771  0.8368000  1
  10775  10772  10771  10785     1  180.0000771  1.0460000  2
  10775  10772  10771  10785     1  0.0000000  0.7531200  3
  10775  10772  10771  10793     1  0.0000000  0.6508444  3
  10776  10775  10772  10784     1  0.0000000  0.6508444  3
  10777  10793  10771  10785     1  180.0000771  0.4184000  2
  10777  10793  10771  10785     1  0.0000000  1.6024720  3
  10777  10776  10775  10783     1  0.0000000  0.6508444  3
  10781  10777  10776  10782     1  0.0000000  4.9162000  2
  10781  10777  10776  10782     1  0.0000000  0.6024960  3
  10782  10776  10777  10793     1  0.0000000  4.9162000  2
  10782  10776  10777  10793     1  0.0000000  0.6024960  3
  10782  10776  10775  10783     1  0.0000000  4.9162000  2
  10782  10776  10775  10783     1  0.0000000  0.6024960  3
  10783  10775  10772  10784     1  0.0000000  4.9162000  2
  10783  10775  10772  10784     1  0.0000000  0.6024960  3
  10784  10772  10771  10785     1  0.0000000  0.6508444  3
  10784  10772  10771  10793     1  0.0000000  4.9162000  2
  10784  10772  10771  10793     1  0.0000000  0.6024960  3
  10791  10785  10771  10793     1  0.0000000  4.9162000  2
  10791  10785  10771  10793     1  0.0000000  0.6024960  3
  10794  10795  10798  10799     1  180.0000771  0.8368000  1
  10794  10795  10798  10799     1  180.0000771  1.0460000  2
  10794  10795  10798  10799     1  0.0000000  0.7531200  3
  10794  10795  10798  10806     1  0.0000000  0.6508444  3
  10794  10816  10800  10799     1  180.0000771  0.4184000  2
  10794  10816  10800  10799     1  0.0000000  1.6024720  3
  10794  10816  10800  10804     1  180.0000771  5.6484000  1
  10794  10816  10800  10804     1  180.0000771  3.5564000  2
  10794  10816  10800  10804     1  0.0000000  0.4184000  3
  10795  10794  10808  10814     1  0.0000000  0.6508444  3
  10795  10794  10816  10800     1  180.0000771  0.4184000  2
  10795  10794  10816  10800     1  0.0000000  1.6024720  3
  10795  10798  10799  10800     1  180.0000771  0.8368000  1
  10795  10798  10799  10800     1  180.0000771  1.0460000  2
  10795  10798  10799  10800     1  0.0000000  0.7531200  3
  10795  10798  10799  10805     1  0.0000000  0.6508444  3
  10798  10795  10794  10808     1  180.0000771  0.8368000  1
  10798  10795  10794  10808     1  180.0000771  1.0460000  2
  10798  10795  10794  10808     1  0.0000000  0.7531200  3
  10798  10795  10794  10816     1  0.0000000  0.6508444  3
  10798  10799  10800  10804     1  0.0000000  0.6508444  3
  10798  10799  10800  10816     1  0.0000000  0.6508444  3
  10799  10798  10795  10807     1  0.0000000  0.6508444  3
  10800  10799  10798  10806     1  0.0000000  0.6508444  3
  10800  10816  10794  10808     1  180.0000771  0.4184000  2
  10800  10816  10794  10808     1  0.0000000  1.6024720  3
  10804  10800  10799  10805     1  0.0000000  4.9162000  2
  10804  10800  10799  10805     1  0.0000000  0.6024960  3
  10805  10799  10798  10806     1  0.0000000  4.9162000  2
  10805  10799  10798  10806     1  0.0000000  0.6024960  3
  10805  10799  10800  10816     1  0.0000000  4.9162000  2
  10805  10799  10800  10816     1  0.0000000  0.6024960  3
  10806  10798  10795  10807     1  0.0000000  4.9162000  2
  10806  10798  10795  10807     1  0.0000000  0.6024960  3
  10807  10795  10794  10808     1  0.0000000  0.6508444  3
  10807  10795  10794  10816     1  0.0000000  4.9162000  2
  10807  10795  10794  10816     1  0.0000000  0.6024960  3
  10814  10808  10794  10816     1  0.0000000  4.9162000  2
  10814  10808  10794  10816     1  0.0000000  0.6024960  3
  10817  10818  10821  10822     1  180.0000771  0.8368000  1
  10817  10818  10821  10822     1  180.0000771  1.0460000  2
  10817  10818  10821  10822     1  0.0000000  0.7531200  3
  10817  10818  10821  10829     1  0.0000000  0.6508444  3
  10817  10839  10823  10827     1  180.0000771  5.6484000  1
  10817  10839  10823  10827     1  180.0000771  3.5564000  2
  10817  10839  10823  10827     1  0.0000000  0.4184000  3
  10817  10839  10823  10822     1  180.0000771  0.4184000  2
  10817  10839  10823  10822     1  0.0000000  1.6024720  3
  10818  10821  10822  10823     1  180.0000771  0.8368000  1
  10818  10821  10822  10823     1  180.0000771  1.0460000  2
  10818  10821  10822  10823     1  0.0000000  0.7531200  3
  10818  10821  10822  10828     1  0.0000000  0.6508444  3
  10818  10817  10831  10837     1  0.0000000  0.6508444  3
  10818  10817  10839  10823     1  180.0000771  0.4184000  2
  10818  10817  10839  10823     1  0.0000000  1.6024720  3
  10821  10822  10823  10827     1  0.0000000  0.6508444  3
  10821  10822  10823  10839     1  0.0000000  0.6508444  3
  10821  10818  10817  10831     1  180.0000771  0.8368000  1
  10821  10818  10817  10831     1  180.0000771  1.0460000  2
  10821  10818  10817  10831     1  0.0000000  0.7531200  3
  10821  10818  10817  10839     1  0.0000000  0.6508444  3
  10822  10821  10818  10830     1  0.0000000  0.6508444  3
  10823  10839  10817  10831     1  180.0000771  0.4184000  2
  10823  10839  10817  10831     1  0.0000000  1.6024720  3
  10823  10822  10821  10829     1  0.0000000  0.6508444  3
  10827  10823  10822  10828     1  0.0000000  4.9162000  2
  10827  10823  10822  10828     1  0.0000000  0.6024960  3
  10828  10822  10823  10839     1  0.0000000  4.9162000  2
  10828  10822  10823  10839     1  0.0000000  0.6024960  3
  10828  10822  10821  10829     1  0.0000000  4.9162000  2
  10828  10822  10821  10829     1  0.0000000  0.6024960  3
  10829  10821  10818  10830     1  0.0000000  4.9162000  2
  10829  10821  10818  10830     1  0.0000000  0.6024960  3
  10830  10818  10817  10831     1  0.0000000  0.6508444  3
  10830  10818  10817  10839     1  0.0000000  4.9162000  2
  10830  10818  10817  10839     1  0.0000000  0.6024960  3
  10837  10831  10817  10839     1  0.0000000  4.9162000  2
  10837  10831  10817  10839     1  0.0000000  0.6024960  3
  10840  10841  10844  10845     1  180.0000771  0.8368000  1
  10840  10841  10844  10845     1  180.0000771  1.0460000  2
  10840  10841  10844  10845     1  0.0000000  0.7531200  3
  10840  10841  10844  10852     1  0.0000000  0.6508444  3
  10840  10862  10846  10845     1  180.0000771  0.4184000  2
  10840  10862  10846  10845     1  0.0000000  1.6024720  3
  10840  10862  10846  10850     1  180.0000771  5.6484000  1
  10840  10862  10846  10850     1  180.0000771  3.5564000  2
  10840  10862  10846  10850     1  0.0000000  0.4184000  3
  10841  10840  10854  10860     1  0.0000000  0.6508444  3
  10841  10840  10862  10846     1  180.0000771  0.4184000  2
  10841  10840  10862  10846     1  0.0000000  1.6024720  3
  10841  10844  10845  10846     1  180.0000771  0.8368000  1
  10841  10844  10845  10846     1  180.0000771  1.0460000  2
  10841  10844  10845  10846     1  0.0000000  0.7531200  3
  10841  10844  10845  10851     1  0.0000000  0.6508444  3
  10844  10841  10840  10854     1  180.0000771  0.8368000  1
  10844  10841  10840  10854     1  180.0000771  1.0460000  2
  10844  10841  10840  10854     1  0.0000000  0.7531200  3
  10844  10841  10840  10862     1  0.0000000  0.6508444  3
  10844  10845  10846  10850     1  0.0000000  0.6508444  3
  10844  10845  10846  10862     1  0.0000000  0.6508444  3
  10845  10844  10841  10853     1  0.0000000  0.6508444  3
  10846  10845  10844  10852     1  0.0000000  0.6508444  3
  10846  10862  10840  10854     1  180.0000771  0.4184000  2
  10846  10862  10840  10854     1  0.0000000  1.6024720  3
  10850  10846  10845  10851     1  0.0000000  4.9162000  2
  10850  10846  10845  10851     1  0.0000000  0.6024960  3
  10851  10845  10844  10852     1  0.0000000  4.9162000  2
  10851  10845  10844  10852     1  0.0000000  0.6024960  3
  10851  10845  10846  10862     1  0.0000000  4.9162000  2
  10851  10845  10846  10862     1  0.0000000  0.6024960  3
  10852  10844  10841  10853     1  0.0000000  4.9162000  2
  10852  10844  10841  10853     1  0.0000000  0.6024960  3
  10853  10841  10840  10854     1  0.0000000  0.6508444  3
  10853  10841  10840  10862     1  0.0000000  4.9162000  2
  10853  10841  10840  10862     1  0.0000000  0.6024960  3
  10860  10854  10840  10862     1  0.0000000  4.9162000  2
  10860  10854  10840  10862     1  0.0000000  0.6024960  3
  10863  10864  10867  10868     1  180.0000771  0.8368000  1
  10863  10864  10867  10868     1  180.0000771  1.0460000  2
  10863  10864  10867  10868     1  0.0000000  0.7531200  3
  10863  10864  10867  10875     1  0.0000000  0.6508444  3
  10863  10885  10869  10873     1  180.0000771  5.6484000  1
  10863  10885  10869  10873     1  180.0000771  3.5564000  2
  10863  10885  10869  10873     1  0.0000000  0.4184000  3
  10863  10885  10869  10868     1  180.0000771  0.4184000  2
  10863  10885  10869  10868     1  0.0000000  1.6024720  3
  10864  10867  10868  10869     1  180.0000771  0.8368000  1
  10864  10867  10868  10869     1  180.0000771  1.0460000  2
  10864  10867  10868  10869     1  0.0000000  0.7531200  3
  10864  10867  10868  10874     1  0.0000000  0.6508444  3
  10864  10863  10877  10883     1  0.0000000  0.6508444  3
  10864  10863  10885  10869     1  180.0000771  0.4184000  2
  10864  10863  10885  10869     1  0.0000000  1.6024720  3
  10867  10868  10869  10873     1  0.0000000  0.6508444  3
  10867  10868  10869  10885     1  0.0000000  0.6508444  3
  10867  10864  10863  10877     1  180.0000771  0.8368000  1
  10867  10864  10863  10877     1  180.0000771  1.0460000  2
  10867  10864  10863  10877     1  0.0000000  0.7531200  3
  10867  10864  10863  10885     1  0.0000000  0.6508444  3
  10868  10867  10864  10876     1  0.0000000  0.6508444  3
  10869  10885  10863  10877     1  180.0000771  0.4184000  2
  10869  10885  10863  10877     1  0.0000000  1.6024720  3
  10869  10868  10867  10875     1  0.0000000  0.6508444  3
  10873  10869  10868  10874     1  0.0000000  4.9162000  2
  10873  10869  10868  10874     1  0.0000000  0.6024960  3
  10874  10868  10869  10885     1  0.0000000  4.9162000  2
  10874  10868  10869  10885     1  0.0000000  0.6024960  3
  10874  10868  10867  10875     1  0.0000000  4.9162000  2
  10874  10868  10867  10875     1  0.0000000  0.6024960  3
  10875  10867  10864  10876     1  0.0000000  4.9162000  2
  10875  10867  10864  10876     1  0.0000000  0.6024960  3
  10876  10864  10863  10877     1  0.0000000  0.6508444  3
  10876  10864  10863  10885     1  0.0000000  4.9162000  2
  10876  10864  10863  10885     1  0.0000000  0.6024960  3
  10883  10877  10863  10885     1  0.0000000  4.9162000  2
  10883  10877  10863  10885     1  0.0000000  0.6024960  3
  10886  10887  10890  10891     1  180.0000771  0.8368000  1
  10886  10887  10890  10891     1  180.0000771  1.0460000  2
  10886  10887  10890  10891     1  0.0000000  0.7531200  3
  10886  10887  10890  10898     1  0.0000000  0.6508444  3
  10886  10908  10892  10891     1  180.0000771  0.4184000  2
  10886  10908  10892  10891     1  0.0000000  1.6024720  3
  10886  10908  10892  10896     1  180.0000771  5.6484000  1
  10886  10908  10892  10896     1  180.0000771  3.5564000  2
  10886  10908  10892  10896     1  0.0000000  0.4184000  3
  10887  10886  10900  10906     1  0.0000000  0.6508444  3
  10887  10886  10908  10892     1  180.0000771  0.4184000  2
  10887  10886  10908  10892     1  0.0000000  1.6024720  3
  10887  10890  10891  10892     1  180.0000771  0.8368000  1
  10887  10890  10891  10892     1  180.0000771  1.0460000  2
  10887  10890  10891  10892     1  0.0000000  0.7531200  3
  10887  10890  10891  10897     1  0.0000000  0.6508444  3
  10890  10887  10886  10900     1  180.0000771  0.8368000  1
  10890  10887  10886  10900     1  180.0000771  1.0460000  2
  10890  10887  10886  10900     1  0.0000000  0.7531200  3
  10890  10887  10886  10908     1  0.0000000  0.6508444  3
  10890  10891  10892  10896     1  0.0000000  0.6508444  3
  10890  10891  10892  10908     1  0.0000000  0.6508444  3
  10891  10890  10887  10899     1  0.0000000  0.6508444  3
  10892  10891  10890  10898     1  0.0000000  0.6508444  3
  10892  10908  10886  10900     1  180.0000771  0.4184000  2
  10892  10908  10886  10900     1  0.0000000  1.6024720  3
  10896  10892  10891  10897     1  0.0000000  4.9162000  2
  10896  10892  10891  10897     1  0.0000000  0.6024960  3
  10897  10891  10890  10898     1  0.0000000  4.9162000  2
  10897  10891  10890  10898     1  0.0000000  0.6024960  3
  10897  10891  10892  10908     1  0.0000000  4.9162000  2
  10897  10891  10892  10908     1  0.0000000  0.6024960  3
  10898  10890  10887  10899     1  0.0000000  4.9162000  2
  10898  10890  10887  10899     1  0.0000000  0.6024960  3
  10899  10887  10886  10900     1  0.0000000  0.6508444  3
  10899  10887  10886  10908     1  0.0000000  4.9162000  2
  10899  10887  10886  10908     1  0.0000000  0.6024960  3
  10906  10900  10886  10908     1  0.0000000  4.9162000  2
  10906  10900  10886  10908     1  0.0000000  0.6024960  3
  10909  10910  10913  10914     1  180.0000771  0.8368000  1
  10909  10910  10913  10914     1  180.0000771  1.0460000  2
  10909  10910  10913  10914     1  0.0000000  0.7531200  3
  10909  10910  10913  10921     1  0.0000000  0.6508444  3
  10909  10931  10915  10919     1  180.0000771  5.6484000  1
  10909  10931  10915  10919     1  180.0000771  3.5564000  2
  10909  10931  10915  10919     1  0.0000000  0.4184000  3
  10909  10931  10915  10914     1  180.0000771  0.4184000  2
  10909  10931  10915  10914     1  0.0000000  1.6024720  3
  10910  10913  10914  10915     1  180.0000771  0.8368000  1
  10910  10913  10914  10915     1  180.0000771  1.0460000  2
  10910  10913  10914  10915     1  0.0000000  0.7531200  3
  10910  10913  10914  10920     1  0.0000000  0.6508444  3
  10910  10909  10923  10929     1  0.0000000  0.6508444  3
  10910  10909  10931  10915     1  180.0000771  0.4184000  2
  10910  10909  10931  10915     1  0.0000000  1.6024720  3
  10913  10914  10915  10919     1  0.0000000  0.6508444  3
  10913  10914  10915  10931     1  0.0000000  0.6508444  3
  10913  10910  10909  10923     1  180.0000771  0.8368000  1
  10913  10910  10909  10923     1  180.0000771  1.0460000  2
  10913  10910  10909  10923     1  0.0000000  0.7531200  3
  10913  10910  10909  10931     1  0.0000000  0.6508444  3
  10914  10913  10910  10922     1  0.0000000  0.6508444  3
  10915  10931  10909  10923     1  180.0000771  0.4184000  2
  10915  10931  10909  10923     1  0.0000000  1.6024720  3
  10915  10914  10913  10921     1  0.0000000  0.6508444  3
  10919  10915  10914  10920     1  0.0000000  4.9162000  2
  10919  10915  10914  10920     1  0.0000000  0.6024960  3
  10920  10914  10915  10931     1  0.0000000  4.9162000  2
  10920  10914  10915  10931     1  0.0000000  0.6024960  3
  10920  10914  10913  10921     1  0.0000000  4.9162000  2
  10920  10914  10913  10921     1  0.0000000  0.6024960  3
  10921  10913  10910  10922     1  0.0000000  4.9162000  2
  10921  10913  10910  10922     1  0.0000000  0.6024960  3
  10922  10910  10909  10923     1  0.0000000  0.6508444  3
  10922  10910  10909  10931     1  0.0000000  4.9162000  2
  10922  10910  10909  10931     1  0.0000000  0.6024960  3
  10929  10923  10909  10931     1  0.0000000  4.9162000  2
  10929  10923  10909  10931     1  0.0000000  0.6024960  3
  10932  10933  10936  10937     1  180.0000771  0.8368000  1
  10932  10933  10936  10937     1  180.0000771  1.0460000  2
  10932  10933  10936  10937     1  0.0000000  0.7531200  3
  10932  10933  10936  10944     1  0.0000000  0.6508444  3
  10932  10954  10938  10937     1  180.0000771  0.4184000  2
  10932  10954  10938  10937     1  0.0000000  1.6024720  3
  10932  10954  10938  10942     1  180.0000771  5.6484000  1
  10932  10954  10938  10942     1  180.0000771  3.5564000  2
  10932  10954  10938  10942     1  0.0000000  0.4184000  3
  10933  10932  10946  10952     1  0.0000000  0.6508444  3
  10933  10932  10954  10938     1  180.0000771  0.4184000  2
  10933  10932  10954  10938     1  0.0000000  1.6024720  3
  10933  10936  10937  10938     1  180.0000771  0.8368000  1
  10933  10936  10937  10938     1  180.0000771  1.0460000  2
  10933  10936  10937  10938     1  0.0000000  0.7531200  3
  10933  10936  10937  10943     1  0.0000000  0.6508444  3
  10936  10933  10932  10946     1  180.0000771  0.8368000  1
  10936  10933  10932  10946     1  180.0000771  1.0460000  2
  10936  10933  10932  10946     1  0.0000000  0.7531200  3
  10936  10933  10932  10954     1  0.0000000  0.6508444  3
  10936  10937  10938  10942     1  0.0000000  0.6508444  3
  10936  10937  10938  10954     1  0.0000000  0.6508444  3
  10937  10936  10933  10945     1  0.0000000  0.6508444  3
  10938  10937  10936  10944     1  0.0000000  0.6508444  3
  10938  10954  10932  10946     1  180.0000771  0.4184000  2
  10938  10954  10932  10946     1  0.0000000  1.6024720  3
  10942  10938  10937  10943     1  0.0000000  4.9162000  2
  10942  10938  10937  10943     1  0.0000000  0.6024960  3
  10943  10937  10936  10944     1  0.0000000  4.9162000  2
  10943  10937  10936  10944     1  0.0000000  0.6024960  3
  10943  10937  10938  10954     1  0.0000000  4.9162000  2
  10943  10937  10938  10954     1  0.0000000  0.6024960  3
  10944  10936  10933  10945     1  0.0000000  4.9162000  2
  10944  10936  10933  10945     1  0.0000000  0.6024960  3
  10945  10933  10932  10946     1  0.0000000  0.6508444  3
  10945  10933  10932  10954     1  0.0000000  4.9162000  2
  10945  10933  10932  10954     1  0.0000000  0.6024960  3
  10952  10946  10932  10954     1  0.0000000  4.9162000  2
  10952  10946  10932  10954     1  0.0000000  0.6024960  3
  10955  10956  10959  10960     1  180.0000771  0.8368000  1
  10955  10956  10959  10960     1  180.0000771  1.0460000  2
  10955  10956  10959  10960     1  0.0000000  0.7531200  3
  10955  10956  10959  10967     1  0.0000000  0.6508444  3
  10955  10977  10961  10965     1  180.0000771  5.6484000  1
  10955  10977  10961  10965     1  180.0000771  3.5564000  2
  10955  10977  10961  10965     1  0.0000000  0.4184000  3
  10955  10977  10961  10960     1  180.0000771  0.4184000  2
  10955  10977  10961  10960     1  0.0000000  1.6024720  3
  10956  10959  10960  10961     1  180.0000771  0.8368000  1
  10956  10959  10960  10961     1  180.0000771  1.0460000  2
  10956  10959  10960  10961     1  0.0000000  0.7531200  3
  10956  10959  10960  10966     1  0.0000000  0.6508444  3
  10956  10955  10969  10975     1  0.0000000  0.6508444  3
  10956  10955  10977  10961     1  180.0000771  0.4184000  2
  10956  10955  10977  10961     1  0.0000000  1.6024720  3
  10959  10960  10961  10965     1  0.0000000  0.6508444  3
  10959  10960  10961  10977     1  0.0000000  0.6508444  3
  10959  10956  10955  10969     1  180.0000771  0.8368000  1
  10959  10956  10955  10969     1  180.0000771  1.0460000  2
  10959  10956  10955  10969     1  0.0000000  0.7531200  3
  10959  10956  10955  10977     1  0.0000000  0.6508444  3
  10960  10959  10956  10968     1  0.0000000  0.6508444  3
  10961  10977  10955  10969     1  180.0000771  0.4184000  2
  10961  10977  10955  10969     1  0.0000000  1.6024720  3
  10961  10960  10959  10967     1  0.0000000  0.6508444  3
  10965  10961  10960  10966     1  0.0000000  4.9162000  2
  10965  10961  10960  10966     1  0.0000000  0.6024960  3
  10966  10960  10961  10977     1  0.0000000  4.9162000  2
  10966  10960  10961  10977     1  0.0000000  0.6024960  3
  10966  10960  10959  10967     1  0.0000000  4.9162000  2
  10966  10960  10959  10967     1  0.0000000  0.6024960  3
  10967  10959  10956  10968     1  0.0000000  4.9162000  2
  10967  10959  10956  10968     1  0.0000000  0.6024960  3
  10968  10956  10955  10969     1  0.0000000  0.6508444  3
  10968  10956  10955  10977     1  0.0000000  4.9162000  2
  10968  10956  10955  10977     1  0.0000000  0.6024960  3
  10975  10969  10955  10977     1  0.0000000  4.9162000  2
  10975  10969  10955  10977     1  0.0000000  0.6024960  3
  10978  10979  10982  10983     1  180.0000771  0.8368000  1
  10978  10979  10982  10983     1  180.0000771  1.0460000  2
  10978  10979  10982  10983     1  0.0000000  0.7531200  3
  10978  10979  10982  10990     1  0.0000000  0.6508444  3
  10978  11000  10984  10983     1  180.0000771  0.4184000  2
  10978  11000  10984  10983     1  0.0000000  1.6024720  3
  10978  11000  10984  10988     1  180.0000771  5.6484000  1
  10978  11000  10984  10988     1  180.0000771  3.5564000  2
  10978  11000  10984  10988     1  0.0000000  0.4184000  3
  10979  10978  10992  10998     1  0.0000000  0.6508444  3
  10979  10978  11000  10984     1  180.0000771  0.4184000  2
  10979  10978  11000  10984     1  0.0000000  1.6024720  3
  10979  10982  10983  10984     1  180.0000771  0.8368000  1
  10979  10982  10983  10984     1  180.0000771  1.0460000  2
  10979  10982  10983  10984     1  0.0000000  0.7531200  3
  10979  10982  10983  10989     1  0.0000000  0.6508444  3
  10982  10979  10978  10992     1  180.0000771  0.8368000  1
  10982  10979  10978  10992     1  180.0000771  1.0460000  2
  10982  10979  10978  10992     1  0.0000000  0.7531200  3
  10982  10979  10978  11000     1  0.0000000  0.6508444  3
  10982  10983  10984  10988     1  0.0000000  0.6508444  3
  10982  10983  10984  11000     1  0.0000000  0.6508444  3
  10983  10982  10979  10991     1  0.0000000  0.6508444  3
  10984  10983  10982  10990     1  0.0000000  0.6508444  3
  10984  11000  10978  10992     1  180.0000771  0.4184000  2
  10984  11000  10978  10992     1  0.0000000  1.6024720  3
  10988  10984  10983  10989     1  0.0000000  4.9162000  2
  10988  10984  10983  10989     1  0.0000000  0.6024960  3
  10989  10983  10982  10990     1  0.0000000  4.9162000  2
  10989  10983  10982  10990     1  0.0000000  0.6024960  3
  10989  10983  10984  11000     1  0.0000000  4.9162000  2
  10989  10983  10984  11000     1  0.0000000  0.6024960  3
  10990  10982  10979  10991     1  0.0000000  4.9162000  2
  10990  10982  10979  10991     1  0.0000000  0.6024960  3
  10991  10979  10978  10992     1  0.0000000  0.6508444  3
  10991  10979  10978  11000     1  0.0000000  4.9162000  2
  10991  10979  10978  11000     1  0.0000000  0.6024960  3
  10998  10992  10978  11000     1  0.0000000  4.9162000  2
  10998  10992  10978  11000     1  0.0000000  0.6024960  3
  11001  11002  11005  11006     1  180.0000771  0.8368000  1
  11001  11002  11005  11006     1  180.0000771  1.0460000  2
  11001  11002  11005  11006     1  0.0000000  0.7531200  3
  11001  11002  11005  11013     1  0.0000000  0.6508444  3
  11001  11023  11007  11011     1  180.0000771  5.6484000  1
  11001  11023  11007  11011     1  180.0000771  3.5564000  2
  11001  11023  11007  11011     1  0.0000000  0.4184000  3
  11001  11023  11007  11006     1  180.0000771  0.4184000  2
  11001  11023  11007  11006     1  0.0000000  1.6024720  3
  11002  11005  11006  11007     1  180.0000771  0.8368000  1
  11002  11005  11006  11007     1  180.0000771  1.0460000  2
  11002  11005  11006  11007     1  0.0000000  0.7531200  3
  11002  11005  11006  11012     1  0.0000000  0.6508444  3
  11002  11001  11015  11021     1  0.0000000  0.6508444  3
  11002  11001  11023  11007     1  180.0000771  0.4184000  2
  11002  11001  11023  11007     1  0.0000000  1.6024720  3
  11005  11006  11007  11011     1  0.0000000  0.6508444  3
  11005  11006  11007  11023     1  0.0000000  0.6508444  3
  11005  11002  11001  11015     1  180.0000771  0.8368000  1
  11005  11002  11001  11015     1  180.0000771  1.0460000  2
  11005  11002  11001  11015     1  0.0000000  0.7531200  3
  11005  11002  11001  11023     1  0.0000000  0.6508444  3
  11006  11005  11002  11014     1  0.0000000  0.6508444  3
  11007  11023  11001  11015     1  180.0000771  0.4184000  2
  11007  11023  11001  11015     1  0.0000000  1.6024720  3
  11007  11006  11005  11013     1  0.0000000  0.6508444  3
  11011  11007  11006  11012     1  0.0000000  4.9162000  2
  11011  11007  11006  11012     1  0.0000000  0.6024960  3
  11012  11006  11007  11023     1  0.0000000  4.9162000  2
  11012  11006  11007  11023     1  0.0000000  0.6024960  3
  11012  11006  11005  11013     1  0.0000000  4.9162000  2
  11012  11006  11005  11013     1  0.0000000  0.6024960  3
  11013  11005  11002  11014     1  0.0000000  4.9162000  2
  11013  11005  11002  11014     1  0.0000000  0.6024960  3
  11014  11002  11001  11015     1  0.0000000  0.6508444  3
  11014  11002  11001  11023     1  0.0000000  4.9162000  2
  11014  11002  11001  11023     1  0.0000000  0.6024960  3
  11021  11015  11001  11023     1  0.0000000  4.9162000  2
  11021  11015  11001  11023     1  0.0000000  0.6024960  3
  11024  11025  11028  11029     1  180.0000771  0.8368000  1
  11024  11025  11028  11029     1  180.0000771  1.0460000  2
  11024  11025  11028  11029     1  0.0000000  0.7531200  3
  11024  11025  11028  11036     1  0.0000000  0.6508444  3
  11024  11046  11030  11029     1  180.0000771  0.4184000  2
  11024  11046  11030  11029     1  0.0000000  1.6024720  3
  11024  11046  11030  11034     1  180.0000771  5.6484000  1
  11024  11046  11030  11034     1  180.0000771  3.5564000  2
  11024  11046  11030  11034     1  0.0000000  0.4184000  3
  11025  11024  11038  11044     1  0.0000000  0.6508444  3
  11025  11024  11046  11030     1  180.0000771  0.4184000  2
  11025  11024  11046  11030     1  0.0000000  1.6024720  3
  11025  11028  11029  11030     1  180.0000771  0.8368000  1
  11025  11028  11029  11030     1  180.0000771  1.0460000  2
  11025  11028  11029  11030     1  0.0000000  0.7531200  3
  11025  11028  11029  11035     1  0.0000000  0.6508444  3
  11028  11025  11024  11038     1  180.0000771  0.8368000  1
  11028  11025  11024  11038     1  180.0000771  1.0460000  2
  11028  11025  11024  11038     1  0.0000000  0.7531200  3
  11028  11025  11024  11046     1  0.0000000  0.6508444  3
  11028  11029  11030  11034     1  0.0000000  0.6508444  3
  11028  11029  11030  11046     1  0.0000000  0.6508444  3
  11029  11028  11025  11037     1  0.0000000  0.6508444  3
  11030  11029  11028  11036     1  0.0000000  0.6508444  3
  11030  11046  11024  11038     1  180.0000771  0.4184000  2
  11030  11046  11024  11038     1  0.0000000  1.6024720  3
  11034  11030  11029  11035     1  0.0000000  4.9162000  2
  11034  11030  11029  11035     1  0.0000000  0.6024960  3
  11035  11029  11028  11036     1  0.0000000  4.9162000  2
  11035  11029  11028  11036     1  0.0000000  0.6024960  3
  11035  11029  11030  11046     1  0.0000000  4.9162000  2
  11035  11029  11030  11046     1  0.0000000  0.6024960  3
  11036  11028  11025  11037     1  0.0000000  4.9162000  2
  11036  11028  11025  11037     1  0.0000000  0.6024960  3
  11037  11025  11024  11038     1  0.0000000  0.6508444  3
  11037  11025  11024  11046     1  0.0000000  4.9162000  2
  11037  11025  11024  11046     1  0.0000000  0.6024960  3
  11044  11038  11024  11046     1  0.0000000  4.9162000  2
  11044  11038  11024  11046     1  0.0000000  0.6024960  3
  11047  11048  11051  11052     1  180.0000771  0.8368000  1
  11047  11048  11051  11052     1  180.0000771  1.0460000  2
  11047  11048  11051  11052     1  0.0000000  0.7531200  3
  11047  11048  11051  11059     1  0.0000000  0.6508444  3
  11047  11069  11053  11057     1  180.0000771  5.6484000  1
  11047  11069  11053  11057     1  180.0000771  3.5564000  2
  11047  11069  11053  11057     1  0.0000000  0.4184000  3
  11047  11069  11053  11052     1  180.0000771  0.4184000  2
  11047  11069  11053  11052     1  0.0000000  1.6024720  3
  11048  11051  11052  11053     1  180.0000771  0.8368000  1
  11048  11051  11052  11053     1  180.0000771  1.0460000  2
  11048  11051  11052  11053     1  0.0000000  0.7531200  3
  11048  11051  11052  11058     1  0.0000000  0.6508444  3
  11048  11047  11061  11067     1  0.0000000  0.6508444  3
  11048  11047  11069  11053     1  180.0000771  0.4184000  2
  11048  11047  11069  11053     1  0.0000000  1.6024720  3
  11051  11052  11053  11057     1  0.0000000  0.6508444  3
  11051  11052  11053  11069     1  0.0000000  0.6508444  3
  11051  11048  11047  11061     1  180.0000771  0.8368000  1
  11051  11048  11047  11061     1  180.0000771  1.0460000  2
  11051  11048  11047  11061     1  0.0000000  0.7531200  3
  11051  11048  11047  11069     1  0.0000000  0.6508444  3
  11052  11051  11048  11060     1  0.0000000  0.6508444  3
  11053  11069  11047  11061     1  180.0000771  0.4184000  2
  11053  11069  11047  11061     1  0.0000000  1.6024720  3
  11053  11052  11051  11059     1  0.0000000  0.6508444  3
  11057  11053  11052  11058     1  0.0000000  4.9162000  2
  11057  11053  11052  11058     1  0.0000000  0.6024960  3
  11058  11052  11053  11069     1  0.0000000  4.9162000  2
  11058  11052  11053  11069     1  0.0000000  0.6024960  3
  11058  11052  11051  11059     1  0.0000000  4.9162000  2
  11058  11052  11051  11059     1  0.0000000  0.6024960  3
  11059  11051  11048  11060     1  0.0000000  4.9162000  2
  11059  11051  11048  11060     1  0.0000000  0.6024960  3
  11060  11048  11047  11061     1  0.0000000  0.6508444  3
  11060  11048  11047  11069     1  0.0000000  4.9162000  2
  11060  11048  11047  11069     1  0.0000000  0.6024960  3
  11067  11061  11047  11069     1  0.0000000  4.9162000  2
  11067  11061  11047  11069     1  0.0000000  0.6024960  3
  11070  11071  11074  11075     1  180.0000771  0.8368000  1
  11070  11071  11074  11075     1  180.0000771  1.0460000  2
  11070  11071  11074  11075     1  0.0000000  0.7531200  3
  11070  11071  11074  11082     1  0.0000000  0.6508444  3
  11070  11092  11076  11075     1  180.0000771  0.4184000  2
  11070  11092  11076  11075     1  0.0000000  1.6024720  3
  11070  11092  11076  11080     1  180.0000771  5.6484000  1
  11070  11092  11076  11080     1  180.0000771  3.5564000  2
  11070  11092  11076  11080     1  0.0000000  0.4184000  3
  11071  11070  11084  11090     1  0.0000000  0.6508444  3
  11071  11070  11092  11076     1  180.0000771  0.4184000  2
  11071  11070  11092  11076     1  0.0000000  1.6024720  3
  11071  11074  11075  11076     1  180.0000771  0.8368000  1
  11071  11074  11075  11076     1  180.0000771  1.0460000  2
  11071  11074  11075  11076     1  0.0000000  0.7531200  3
  11071  11074  11075  11081     1  0.0000000  0.6508444  3
  11074  11071  11070  11084     1  180.0000771  0.8368000  1
  11074  11071  11070  11084     1  180.0000771  1.0460000  2
  11074  11071  11070  11084     1  0.0000000  0.7531200  3
  11074  11071  11070  11092     1  0.0000000  0.6508444  3
  11074  11075  11076  11080     1  0.0000000  0.6508444  3
  11074  11075  11076  11092     1  0.0000000  0.6508444  3
  11075  11074  11071  11083     1  0.0000000  0.6508444  3
  11076  11075  11074  11082     1  0.0000000  0.6508444  3
  11076  11092  11070  11084     1  180.0000771  0.4184000  2
  11076  11092  11070  11084     1  0.0000000  1.6024720  3
  11080  11076  11075  11081     1  0.0000000  4.9162000  2
  11080  11076  11075  11081     1  0.0000000  0.6024960  3
  11081  11075  11074  11082     1  0.0000000  4.9162000  2
  11081  11075  11074  11082     1  0.0000000  0.6024960  3
  11081  11075  11076  11092     1  0.0000000  4.9162000  2
  11081  11075  11076  11092     1  0.0000000  0.6024960  3
  11082  11074  11071  11083     1  0.0000000  4.9162000  2
  11082  11074  11071  11083     1  0.0000000  0.6024960  3
  11083  11071  11070  11084     1  0.0000000  0.6508444  3
  11083  11071  11070  11092     1  0.0000000  4.9162000  2
  11083  11071  11070  11092     1  0.0000000  0.6024960  3
  11090  11084  11070  11092     1  0.0000000  4.9162000  2
  11090  11084  11070  11092     1  0.0000000  0.6024960  3
  11093  11094  11097  11098     1  180.0000771  0.8368000  1
  11093  11094  11097  11098     1  180.0000771  1.0460000  2
  11093  11094  11097  11098     1  0.0000000  0.7531200  3
  11093  11094  11097  11105     1  0.0000000  0.6508444  3
  11093  11115  11099  11103     1  180.0000771  5.6484000  1
  11093  11115  11099  11103     1  180.0000771  3.5564000  2
  11093  11115  11099  11103     1  0.0000000  0.4184000  3
  11093  11115  11099  11098     1  180.0000771  0.4184000  2
  11093  11115  11099  11098     1  0.0000000  1.6024720  3
  11094  11097  11098  11099     1  180.0000771  0.8368000  1
  11094  11097  11098  11099     1  180.0000771  1.0460000  2
  11094  11097  11098  11099     1  0.0000000  0.7531200  3
  11094  11097  11098  11104     1  0.0000000  0.6508444  3
  11094  11093  11107  11113     1  0.0000000  0.6508444  3
  11094  11093  11115  11099     1  180.0000771  0.4184000  2
  11094  11093  11115  11099     1  0.0000000  1.6024720  3
  11097  11098  11099  11103     1  0.0000000  0.6508444  3
  11097  11098  11099  11115     1  0.0000000  0.6508444  3
  11097  11094  11093  11107     1  180.0000771  0.8368000  1
  11097  11094  11093  11107     1  180.0000771  1.0460000  2
  11097  11094  11093  11107     1  0.0000000  0.7531200  3
  11097  11094  11093  11115     1  0.0000000  0.6508444  3
  11098  11097  11094  11106     1  0.0000000  0.6508444  3
  11099  11115  11093  11107     1  180.0000771  0.4184000  2
  11099  11115  11093  11107     1  0.0000000  1.6024720  3
  11099  11098  11097  11105     1  0.0000000  0.6508444  3
  11103  11099  11098  11104     1  0.0000000  4.9162000  2
  11103  11099  11098  11104     1  0.0000000  0.6024960  3
  11104  11098  11099  11115     1  0.0000000  4.9162000  2
  11104  11098  11099  11115     1  0.0000000  0.6024960  3
  11104  11098  11097  11105     1  0.0000000  4.9162000  2
  11104  11098  11097  11105     1  0.0000000  0.6024960  3
  11105  11097  11094  11106     1  0.0000000  4.9162000  2
  11105  11097  11094  11106     1  0.0000000  0.6024960  3
  11106  11094  11093  11107     1  0.0000000  0.6508444  3
  11106  11094  11093  11115     1  0.0000000  4.9162000  2
  11106  11094  11093  11115     1  0.0000000  0.6024960  3
  11113  11107  11093  11115     1  0.0000000  4.9162000  2
  11113  11107  11093  11115     1  0.0000000  0.6024960  3
  11116  11117  11120  11121     1  180.0000771  0.8368000  1
  11116  11117  11120  11121     1  180.0000771  1.0460000  2
  11116  11117  11120  11121     1  0.0000000  0.7531200  3
  11116  11117  11120  11128     1  0.0000000  0.6508444  3
  11116  11138  11122  11121     1  180.0000771  0.4184000  2
  11116  11138  11122  11121     1  0.0000000  1.6024720  3
  11116  11138  11122  11126     1  180.0000771  5.6484000  1
  11116  11138  11122  11126     1  180.0000771  3.5564000  2
  11116  11138  11122  11126     1  0.0000000  0.4184000  3
  11117  11116  11130  11136     1  0.0000000  0.6508444  3
  11117  11116  11138  11122     1  180.0000771  0.4184000  2
  11117  11116  11138  11122     1  0.0000000  1.6024720  3
  11117  11120  11121  11122     1  180.0000771  0.8368000  1
  11117  11120  11121  11122     1  180.0000771  1.0460000  2
  11117  11120  11121  11122     1  0.0000000  0.7531200  3
  11117  11120  11121  11127     1  0.0000000  0.6508444  3
  11120  11117  11116  11130     1  180.0000771  0.8368000  1
  11120  11117  11116  11130     1  180.0000771  1.0460000  2
  11120  11117  11116  11130     1  0.0000000  0.7531200  3
  11120  11117  11116  11138     1  0.0000000  0.6508444  3
  11120  11121  11122  11126     1  0.0000000  0.6508444  3
  11120  11121  11122  11138     1  0.0000000  0.6508444  3
  11121  11120  11117  11129     1  0.0000000  0.6508444  3
  11122  11121  11120  11128     1  0.0000000  0.6508444  3
  11122  11138  11116  11130     1  180.0000771  0.4184000  2
  11122  11138  11116  11130     1  0.0000000  1.6024720  3
  11126  11122  11121  11127     1  0.0000000  4.9162000  2
  11126  11122  11121  11127     1  0.0000000  0.6024960  3
  11127  11121  11120  11128     1  0.0000000  4.9162000  2
  11127  11121  11120  11128     1  0.0000000  0.6024960  3
  11127  11121  11122  11138     1  0.0000000  4.9162000  2
  11127  11121  11122  11138     1  0.0000000  0.6024960  3
  11128  11120  11117  11129     1  0.0000000  4.9162000  2
  11128  11120  11117  11129     1  0.0000000  0.6024960  3
  11129  11117  11116  11130     1  0.0000000  0.6508444  3
  11129  11117  11116  11138     1  0.0000000  4.9162000  2
  11129  11117  11116  11138     1  0.0000000  0.6024960  3
  11136  11130  11116  11138     1  0.0000000  4.9162000  2
  11136  11130  11116  11138     1  0.0000000  0.6024960  3
  11139  11140  11143  11144     1  180.0000771  0.8368000  1
  11139  11140  11143  11144     1  180.0000771  1.0460000  2
  11139  11140  11143  11144     1  0.0000000  0.7531200  3
  11139  11140  11143  11151     1  0.0000000  0.6508444  3
  11139  11161  11145  11149     1  180.0000771  5.6484000  1
  11139  11161  11145  11149     1  180.0000771  3.5564000  2
  11139  11161  11145  11149     1  0.0000000  0.4184000  3
  11139  11161  11145  11144     1  180.0000771  0.4184000  2
  11139  11161  11145  11144     1  0.0000000  1.6024720  3
  11140  11143  11144  11145     1  180.0000771  0.8368000  1
  11140  11143  11144  11145     1  180.0000771  1.0460000  2
  11140  11143  11144  11145     1  0.0000000  0.7531200  3
  11140  11143  11144  11150     1  0.0000000  0.6508444  3
  11140  11139  11153  11159     1  0.0000000  0.6508444  3
  11140  11139  11161  11145     1  180.0000771  0.4184000  2
  11140  11139  11161  11145     1  0.0000000  1.6024720  3
  11143  11144  11145  11149     1  0.0000000  0.6508444  3
  11143  11144  11145  11161     1  0.0000000  0.6508444  3
  11143  11140  11139  11153     1  180.0000771  0.8368000  1
  11143  11140  11139  11153     1  180.0000771  1.0460000  2
  11143  11140  11139  11153     1  0.0000000  0.7531200  3
  11143  11140  11139  11161     1  0.0000000  0.6508444  3
  11144  11143  11140  11152     1  0.0000000  0.6508444  3
  11145  11161  11139  11153     1  180.0000771  0.4184000  2
  11145  11161  11139  11153     1  0.0000000  1.6024720  3
  11145  11144  11143  11151     1  0.0000000  0.6508444  3
  11149  11145  11144  11150     1  0.0000000  4.9162000  2
  11149  11145  11144  11150     1  0.0000000  0.6024960  3
  11150  11144  11145  11161     1  0.0000000  4.9162000  2
  11150  11144  11145  11161     1  0.0000000  0.6024960  3
  11150  11144  11143  11151     1  0.0000000  4.9162000  2
  11150  11144  11143  11151     1  0.0000000  0.6024960  3
  11151  11143  11140  11152     1  0.0000000  4.9162000  2
  11151  11143  11140  11152     1  0.0000000  0.6024960  3
  11152  11140  11139  11153     1  0.0000000  0.6508444  3
  11152  11140  11139  11161     1  0.0000000  4.9162000  2
  11152  11140  11139  11161     1  0.0000000  0.6024960  3
  11159  11153  11139  11161     1  0.0000000  4.9162000  2
  11159  11153  11139  11161     1  0.0000000  0.6024960  3
  11162  11163  11166  11167     1  180.0000771  0.8368000  1
  11162  11163  11166  11167     1  180.0000771  1.0460000  2
  11162  11163  11166  11167     1  0.0000000  0.7531200  3
  11162  11163  11166  11174     1  0.0000000  0.6508444  3
  11162  11184  11168  11167     1  180.0000771  0.4184000  2
  11162  11184  11168  11167     1  0.0000000  1.6024720  3
  11162  11184  11168  11172     1  180.0000771  5.6484000  1
  11162  11184  11168  11172     1  180.0000771  3.5564000  2
  11162  11184  11168  11172     1  0.0000000  0.4184000  3
  11163  11162  11176  11182     1  0.0000000  0.6508444  3
  11163  11162  11184  11168     1  180.0000771  0.4184000  2
  11163  11162  11184  11168     1  0.0000000  1.6024720  3
  11163  11166  11167  11168     1  180.0000771  0.8368000  1
  11163  11166  11167  11168     1  180.0000771  1.0460000  2
  11163  11166  11167  11168     1  0.0000000  0.7531200  3
  11163  11166  11167  11173     1  0.0000000  0.6508444  3
  11166  11163  11162  11176     1  180.0000771  0.8368000  1
  11166  11163  11162  11176     1  180.0000771  1.0460000  2
  11166  11163  11162  11176     1  0.0000000  0.7531200  3
  11166  11163  11162  11184     1  0.0000000  0.6508444  3
  11166  11167  11168  11172     1  0.0000000  0.6508444  3
  11166  11167  11168  11184     1  0.0000000  0.6508444  3
  11167  11166  11163  11175     1  0.0000000  0.6508444  3
  11168  11167  11166  11174     1  0.0000000  0.6508444  3
  11168  11184  11162  11176     1  180.0000771  0.4184000  2
  11168  11184  11162  11176     1  0.0000000  1.6024720  3
  11172  11168  11167  11173     1  0.0000000  4.9162000  2
  11172  11168  11167  11173     1  0.0000000  0.6024960  3
  11173  11167  11166  11174     1  0.0000000  4.9162000  2
  11173  11167  11166  11174     1  0.0000000  0.6024960  3
  11173  11167  11168  11184     1  0.0000000  4.9162000  2
  11173  11167  11168  11184     1  0.0000000  0.6024960  3
  11174  11166  11163  11175     1  0.0000000  4.9162000  2
  11174  11166  11163  11175     1  0.0000000  0.6024960  3
  11175  11163  11162  11176     1  0.0000000  0.6508444  3
  11175  11163  11162  11184     1  0.0000000  4.9162000  2
  11175  11163  11162  11184     1  0.0000000  0.6024960  3
  11182  11176  11162  11184     1  0.0000000  4.9162000  2
  11182  11176  11162  11184     1  0.0000000  0.6024960  3
  11185  11186  11189  11190     1  180.0000771  0.8368000  1
  11185  11186  11189  11190     1  180.0000771  1.0460000  2
  11185  11186  11189  11190     1  0.0000000  0.7531200  3
  11185  11186  11189  11197     1  0.0000000  0.6508444  3
  11185  11207  11191  11195     1  180.0000771  5.6484000  1
  11185  11207  11191  11195     1  180.0000771  3.5564000  2
  11185  11207  11191  11195     1  0.0000000  0.4184000  3
  11185  11207  11191  11190     1  180.0000771  0.4184000  2
  11185  11207  11191  11190     1  0.0000000  1.6024720  3
  11186  11189  11190  11191     1  180.0000771  0.8368000  1
  11186  11189  11190  11191     1  180.0000771  1.0460000  2
  11186  11189  11190  11191     1  0.0000000  0.7531200  3
  11186  11189  11190  11196     1  0.0000000  0.6508444  3
  11186  11185  11199  11205     1  0.0000000  0.6508444  3
  11186  11185  11207  11191     1  180.0000771  0.4184000  2
  11186  11185  11207  11191     1  0.0000000  1.6024720  3
  11189  11190  11191  11195     1  0.0000000  0.6508444  3
  11189  11190  11191  11207     1  0.0000000  0.6508444  3
  11189  11186  11185  11199     1  180.0000771  0.8368000  1
  11189  11186  11185  11199     1  180.0000771  1.0460000  2
  11189  11186  11185  11199     1  0.0000000  0.7531200  3
  11189  11186  11185  11207     1  0.0000000  0.6508444  3
  11190  11189  11186  11198     1  0.0000000  0.6508444  3
  11191  11207  11185  11199     1  180.0000771  0.4184000  2
  11191  11207  11185  11199     1  0.0000000  1.6024720  3
  11191  11190  11189  11197     1  0.0000000  0.6508444  3
  11195  11191  11190  11196     1  0.0000000  4.9162000  2
  11195  11191  11190  11196     1  0.0000000  0.6024960  3
  11196  11190  11191  11207     1  0.0000000  4.9162000  2
  11196  11190  11191  11207     1  0.0000000  0.6024960  3
  11196  11190  11189  11197     1  0.0000000  4.9162000  2
  11196  11190  11189  11197     1  0.0000000  0.6024960  3
  11197  11189  11186  11198     1  0.0000000  4.9162000  2
  11197  11189  11186  11198     1  0.0000000  0.6024960  3
  11198  11186  11185  11199     1  0.0000000  0.6508444  3
  11198  11186  11185  11207     1  0.0000000  4.9162000  2
  11198  11186  11185  11207     1  0.0000000  0.6024960  3
  11205  11199  11185  11207     1  0.0000000  4.9162000  2
  11205  11199  11185  11207     1  0.0000000  0.6024960  3
  11208  11209  11212  11213     1  180.0000771  0.8368000  1
  11208  11209  11212  11213     1  180.0000771  1.0460000  2
  11208  11209  11212  11213     1  0.0000000  0.7531200  3
  11208  11209  11212  11220     1  0.0000000  0.6508444  3
  11208  11230  11214  11213     1  180.0000771  0.4184000  2
  11208  11230  11214  11213     1  0.0000000  1.6024720  3
  11208  11230  11214  11218     1  180.0000771  5.6484000  1
  11208  11230  11214  11218     1  180.0000771  3.5564000  2
  11208  11230  11214  11218     1  0.0000000  0.4184000  3
  11209  11208  11222  11228     1  0.0000000  0.6508444  3
  11209  11208  11230  11214     1  180.0000771  0.4184000  2
  11209  11208  11230  11214     1  0.0000000  1.6024720  3
  11209  11212  11213  11214     1  180.0000771  0.8368000  1
  11209  11212  11213  11214     1  180.0000771  1.0460000  2
  11209  11212  11213  11214     1  0.0000000  0.7531200  3
  11209  11212  11213  11219     1  0.0000000  0.6508444  3
  11212  11209  11208  11222     1  180.0000771  0.8368000  1
  11212  11209  11208  11222     1  180.0000771  1.0460000  2
  11212  11209  11208  11222     1  0.0000000  0.7531200  3
  11212  11209  11208  11230     1  0.0000000  0.6508444  3
  11212  11213  11214  11218     1  0.0000000  0.6508444  3
  11212  11213  11214  11230     1  0.0000000  0.6508444  3
  11213  11212  11209  11221     1  0.0000000  0.6508444  3
  11214  11213  11212  11220     1  0.0000000  0.6508444  3
  11214  11230  11208  11222     1  180.0000771  0.4184000  2
  11214  11230  11208  11222     1  0.0000000  1.6024720  3
  11218  11214  11213  11219     1  0.0000000  4.9162000  2
  11218  11214  11213  11219     1  0.0000000  0.6024960  3
  11219  11213  11212  11220     1  0.0000000  4.9162000  2
  11219  11213  11212  11220     1  0.0000000  0.6024960  3
  11219  11213  11214  11230     1  0.0000000  4.9162000  2
  11219  11213  11214  11230     1  0.0000000  0.6024960  3
  11220  11212  11209  11221     1  0.0000000  4.9162000  2
  11220  11212  11209  11221     1  0.0000000  0.6024960  3
  11221  11209  11208  11222     1  0.0000000  0.6508444  3
  11221  11209  11208  11230     1  0.0000000  4.9162000  2
  11221  11209  11208  11230     1  0.0000000  0.6024960  3
  11228  11222  11208  11230     1  0.0000000  4.9162000  2
  11228  11222  11208  11230     1  0.0000000  0.6024960  3
  11231  11232  11235  11236     1  180.0000771  0.8368000  1
  11231  11232  11235  11236     1  180.0000771  1.0460000  2
  11231  11232  11235  11236     1  0.0000000  0.7531200  3
  11231  11232  11235  11243     1  0.0000000  0.6508444  3
  11231  11253  11237  11241     1  180.0000771  5.6484000  1
  11231  11253  11237  11241     1  180.0000771  3.5564000  2
  11231  11253  11237  11241     1  0.0000000  0.4184000  3
  11231  11253  11237  11236     1  180.0000771  0.4184000  2
  11231  11253  11237  11236     1  0.0000000  1.6024720  3
  11232  11235  11236  11237     1  180.0000771  0.8368000  1
  11232  11235  11236  11237     1  180.0000771  1.0460000  2
  11232  11235  11236  11237     1  0.0000000  0.7531200  3
  11232  11235  11236  11242     1  0.0000000  0.6508444  3
  11232  11231  11245  11251     1  0.0000000  0.6508444  3
  11232  11231  11253  11237     1  180.0000771  0.4184000  2
  11232  11231  11253  11237     1  0.0000000  1.6024720  3
  11235  11236  11237  11241     1  0.0000000  0.6508444  3
  11235  11236  11237  11253     1  0.0000000  0.6508444  3
  11235  11232  11231  11245     1  180.0000771  0.8368000  1
  11235  11232  11231  11245     1  180.0000771  1.0460000  2
  11235  11232  11231  11245     1  0.0000000  0.7531200  3
  11235  11232  11231  11253     1  0.0000000  0.6508444  3
  11236  11235  11232  11244     1  0.0000000  0.6508444  3
  11237  11253  11231  11245     1  180.0000771  0.4184000  2
  11237  11253  11231  11245     1  0.0000000  1.6024720  3
  11237  11236  11235  11243     1  0.0000000  0.6508444  3
  11241  11237  11236  11242     1  0.0000000  4.9162000  2
  11241  11237  11236  11242     1  0.0000000  0.6024960  3
  11242  11236  11237  11253     1  0.0000000  4.9162000  2
  11242  11236  11237  11253     1  0.0000000  0.6024960  3
  11242  11236  11235  11243     1  0.0000000  4.9162000  2
  11242  11236  11235  11243     1  0.0000000  0.6024960  3
  11243  11235  11232  11244     1  0.0000000  4.9162000  2
  11243  11235  11232  11244     1  0.0000000  0.6024960  3
  11244  11232  11231  11245     1  0.0000000  0.6508444  3
  11244  11232  11231  11253     1  0.0000000  4.9162000  2
  11244  11232  11231  11253     1  0.0000000  0.6024960  3
  11251  11245  11231  11253     1  0.0000000  4.9162000  2
  11251  11245  11231  11253     1  0.0000000  0.6024960  3
  11254  11255  11258  11259     1  180.0000771  0.8368000  1
  11254  11255  11258  11259     1  180.0000771  1.0460000  2
  11254  11255  11258  11259     1  0.0000000  0.7531200  3
  11254  11255  11258  11266     1  0.0000000  0.6508444  3
  11254  11276  11260  11259     1  180.0000771  0.4184000  2
  11254  11276  11260  11259     1  0.0000000  1.6024720  3
  11254  11276  11260  11264     1  180.0000771  5.6484000  1
  11254  11276  11260  11264     1  180.0000771  3.5564000  2
  11254  11276  11260  11264     1  0.0000000  0.4184000  3
  11255  11254  11268  11274     1  0.0000000  0.6508444  3
  11255  11254  11276  11260     1  180.0000771  0.4184000  2
  11255  11254  11276  11260     1  0.0000000  1.6024720  3
  11255  11258  11259  11260     1  180.0000771  0.8368000  1
  11255  11258  11259  11260     1  180.0000771  1.0460000  2
  11255  11258  11259  11260     1  0.0000000  0.7531200  3
  11255  11258  11259  11265     1  0.0000000  0.6508444  3
  11258  11255  11254  11268     1  180.0000771  0.8368000  1
  11258  11255  11254  11268     1  180.0000771  1.0460000  2
  11258  11255  11254  11268     1  0.0000000  0.7531200  3
  11258  11255  11254  11276     1  0.0000000  0.6508444  3
  11258  11259  11260  11264     1  0.0000000  0.6508444  3
  11258  11259  11260  11276     1  0.0000000  0.6508444  3
  11259  11258  11255  11267     1  0.0000000  0.6508444  3
  11260  11259  11258  11266     1  0.0000000  0.6508444  3
  11260  11276  11254  11268     1  180.0000771  0.4184000  2
  11260  11276  11254  11268     1  0.0000000  1.6024720  3
  11264  11260  11259  11265     1  0.0000000  4.9162000  2
  11264  11260  11259  11265     1  0.0000000  0.6024960  3
  11265  11259  11258  11266     1  0.0000000  4.9162000  2
  11265  11259  11258  11266     1  0.0000000  0.6024960  3
  11265  11259  11260  11276     1  0.0000000  4.9162000  2
  11265  11259  11260  11276     1  0.0000000  0.6024960  3
  11266  11258  11255  11267     1  0.0000000  4.9162000  2
  11266  11258  11255  11267     1  0.0000000  0.6024960  3
  11267  11255  11254  11268     1  0.0000000  0.6508444  3
  11267  11255  11254  11276     1  0.0000000  4.9162000  2
  11267  11255  11254  11276     1  0.0000000  0.6024960  3
  11274  11268  11254  11276     1  0.0000000  4.9162000  2
  11274  11268  11254  11276     1  0.0000000  0.6024960  3
  11277  11278  11281  11282     1  180.0000771  0.8368000  1
  11277  11278  11281  11282     1  180.0000771  1.0460000  2
  11277  11278  11281  11282     1  0.0000000  0.7531200  3
  11277  11278  11281  11289     1  0.0000000  0.6508444  3
  11277  11299  11283  11287     1  180.0000771  5.6484000  1
  11277  11299  11283  11287     1  180.0000771  3.5564000  2
  11277  11299  11283  11287     1  0.0000000  0.4184000  3
  11277  11299  11283  11282     1  180.0000771  0.4184000  2
  11277  11299  11283  11282     1  0.0000000  1.6024720  3
  11278  11281  11282  11283     1  180.0000771  0.8368000  1
  11278  11281  11282  11283     1  180.0000771  1.0460000  2
  11278  11281  11282  11283     1  0.0000000  0.7531200  3
  11278  11281  11282  11288     1  0.0000000  0.6508444  3
  11278  11277  11291  11297     1  0.0000000  0.6508444  3
  11278  11277  11299  11283     1  180.0000771  0.4184000  2
  11278  11277  11299  11283     1  0.0000000  1.6024720  3
  11281  11282  11283  11287     1  0.0000000  0.6508444  3
  11281  11282  11283  11299     1  0.0000000  0.6508444  3
  11281  11278  11277  11291     1  180.0000771  0.8368000  1
  11281  11278  11277  11291     1  180.0000771  1.0460000  2
  11281  11278  11277  11291     1  0.0000000  0.7531200  3
  11281  11278  11277  11299     1  0.0000000  0.6508444  3
  11282  11281  11278  11290     1  0.0000000  0.6508444  3
  11283  11299  11277  11291     1  180.0000771  0.4184000  2
  11283  11299  11277  11291     1  0.0000000  1.6024720  3
  11283  11282  11281  11289     1  0.0000000  0.6508444  3
  11287  11283  11282  11288     1  0.0000000  4.9162000  2
  11287  11283  11282  11288     1  0.0000000  0.6024960  3
  11288  11282  11283  11299     1  0.0000000  4.9162000  2
  11288  11282  11283  11299     1  0.0000000  0.6024960  3
  11288  11282  11281  11289     1  0.0000000  4.9162000  2
  11288  11282  11281  11289     1  0.0000000  0.6024960  3
  11289  11281  11278  11290     1  0.0000000  4.9162000  2
  11289  11281  11278  11290     1  0.0000000  0.6024960  3
  11290  11278  11277  11291     1  0.0000000  0.6508444  3
  11290  11278  11277  11299     1  0.0000000  4.9162000  2
  11290  11278  11277  11299     1  0.0000000  0.6024960  3
  11297  11291  11277  11299     1  0.0000000  4.9162000  2
  11297  11291  11277  11299     1  0.0000000  0.6024960  3
  11300  11301  11304  11305     1  180.0000771  0.8368000  1
  11300  11301  11304  11305     1  180.0000771  1.0460000  2
  11300  11301  11304  11305     1  0.0000000  0.7531200  3
  11300  11301  11304  11312     1  0.0000000  0.6508444  3
  11300  11322  11306  11305     1  180.0000771  0.4184000  2
  11300  11322  11306  11305     1  0.0000000  1.6024720  3
  11300  11322  11306  11310     1  180.0000771  5.6484000  1
  11300  11322  11306  11310     1  180.0000771  3.5564000  2
  11300  11322  11306  11310     1  0.0000000  0.4184000  3
  11301  11300  11314  11320     1  0.0000000  0.6508444  3
  11301  11300  11322  11306     1  180.0000771  0.4184000  2
  11301  11300  11322  11306     1  0.0000000  1.6024720  3
  11301  11304  11305  11306     1  180.0000771  0.8368000  1
  11301  11304  11305  11306     1  180.0000771  1.0460000  2
  11301  11304  11305  11306     1  0.0000000  0.7531200  3
  11301  11304  11305  11311     1  0.0000000  0.6508444  3
  11304  11301  11300  11314     1  180.0000771  0.8368000  1
  11304  11301  11300  11314     1  180.0000771  1.0460000  2
  11304  11301  11300  11314     1  0.0000000  0.7531200  3
  11304  11301  11300  11322     1  0.0000000  0.6508444  3
  11304  11305  11306  11310     1  0.0000000  0.6508444  3
  11304  11305  11306  11322     1  0.0000000  0.6508444  3
  11305  11304  11301  11313     1  0.0000000  0.6508444  3
  11306  11305  11304  11312     1  0.0000000  0.6508444  3
  11306  11322  11300  11314     1  180.0000771  0.4184000  2
  11306  11322  11300  11314     1  0.0000000  1.6024720  3
  11310  11306  11305  11311     1  0.0000000  4.9162000  2
  11310  11306  11305  11311     1  0.0000000  0.6024960  3
  11311  11305  11304  11312     1  0.0000000  4.9162000  2
  11311  11305  11304  11312     1  0.0000000  0.6024960  3
  11311  11305  11306  11322     1  0.0000000  4.9162000  2
  11311  11305  11306  11322     1  0.0000000  0.6024960  3
  11312  11304  11301  11313     1  0.0000000  4.9162000  2
  11312  11304  11301  11313     1  0.0000000  0.6024960  3
  11313  11301  11300  11314     1  0.0000000  0.6508444  3
  11313  11301  11300  11322     1  0.0000000  4.9162000  2
  11313  11301  11300  11322     1  0.0000000  0.6024960  3
  11320  11314  11300  11322     1  0.0000000  4.9162000  2
  11320  11314  11300  11322     1  0.0000000  0.6024960  3
  11323  11324  11327  11328     1  180.0000771  0.8368000  1
  11323  11324  11327  11328     1  180.0000771  1.0460000  2
  11323  11324  11327  11328     1  0.0000000  0.7531200  3
  11323  11324  11327  11335     1  0.0000000  0.6508444  3
  11323  11345  11329  11333     1  180.0000771  5.6484000  1
  11323  11345  11329  11333     1  180.0000771  3.5564000  2
  11323  11345  11329  11333     1  0.0000000  0.4184000  3
  11323  11345  11329  11328     1  180.0000771  0.4184000  2
  11323  11345  11329  11328     1  0.0000000  1.6024720  3
  11324  11327  11328  11329     1  180.0000771  0.8368000  1
  11324  11327  11328  11329     1  180.0000771  1.0460000  2
  11324  11327  11328  11329     1  0.0000000  0.7531200  3
  11324  11327  11328  11334     1  0.0000000  0.6508444  3
  11324  11323  11337  11343     1  0.0000000  0.6508444  3
  11324  11323  11345  11329     1  180.0000771  0.4184000  2
  11324  11323  11345  11329     1  0.0000000  1.6024720  3
  11327  11328  11329  11333     1  0.0000000  0.6508444  3
  11327  11328  11329  11345     1  0.0000000  0.6508444  3
  11327  11324  11323  11337     1  180.0000771  0.8368000  1
  11327  11324  11323  11337     1  180.0000771  1.0460000  2
  11327  11324  11323  11337     1  0.0000000  0.7531200  3
  11327  11324  11323  11345     1  0.0000000  0.6508444  3
  11328  11327  11324  11336     1  0.0000000  0.6508444  3
  11329  11345  11323  11337     1  180.0000771  0.4184000  2
  11329  11345  11323  11337     1  0.0000000  1.6024720  3
  11329  11328  11327  11335     1  0.0000000  0.6508444  3
  11333  11329  11328  11334     1  0.0000000  4.9162000  2
  11333  11329  11328  11334     1  0.0000000  0.6024960  3
  11334  11328  11329  11345     1  0.0000000  4.9162000  2
  11334  11328  11329  11345     1  0.0000000  0.6024960  3
  11334  11328  11327  11335     1  0.0000000  4.9162000  2
  11334  11328  11327  11335     1  0.0000000  0.6024960  3
  11335  11327  11324  11336     1  0.0000000  4.9162000  2
  11335  11327  11324  11336     1  0.0000000  0.6024960  3
  11336  11324  11323  11337     1  0.0000000  0.6508444  3
  11336  11324  11323  11345     1  0.0000000  4.9162000  2
  11336  11324  11323  11345     1  0.0000000  0.6024960  3
  11343  11337  11323  11345     1  0.0000000  4.9162000  2
  11343  11337  11323  11345     1  0.0000000  0.6024960  3
  11346  11347  11350  11351     1  180.0000771  0.8368000  1
  11346  11347  11350  11351     1  180.0000771  1.0460000  2
  11346  11347  11350  11351     1  0.0000000  0.7531200  3
  11346  11347  11350  11358     1  0.0000000  0.6508444  3
  11346  11368  11352  11351     1  180.0000771  0.4184000  2
  11346  11368  11352  11351     1  0.0000000  1.6024720  3
  11346  11368  11352  11356     1  180.0000771  5.6484000  1
  11346  11368  11352  11356     1  180.0000771  3.5564000  2
  11346  11368  11352  11356     1  0.0000000  0.4184000  3
  11347  11346  11360  11366     1  0.0000000  0.6508444  3
  11347  11346  11368  11352     1  180.0000771  0.4184000  2
  11347  11346  11368  11352     1  0.0000000  1.6024720  3
  11347  11350  11351  11352     1  180.0000771  0.8368000  1
  11347  11350  11351  11352     1  180.0000771  1.0460000  2
  11347  11350  11351  11352     1  0.0000000  0.7531200  3
  11347  11350  11351  11357     1  0.0000000  0.6508444  3
  11350  11347  11346  11360     1  180.0000771  0.8368000  1
  11350  11347  11346  11360     1  180.0000771  1.0460000  2
  11350  11347  11346  11360     1  0.0000000  0.7531200  3
  11350  11347  11346  11368     1  0.0000000  0.6508444  3
  11350  11351  11352  11356     1  0.0000000  0.6508444  3
  11350  11351  11352  11368     1  0.0000000  0.6508444  3
  11351  11350  11347  11359     1  0.0000000  0.6508444  3
  11352  11351  11350  11358     1  0.0000000  0.6508444  3
  11352  11368  11346  11360     1  180.0000771  0.4184000  2
  11352  11368  11346  11360     1  0.0000000  1.6024720  3
  11356  11352  11351  11357     1  0.0000000  4.9162000  2
  11356  11352  11351  11357     1  0.0000000  0.6024960  3
  11357  11351  11350  11358     1  0.0000000  4.9162000  2
  11357  11351  11350  11358     1  0.0000000  0.6024960  3
  11357  11351  11352  11368     1  0.0000000  4.9162000  2
  11357  11351  11352  11368     1  0.0000000  0.6024960  3
  11358  11350  11347  11359     1  0.0000000  4.9162000  2
  11358  11350  11347  11359     1  0.0000000  0.6024960  3
  11359  11347  11346  11360     1  0.0000000  0.6508444  3
  11359  11347  11346  11368     1  0.0000000  4.9162000  2
  11359  11347  11346  11368     1  0.0000000  0.6024960  3
  11366  11360  11346  11368     1  0.0000000  4.9162000  2
  11366  11360  11346  11368     1  0.0000000  0.6024960  3
  11369  11370  11373  11374     1  180.0000771  0.8368000  1
  11369  11370  11373  11374     1  180.0000771  1.0460000  2
  11369  11370  11373  11374     1  0.0000000  0.7531200  3
  11369  11370  11373  11381     1  0.0000000  0.6508444  3
  11369  11391  11375  11379     1  180.0000771  5.6484000  1
  11369  11391  11375  11379     1  180.0000771  3.5564000  2
  11369  11391  11375  11379     1  0.0000000  0.4184000  3
  11369  11391  11375  11374     1  180.0000771  0.4184000  2
  11369  11391  11375  11374     1  0.0000000  1.6024720  3
  11370  11373  11374  11375     1  180.0000771  0.8368000  1
  11370  11373  11374  11375     1  180.0000771  1.0460000  2
  11370  11373  11374  11375     1  0.0000000  0.7531200  3
  11370  11373  11374  11380     1  0.0000000  0.6508444  3
  11370  11369  11383  11389     1  0.0000000  0.6508444  3
  11370  11369  11391  11375     1  180.0000771  0.4184000  2
  11370  11369  11391  11375     1  0.0000000  1.6024720  3
  11373  11374  11375  11379     1  0.0000000  0.6508444  3
  11373  11374  11375  11391     1  0.0000000  0.6508444  3
  11373  11370  11369  11383     1  180.0000771  0.8368000  1
  11373  11370  11369  11383     1  180.0000771  1.0460000  2
  11373  11370  11369  11383     1  0.0000000  0.7531200  3
  11373  11370  11369  11391     1  0.0000000  0.6508444  3
  11374  11373  11370  11382     1  0.0000000  0.6508444  3
  11375  11391  11369  11383     1  180.0000771  0.4184000  2
  11375  11391  11369  11383     1  0.0000000  1.6024720  3
  11375  11374  11373  11381     1  0.0000000  0.6508444  3
  11379  11375  11374  11380     1  0.0000000  4.9162000  2
  11379  11375  11374  11380     1  0.0000000  0.6024960  3
  11380  11374  11375  11391     1  0.0000000  4.9162000  2
  11380  11374  11375  11391     1  0.0000000  0.6024960  3
  11380  11374  11373  11381     1  0.0000000  4.9162000  2
  11380  11374  11373  11381     1  0.0000000  0.6024960  3
  11381  11373  11370  11382     1  0.0000000  4.9162000  2
  11381  11373  11370  11382     1  0.0000000  0.6024960  3
  11382  11370  11369  11383     1  0.0000000  0.6508444  3
  11382  11370  11369  11391     1  0.0000000  4.9162000  2
  11382  11370  11369  11391     1  0.0000000  0.6024960  3
  11389  11383  11369  11391     1  0.0000000  4.9162000  2
  11389  11383  11369  11391     1  0.0000000  0.6024960  3
  11392  11393  11396  11397     1  180.0000771  0.8368000  1
  11392  11393  11396  11397     1  180.0000771  1.0460000  2
  11392  11393  11396  11397     1  0.0000000  0.7531200  3
  11392  11393  11396  11404     1  0.0000000  0.6508444  3
  11392  11414  11398  11397     1  180.0000771  0.4184000  2
  11392  11414  11398  11397     1  0.0000000  1.6024720  3
  11392  11414  11398  11402     1  180.0000771  5.6484000  1
  11392  11414  11398  11402     1  180.0000771  3.5564000  2
  11392  11414  11398  11402     1  0.0000000  0.4184000  3
  11393  11392  11406  11412     1  0.0000000  0.6508444  3
  11393  11392  11414  11398     1  180.0000771  0.4184000  2
  11393  11392  11414  11398     1  0.0000000  1.6024720  3
  11393  11396  11397  11398     1  180.0000771  0.8368000  1
  11393  11396  11397  11398     1  180.0000771  1.0460000  2
  11393  11396  11397  11398     1  0.0000000  0.7531200  3
  11393  11396  11397  11403     1  0.0000000  0.6508444  3
  11396  11393  11392  11406     1  180.0000771  0.8368000  1
  11396  11393  11392  11406     1  180.0000771  1.0460000  2
  11396  11393  11392  11406     1  0.0000000  0.7531200  3
  11396  11393  11392  11414     1  0.0000000  0.6508444  3
  11396  11397  11398  11402     1  0.0000000  0.6508444  3
  11396  11397  11398  11414     1  0.0000000  0.6508444  3
  11397  11396  11393  11405     1  0.0000000  0.6508444  3
  11398  11397  11396  11404     1  0.0000000  0.6508444  3
  11398  11414  11392  11406     1  180.0000771  0.4184000  2
  11398  11414  11392  11406     1  0.0000000  1.6024720  3
  11402  11398  11397  11403     1  0.0000000  4.9162000  2
  11402  11398  11397  11403     1  0.0000000  0.6024960  3
  11403  11397  11396  11404     1  0.0000000  4.9162000  2
  11403  11397  11396  11404     1  0.0000000  0.6024960  3
  11403  11397  11398  11414     1  0.0000000  4.9162000  2
  11403  11397  11398  11414     1  0.0000000  0.6024960  3
  11404  11396  11393  11405     1  0.0000000  4.9162000  2
  11404  11396  11393  11405     1  0.0000000  0.6024960  3
  11405  11393  11392  11406     1  0.0000000  0.6508444  3
  11405  11393  11392  11414     1  0.0000000  4.9162000  2
  11405  11393  11392  11414     1  0.0000000  0.6024960  3
  11412  11406  11392  11414     1  0.0000000  4.9162000  2
  11412  11406  11392  11414     1  0.0000000  0.6024960  3
  11415  11416  11419  11420     1  180.0000771  0.8368000  1
  11415  11416  11419  11420     1  180.0000771  1.0460000  2
  11415  11416  11419  11420     1  0.0000000  0.7531200  3
  11415  11416  11419  11427     1  0.0000000  0.6508444  3
  11415  11437  11421  11425     1  180.0000771  5.6484000  1
  11415  11437  11421  11425     1  180.0000771  3.5564000  2
  11415  11437  11421  11425     1  0.0000000  0.4184000  3
  11415  11437  11421  11420     1  180.0000771  0.4184000  2
  11415  11437  11421  11420     1  0.0000000  1.6024720  3
  11416  11419  11420  11421     1  180.0000771  0.8368000  1
  11416  11419  11420  11421     1  180.0000771  1.0460000  2
  11416  11419  11420  11421     1  0.0000000  0.7531200  3
  11416  11419  11420  11426     1  0.0000000  0.6508444  3
  11416  11415  11429  11435     1  0.0000000  0.6508444  3
  11416  11415  11437  11421     1  180.0000771  0.4184000  2
  11416  11415  11437  11421     1  0.0000000  1.6024720  3
  11419  11420  11421  11425     1  0.0000000  0.6508444  3
  11419  11420  11421  11437     1  0.0000000  0.6508444  3
  11419  11416  11415  11429     1  180.0000771  0.8368000  1
  11419  11416  11415  11429     1  180.0000771  1.0460000  2
  11419  11416  11415  11429     1  0.0000000  0.7531200  3
  11419  11416  11415  11437     1  0.0000000  0.6508444  3
  11420  11419  11416  11428     1  0.0000000  0.6508444  3
  11421  11437  11415  11429     1  180.0000771  0.4184000  2
  11421  11437  11415  11429     1  0.0000000  1.6024720  3
  11421  11420  11419  11427     1  0.0000000  0.6508444  3
  11425  11421  11420  11426     1  0.0000000  4.9162000  2
  11425  11421  11420  11426     1  0.0000000  0.6024960  3
  11426  11420  11421  11437     1  0.0000000  4.9162000  2
  11426  11420  11421  11437     1  0.0000000  0.6024960  3
  11426  11420  11419  11427     1  0.0000000  4.9162000  2
  11426  11420  11419  11427     1  0.0000000  0.6024960  3
  11427  11419  11416  11428     1  0.0000000  4.9162000  2
  11427  11419  11416  11428     1  0.0000000  0.6024960  3
  11428  11416  11415  11429     1  0.0000000  0.6508444  3
  11428  11416  11415  11437     1  0.0000000  4.9162000  2
  11428  11416  11415  11437     1  0.0000000  0.6024960  3
  11435  11429  11415  11437     1  0.0000000  4.9162000  2
  11435  11429  11415  11437     1  0.0000000  0.6024960  3
  11438  11439  11442  11443     1  180.0000771  0.8368000  1
  11438  11439  11442  11443     1  180.0000771  1.0460000  2
  11438  11439  11442  11443     1  0.0000000  0.7531200  3
  11438  11439  11442  11450     1  0.0000000  0.6508444  3
  11438  11460  11444  11443     1  180.0000771  0.4184000  2
  11438  11460  11444  11443     1  0.0000000  1.6024720  3
  11438  11460  11444  11448     1  180.0000771  5.6484000  1
  11438  11460  11444  11448     1  180.0000771  3.5564000  2
  11438  11460  11444  11448     1  0.0000000  0.4184000  3
  11439  11438  11452  11458     1  0.0000000  0.6508444  3
  11439  11438  11460  11444     1  180.0000771  0.4184000  2
  11439  11438  11460  11444     1  0.0000000  1.6024720  3
  11439  11442  11443  11444     1  180.0000771  0.8368000  1
  11439  11442  11443  11444     1  180.0000771  1.0460000  2
  11439  11442  11443  11444     1  0.0000000  0.7531200  3
  11439  11442  11443  11449     1  0.0000000  0.6508444  3
  11442  11439  11438  11452     1  180.0000771  0.8368000  1
  11442  11439  11438  11452     1  180.0000771  1.0460000  2
  11442  11439  11438  11452     1  0.0000000  0.7531200  3
  11442  11439  11438  11460     1  0.0000000  0.6508444  3
  11442  11443  11444  11448     1  0.0000000  0.6508444  3
  11442  11443  11444  11460     1  0.0000000  0.6508444  3
  11443  11442  11439  11451     1  0.0000000  0.6508444  3
  11444  11443  11442  11450     1  0.0000000  0.6508444  3
  11444  11460  11438  11452     1  180.0000771  0.4184000  2
  11444  11460  11438  11452     1  0.0000000  1.6024720  3
  11448  11444  11443  11449     1  0.0000000  4.9162000  2
  11448  11444  11443  11449     1  0.0000000  0.6024960  3
  11449  11443  11442  11450     1  0.0000000  4.9162000  2
  11449  11443  11442  11450     1  0.0000000  0.6024960  3
  11449  11443  11444  11460     1  0.0000000  4.9162000  2
  11449  11443  11444  11460     1  0.0000000  0.6024960  3
  11450  11442  11439  11451     1  0.0000000  4.9162000  2
  11450  11442  11439  11451     1  0.0000000  0.6024960  3
  11451  11439  11438  11452     1  0.0000000  0.6508444  3
  11451  11439  11438  11460     1  0.0000000  4.9162000  2
  11451  11439  11438  11460     1  0.0000000  0.6024960  3
  11458  11452  11438  11460     1  0.0000000  4.9162000  2
  11458  11452  11438  11460     1  0.0000000  0.6024960  3
  11461  11462  11465  11466     1  180.0000771  0.8368000  1
  11461  11462  11465  11466     1  180.0000771  1.0460000  2
  11461  11462  11465  11466     1  0.0000000  0.7531200  3
  11461  11462  11465  11473     1  0.0000000  0.6508444  3
  11461  11483  11467  11471     1  180.0000771  5.6484000  1
  11461  11483  11467  11471     1  180.0000771  3.5564000  2
  11461  11483  11467  11471     1  0.0000000  0.4184000  3
  11461  11483  11467  11466     1  180.0000771  0.4184000  2
  11461  11483  11467  11466     1  0.0000000  1.6024720  3
  11462  11465  11466  11467     1  180.0000771  0.8368000  1
  11462  11465  11466  11467     1  180.0000771  1.0460000  2
  11462  11465  11466  11467     1  0.0000000  0.7531200  3
  11462  11465  11466  11472     1  0.0000000  0.6508444  3
  11462  11461  11475  11481     1  0.0000000  0.6508444  3
  11462  11461  11483  11467     1  180.0000771  0.4184000  2
  11462  11461  11483  11467     1  0.0000000  1.6024720  3
  11465  11466  11467  11471     1  0.0000000  0.6508444  3
  11465  11466  11467  11483     1  0.0000000  0.6508444  3
  11465  11462  11461  11475     1  180.0000771  0.8368000  1
  11465  11462  11461  11475     1  180.0000771  1.0460000  2
  11465  11462  11461  11475     1  0.0000000  0.7531200  3
  11465  11462  11461  11483     1  0.0000000  0.6508444  3
  11466  11465  11462  11474     1  0.0000000  0.6508444  3
  11467  11483  11461  11475     1  180.0000771  0.4184000  2
  11467  11483  11461  11475     1  0.0000000  1.6024720  3
  11467  11466  11465  11473     1  0.0000000  0.6508444  3
  11471  11467  11466  11472     1  0.0000000  4.9162000  2
  11471  11467  11466  11472     1  0.0000000  0.6024960  3
  11472  11466  11467  11483     1  0.0000000  4.9162000  2
  11472  11466  11467  11483     1  0.0000000  0.6024960  3
  11472  11466  11465  11473     1  0.0000000  4.9162000  2
  11472  11466  11465  11473     1  0.0000000  0.6024960  3
  11473  11465  11462  11474     1  0.0000000  4.9162000  2
  11473  11465  11462  11474     1  0.0000000  0.6024960  3
  11474  11462  11461  11475     1  0.0000000  0.6508444  3
  11474  11462  11461  11483     1  0.0000000  4.9162000  2
  11474  11462  11461  11483     1  0.0000000  0.6024960  3
  11481  11475  11461  11483     1  0.0000000  4.9162000  2
  11481  11475  11461  11483     1  0.0000000  0.6024960  3
  11484  11485  11488  11489     1  180.0000771  0.8368000  1
  11484  11485  11488  11489     1  180.0000771  1.0460000  2
  11484  11485  11488  11489     1  0.0000000  0.7531200  3
  11484  11485  11488  11496     1  0.0000000  0.6508444  3
  11484  11506  11490  11489     1  180.0000771  0.4184000  2
  11484  11506  11490  11489     1  0.0000000  1.6024720  3
  11484  11506  11490  11494     1  180.0000771  5.6484000  1
  11484  11506  11490  11494     1  180.0000771  3.5564000  2
  11484  11506  11490  11494     1  0.0000000  0.4184000  3
  11485  11484  11498  11504     1  0.0000000  0.6508444  3
  11485  11484  11506  11490     1  180.0000771  0.4184000  2
  11485  11484  11506  11490     1  0.0000000  1.6024720  3
  11485  11488  11489  11490     1  180.0000771  0.8368000  1
  11485  11488  11489  11490     1  180.0000771  1.0460000  2
  11485  11488  11489  11490     1  0.0000000  0.7531200  3
  11485  11488  11489  11495     1  0.0000000  0.6508444  3
  11488  11485  11484  11498     1  180.0000771  0.8368000  1
  11488  11485  11484  11498     1  180.0000771  1.0460000  2
  11488  11485  11484  11498     1  0.0000000  0.7531200  3
  11488  11485  11484  11506     1  0.0000000  0.6508444  3
  11488  11489  11490  11494     1  0.0000000  0.6508444  3
  11488  11489  11490  11506     1  0.0000000  0.6508444  3
  11489  11488  11485  11497     1  0.0000000  0.6508444  3
  11490  11489  11488  11496     1  0.0000000  0.6508444  3
  11490  11506  11484  11498     1  180.0000771  0.4184000  2
  11490  11506  11484  11498     1  0.0000000  1.6024720  3
  11494  11490  11489  11495     1  0.0000000  4.9162000  2
  11494  11490  11489  11495     1  0.0000000  0.6024960  3
  11495  11489  11488  11496     1  0.0000000  4.9162000  2
  11495  11489  11488  11496     1  0.0000000  0.6024960  3
  11495  11489  11490  11506     1  0.0000000  4.9162000  2
  11495  11489  11490  11506     1  0.0000000  0.6024960  3
  11496  11488  11485  11497     1  0.0000000  4.9162000  2
  11496  11488  11485  11497     1  0.0000000  0.6024960  3
  11497  11485  11484  11498     1  0.0000000  0.6508444  3
  11497  11485  11484  11506     1  0.0000000  4.9162000  2
  11497  11485  11484  11506     1  0.0000000  0.6024960  3
  11504  11498  11484  11506     1  0.0000000  4.9162000  2
  11504  11498  11484  11506     1  0.0000000  0.6024960  3
  11507  11508  11511  11512     1  180.0000771  0.8368000  1
  11507  11508  11511  11512     1  180.0000771  1.0460000  2
  11507  11508  11511  11512     1  0.0000000  0.7531200  3
  11507  11508  11511  11519     1  0.0000000  0.6508444  3
  11507  11529  11513  11517     1  180.0000771  5.6484000  1
  11507  11529  11513  11517     1  180.0000771  3.5564000  2
  11507  11529  11513  11517     1  0.0000000  0.4184000  3
  11507  11529  11513  11512     1  180.0000771  0.4184000  2
  11507  11529  11513  11512     1  0.0000000  1.6024720  3
  11508  11511  11512  11513     1  180.0000771  0.8368000  1
  11508  11511  11512  11513     1  180.0000771  1.0460000  2
  11508  11511  11512  11513     1  0.0000000  0.7531200  3
  11508  11511  11512  11518     1  0.0000000  0.6508444  3
  11508  11507  11521  11527     1  0.0000000  0.6508444  3
  11508  11507  11529  11513     1  180.0000771  0.4184000  2
  11508  11507  11529  11513     1  0.0000000  1.6024720  3
  11511  11512  11513  11517     1  0.0000000  0.6508444  3
  11511  11512  11513  11529     1  0.0000000  0.6508444  3
  11511  11508  11507  11521     1  180.0000771  0.8368000  1
  11511  11508  11507  11521     1  180.0000771  1.0460000  2
  11511  11508  11507  11521     1  0.0000000  0.7531200  3
  11511  11508  11507  11529     1  0.0000000  0.6508444  3
  11512  11511  11508  11520     1  0.0000000  0.6508444  3
  11513  11529  11507  11521     1  180.0000771  0.4184000  2
  11513  11529  11507  11521     1  0.0000000  1.6024720  3
  11513  11512  11511  11519     1  0.0000000  0.6508444  3
  11517  11513  11512  11518     1  0.0000000  4.9162000  2
  11517  11513  11512  11518     1  0.0000000  0.6024960  3
  11518  11512  11513  11529     1  0.0000000  4.9162000  2
  11518  11512  11513  11529     1  0.0000000  0.6024960  3
  11518  11512  11511  11519     1  0.0000000  4.9162000  2
  11518  11512  11511  11519     1  0.0000000  0.6024960  3
  11519  11511  11508  11520     1  0.0000000  4.9162000  2
  11519  11511  11508  11520     1  0.0000000  0.6024960  3
  11520  11508  11507  11521     1  0.0000000  0.6508444  3
  11520  11508  11507  11529     1  0.0000000  4.9162000  2
  11520  11508  11507  11529     1  0.0000000  0.6024960  3
  11527  11521  11507  11529     1  0.0000000  4.9162000  2
  11527  11521  11507  11529     1  0.0000000  0.6024960  3
  11530  11531  11534  11535     1  180.0000771  0.8368000  1
  11530  11531  11534  11535     1  180.0000771  1.0460000  2
  11530  11531  11534  11535     1  0.0000000  0.7531200  3
  11530  11531  11534  11542     1  0.0000000  0.6508444  3
  11530  11552  11536  11535     1  180.0000771  0.4184000  2
  11530  11552  11536  11535     1  0.0000000  1.6024720  3
  11530  11552  11536  11540     1  180.0000771  5.6484000  1
  11530  11552  11536  11540     1  180.0000771  3.5564000  2
  11530  11552  11536  11540     1  0.0000000  0.4184000  3
  11531  11530  11544  11550     1  0.0000000  0.6508444  3
  11531  11530  11552  11536     1  180.0000771  0.4184000  2
  11531  11530  11552  11536     1  0.0000000  1.6024720  3
  11531  11534  11535  11536     1  180.0000771  0.8368000  1
  11531  11534  11535  11536     1  180.0000771  1.0460000  2
  11531  11534  11535  11536     1  0.0000000  0.7531200  3
  11531  11534  11535  11541     1  0.0000000  0.6508444  3
  11534  11531  11530  11544     1  180.0000771  0.8368000  1
  11534  11531  11530  11544     1  180.0000771  1.0460000  2
  11534  11531  11530  11544     1  0.0000000  0.7531200  3
  11534  11531  11530  11552     1  0.0000000  0.6508444  3
  11534  11535  11536  11540     1  0.0000000  0.6508444  3
  11534  11535  11536  11552     1  0.0000000  0.6508444  3
  11535  11534  11531  11543     1  0.0000000  0.6508444  3
  11536  11535  11534  11542     1  0.0000000  0.6508444  3
  11536  11552  11530  11544     1  180.0000771  0.4184000  2
  11536  11552  11530  11544     1  0.0000000  1.6024720  3
  11540  11536  11535  11541     1  0.0000000  4.9162000  2
  11540  11536  11535  11541     1  0.0000000  0.6024960  3
  11541  11535  11534  11542     1  0.0000000  4.9162000  2
  11541  11535  11534  11542     1  0.0000000  0.6024960  3
  11541  11535  11536  11552     1  0.0000000  4.9162000  2
  11541  11535  11536  11552     1  0.0000000  0.6024960  3
  11542  11534  11531  11543     1  0.0000000  4.9162000  2
  11542  11534  11531  11543     1  0.0000000  0.6024960  3
  11543  11531  11530  11544     1  0.0000000  0.6508444  3
  11543  11531  11530  11552     1  0.0000000  4.9162000  2
  11543  11531  11530  11552     1  0.0000000  0.6024960  3
  11550  11544  11530  11552     1  0.0000000  4.9162000  2
  11550  11544  11530  11552     1  0.0000000  0.6024960  3
  11553  11554  11557  11558     1  180.0000771  0.8368000  1
  11553  11554  11557  11558     1  180.0000771  1.0460000  2
  11553  11554  11557  11558     1  0.0000000  0.7531200  3
  11553  11554  11557  11565     1  0.0000000  0.6508444  3
  11553  11575  11559  11563     1  180.0000771  5.6484000  1
  11553  11575  11559  11563     1  180.0000771  3.5564000  2
  11553  11575  11559  11563     1  0.0000000  0.4184000  3
  11553  11575  11559  11558     1  180.0000771  0.4184000  2
  11553  11575  11559  11558     1  0.0000000  1.6024720  3
  11554  11557  11558  11559     1  180.0000771  0.8368000  1
  11554  11557  11558  11559     1  180.0000771  1.0460000  2
  11554  11557  11558  11559     1  0.0000000  0.7531200  3
  11554  11557  11558  11564     1  0.0000000  0.6508444  3
  11554  11553  11567  11573     1  0.0000000  0.6508444  3
  11554  11553  11575  11559     1  180.0000771  0.4184000  2
  11554  11553  11575  11559     1  0.0000000  1.6024720  3
  11557  11558  11559  11563     1  0.0000000  0.6508444  3
  11557  11558  11559  11575     1  0.0000000  0.6508444  3
  11557  11554  11553  11567     1  180.0000771  0.8368000  1
  11557  11554  11553  11567     1  180.0000771  1.0460000  2
  11557  11554  11553  11567     1  0.0000000  0.7531200  3
  11557  11554  11553  11575     1  0.0000000  0.6508444  3
  11558  11557  11554  11566     1  0.0000000  0.6508444  3
  11559  11575  11553  11567     1  180.0000771  0.4184000  2
  11559  11575  11553  11567     1  0.0000000  1.6024720  3
  11559  11558  11557  11565     1  0.0000000  0.6508444  3
  11563  11559  11558  11564     1  0.0000000  4.9162000  2
  11563  11559  11558  11564     1  0.0000000  0.6024960  3
  11564  11558  11559  11575     1  0.0000000  4.9162000  2
  11564  11558  11559  11575     1  0.0000000  0.6024960  3
  11564  11558  11557  11565     1  0.0000000  4.9162000  2
  11564  11558  11557  11565     1  0.0000000  0.6024960  3
  11565  11557  11554  11566     1  0.0000000  4.9162000  2
  11565  11557  11554  11566     1  0.0000000  0.6024960  3
  11566  11554  11553  11567     1  0.0000000  0.6508444  3
  11566  11554  11553  11575     1  0.0000000  4.9162000  2
  11566  11554  11553  11575     1  0.0000000  0.6024960  3
  11573  11567  11553  11575     1  0.0000000  4.9162000  2
  11573  11567  11553  11575     1  0.0000000  0.6024960  3
  11576  11577  11580  11581     1  180.0000771  0.8368000  1
  11576  11577  11580  11581     1  180.0000771  1.0460000  2
  11576  11577  11580  11581     1  0.0000000  0.7531200  3
  11576  11577  11580  11588     1  0.0000000  0.6508444  3
  11576  11598  11582  11581     1  180.0000771  0.4184000  2
  11576  11598  11582  11581     1  0.0000000  1.6024720  3
  11576  11598  11582  11586     1  180.0000771  5.6484000  1
  11576  11598  11582  11586     1  180.0000771  3.5564000  2
  11576  11598  11582  11586     1  0.0000000  0.4184000  3
  11577  11576  11590  11596     1  0.0000000  0.6508444  3
  11577  11576  11598  11582     1  180.0000771  0.4184000  2
  11577  11576  11598  11582     1  0.0000000  1.6024720  3
  11577  11580  11581  11582     1  180.0000771  0.8368000  1
  11577  11580  11581  11582     1  180.0000771  1.0460000  2
  11577  11580  11581  11582     1  0.0000000  0.7531200  3
  11577  11580  11581  11587     1  0.0000000  0.6508444  3
  11580  11577  11576  11590     1  180.0000771  0.8368000  1
  11580  11577  11576  11590     1  180.0000771  1.0460000  2
  11580  11577  11576  11590     1  0.0000000  0.7531200  3
  11580  11577  11576  11598     1  0.0000000  0.6508444  3
  11580  11581  11582  11586     1  0.0000000  0.6508444  3
  11580  11581  11582  11598     1  0.0000000  0.6508444  3
  11581  11580  11577  11589     1  0.0000000  0.6508444  3
  11582  11581  11580  11588     1  0.0000000  0.6508444  3
  11582  11598  11576  11590     1  180.0000771  0.4184000  2
  11582  11598  11576  11590     1  0.0000000  1.6024720  3
  11586  11582  11581  11587     1  0.0000000  4.9162000  2
  11586  11582  11581  11587     1  0.0000000  0.6024960  3
  11587  11581  11580  11588     1  0.0000000  4.9162000  2
  11587  11581  11580  11588     1  0.0000000  0.6024960  3
  11587  11581  11582  11598     1  0.0000000  4.9162000  2
  11587  11581  11582  11598     1  0.0000000  0.6024960  3
  11588  11580  11577  11589     1  0.0000000  4.9162000  2
  11588  11580  11577  11589     1  0.0000000  0.6024960  3
  11589  11577  11576  11590     1  0.0000000  0.6508444  3
  11589  11577  11576  11598     1  0.0000000  4.9162000  2
  11589  11577  11576  11598     1  0.0000000  0.6024960  3
  11596  11590  11576  11598     1  0.0000000  4.9162000  2
  11596  11590  11576  11598     1  0.0000000  0.6024960  3
  11599  11600  11603  11604     1  180.0000771  0.8368000  1
  11599  11600  11603  11604     1  180.0000771  1.0460000  2
  11599  11600  11603  11604     1  0.0000000  0.7531200  3
  11599  11600  11603  11611     1  0.0000000  0.6508444  3
  11599  11621  11605  11609     1  180.0000771  5.6484000  1
  11599  11621  11605  11609     1  180.0000771  3.5564000  2
  11599  11621  11605  11609     1  0.0000000  0.4184000  3
  11599  11621  11605  11604     1  180.0000771  0.4184000  2
  11599  11621  11605  11604     1  0.0000000  1.6024720  3
  11600  11603  11604  11605     1  180.0000771  0.8368000  1
  11600  11603  11604  11605     1  180.0000771  1.0460000  2
  11600  11603  11604  11605     1  0.0000000  0.7531200  3
  11600  11603  11604  11610     1  0.0000000  0.6508444  3
  11600  11599  11613  11619     1  0.0000000  0.6508444  3
  11600  11599  11621  11605     1  180.0000771  0.4184000  2
  11600  11599  11621  11605     1  0.0000000  1.6024720  3
  11603  11604  11605  11609     1  0.0000000  0.6508444  3
  11603  11604  11605  11621     1  0.0000000  0.6508444  3
  11603  11600  11599  11613     1  180.0000771  0.8368000  1
  11603  11600  11599  11613     1  180.0000771  1.0460000  2
  11603  11600  11599  11613     1  0.0000000  0.7531200  3
  11603  11600  11599  11621     1  0.0000000  0.6508444  3
  11604  11603  11600  11612     1  0.0000000  0.6508444  3
  11605  11621  11599  11613     1  180.0000771  0.4184000  2
  11605  11621  11599  11613     1  0.0000000  1.6024720  3
  11605  11604  11603  11611     1  0.0000000  0.6508444  3
  11609  11605  11604  11610     1  0.0000000  4.9162000  2
  11609  11605  11604  11610     1  0.0000000  0.6024960  3
  11610  11604  11605  11621     1  0.0000000  4.9162000  2
  11610  11604  11605  11621     1  0.0000000  0.6024960  3
  11610  11604  11603  11611     1  0.0000000  4.9162000  2
  11610  11604  11603  11611     1  0.0000000  0.6024960  3
  11611  11603  11600  11612     1  0.0000000  4.9162000  2
  11611  11603  11600  11612     1  0.0000000  0.6024960  3
  11612  11600  11599  11613     1  0.0000000  0.6508444  3
  11612  11600  11599  11621     1  0.0000000  4.9162000  2
  11612  11600  11599  11621     1  0.0000000  0.6024960  3
  11619  11613  11599  11621     1  0.0000000  4.9162000  2
  11619  11613  11599  11621     1  0.0000000  0.6024960  3
  11622  11623  11626  11627     1  180.0000771  0.8368000  1
  11622  11623  11626  11627     1  180.0000771  1.0460000  2
  11622  11623  11626  11627     1  0.0000000  0.7531200  3
  11622  11623  11626  11634     1  0.0000000  0.6508444  3
  11622  11644  11628  11627     1  180.0000771  0.4184000  2
  11622  11644  11628  11627     1  0.0000000  1.6024720  3
  11622  11644  11628  11632     1  180.0000771  5.6484000  1
  11622  11644  11628  11632     1  180.0000771  3.5564000  2
  11622  11644  11628  11632     1  0.0000000  0.4184000  3
  11623  11622  11636  11642     1  0.0000000  0.6508444  3
  11623  11622  11644  11628     1  180.0000771  0.4184000  2
  11623  11622  11644  11628     1  0.0000000  1.6024720  3
  11623  11626  11627  11628     1  180.0000771  0.8368000  1
  11623  11626  11627  11628     1  180.0000771  1.0460000  2
  11623  11626  11627  11628     1  0.0000000  0.7531200  3
  11623  11626  11627  11633     1  0.0000000  0.6508444  3
  11626  11623  11622  11636     1  180.0000771  0.8368000  1
  11626  11623  11622  11636     1  180.0000771  1.0460000  2
  11626  11623  11622  11636     1  0.0000000  0.7531200  3
  11626  11623  11622  11644     1  0.0000000  0.6508444  3
  11626  11627  11628  11632     1  0.0000000  0.6508444  3
  11626  11627  11628  11644     1  0.0000000  0.6508444  3
  11627  11626  11623  11635     1  0.0000000  0.6508444  3
  11628  11627  11626  11634     1  0.0000000  0.6508444  3
  11628  11644  11622  11636     1  180.0000771  0.4184000  2
  11628  11644  11622  11636     1  0.0000000  1.6024720  3
  11632  11628  11627  11633     1  0.0000000  4.9162000  2
  11632  11628  11627  11633     1  0.0000000  0.6024960  3
  11633  11627  11626  11634     1  0.0000000  4.9162000  2
  11633  11627  11626  11634     1  0.0000000  0.6024960  3
  11633  11627  11628  11644     1  0.0000000  4.9162000  2
  11633  11627  11628  11644     1  0.0000000  0.6024960  3
  11634  11626  11623  11635     1  0.0000000  4.9162000  2
  11634  11626  11623  11635     1  0.0000000  0.6024960  3
  11635  11623  11622  11636     1  0.0000000  0.6508444  3
  11635  11623  11622  11644     1  0.0000000  4.9162000  2
  11635  11623  11622  11644     1  0.0000000  0.6024960  3
  11642  11636  11622  11644     1  0.0000000  4.9162000  2
  11642  11636  11622  11644     1  0.0000000  0.6024960  3
  11645  11646  11649  11650     1  180.0000771  0.8368000  1
  11645  11646  11649  11650     1  180.0000771  1.0460000  2
  11645  11646  11649  11650     1  0.0000000  0.7531200  3
  11645  11646  11649  11657     1  0.0000000  0.6508444  3
  11645  11667  11651  11655     1  180.0000771  5.6484000  1
  11645  11667  11651  11655     1  180.0000771  3.5564000  2
  11645  11667  11651  11655     1  0.0000000  0.4184000  3
  11645  11667  11651  11650     1  180.0000771  0.4184000  2
  11645  11667  11651  11650     1  0.0000000  1.6024720  3
  11646  11649  11650  11651     1  180.0000771  0.8368000  1
  11646  11649  11650  11651     1  180.0000771  1.0460000  2
  11646  11649  11650  11651     1  0.0000000  0.7531200  3
  11646  11649  11650  11656     1  0.0000000  0.6508444  3
  11646  11645  11659  11665     1  0.0000000  0.6508444  3
  11646  11645  11667  11651     1  180.0000771  0.4184000  2
  11646  11645  11667  11651     1  0.0000000  1.6024720  3
  11649  11650  11651  11655     1  0.0000000  0.6508444  3
  11649  11650  11651  11667     1  0.0000000  0.6508444  3
  11649  11646  11645  11659     1  180.0000771  0.8368000  1
  11649  11646  11645  11659     1  180.0000771  1.0460000  2
  11649  11646  11645  11659     1  0.0000000  0.7531200  3
  11649  11646  11645  11667     1  0.0000000  0.6508444  3
  11650  11649  11646  11658     1  0.0000000  0.6508444  3
  11651  11667  11645  11659     1  180.0000771  0.4184000  2
  11651  11667  11645  11659     1  0.0000000  1.6024720  3
  11651  11650  11649  11657     1  0.0000000  0.6508444  3
  11655  11651  11650  11656     1  0.0000000  4.9162000  2
  11655  11651  11650  11656     1  0.0000000  0.6024960  3
  11656  11650  11651  11667     1  0.0000000  4.9162000  2
  11656  11650  11651  11667     1  0.0000000  0.6024960  3
  11656  11650  11649  11657     1  0.0000000  4.9162000  2
  11656  11650  11649  11657     1  0.0000000  0.6024960  3
  11657  11649  11646  11658     1  0.0000000  4.9162000  2
  11657  11649  11646  11658     1  0.0000000  0.6024960  3
  11658  11646  11645  11659     1  0.0000000  0.6508444  3
  11658  11646  11645  11667     1  0.0000000  4.9162000  2
  11658  11646  11645  11667     1  0.0000000  0.6024960  3
  11665  11659  11645  11667     1  0.0000000  4.9162000  2
  11665  11659  11645  11667     1  0.0000000  0.6024960  3
  11668  11669  11672  11673     1  180.0000771  0.8368000  1
  11668  11669  11672  11673     1  180.0000771  1.0460000  2
  11668  11669  11672  11673     1  0.0000000  0.7531200  3
  11668  11669  11672  11680     1  0.0000000  0.6508444  3
  11668  11690  11674  11673     1  180.0000771  0.4184000  2
  11668  11690  11674  11673     1  0.0000000  1.6024720  3
  11668  11690  11674  11678     1  180.0000771  5.6484000  1
  11668  11690  11674  11678     1  180.0000771  3.5564000  2
  11668  11690  11674  11678     1  0.0000000  0.4184000  3
  11669  11668  11682  11688     1  0.0000000  0.6508444  3
  11669  11668  11690  11674     1  180.0000771  0.4184000  2
  11669  11668  11690  11674     1  0.0000000  1.6024720  3
  11669  11672  11673  11674     1  180.0000771  0.8368000  1
  11669  11672  11673  11674     1  180.0000771  1.0460000  2
  11669  11672  11673  11674     1  0.0000000  0.7531200  3
  11669  11672  11673  11679     1  0.0000000  0.6508444  3
  11672  11669  11668  11682     1  180.0000771  0.8368000  1
  11672  11669  11668  11682     1  180.0000771  1.0460000  2
  11672  11669  11668  11682     1  0.0000000  0.7531200  3
  11672  11669  11668  11690     1  0.0000000  0.6508444  3
  11672  11673  11674  11678     1  0.0000000  0.6508444  3
  11672  11673  11674  11690     1  0.0000000  0.6508444  3
  11673  11672  11669  11681     1  0.0000000  0.6508444  3
  11674  11673  11672  11680     1  0.0000000  0.6508444  3
  11674  11690  11668  11682     1  180.0000771  0.4184000  2
  11674  11690  11668  11682     1  0.0000000  1.6024720  3
  11678  11674  11673  11679     1  0.0000000  4.9162000  2
  11678  11674  11673  11679     1  0.0000000  0.6024960  3
  11679  11673  11672  11680     1  0.0000000  4.9162000  2
  11679  11673  11672  11680     1  0.0000000  0.6024960  3
  11679  11673  11674  11690     1  0.0000000  4.9162000  2
  11679  11673  11674  11690     1  0.0000000  0.6024960  3
  11680  11672  11669  11681     1  0.0000000  4.9162000  2
  11680  11672  11669  11681     1  0.0000000  0.6024960  3
  11681  11669  11668  11682     1  0.0000000  0.6508444  3
  11681  11669  11668  11690     1  0.0000000  4.9162000  2
  11681  11669  11668  11690     1  0.0000000  0.6024960  3
  11688  11682  11668  11690     1  0.0000000  4.9162000  2
  11688  11682  11668  11690     1  0.0000000  0.6024960  3
  11691  11692  11695  11696     1  180.0000771  0.8368000  1
  11691  11692  11695  11696     1  180.0000771  1.0460000  2
  11691  11692  11695  11696     1  0.0000000  0.7531200  3
  11691  11692  11695  11703     1  0.0000000  0.6508444  3
  11691  11713  11697  11701     1  180.0000771  5.6484000  1
  11691  11713  11697  11701     1  180.0000771  3.5564000  2
  11691  11713  11697  11701     1  0.0000000  0.4184000  3
  11691  11713  11697  11696     1  180.0000771  0.4184000  2
  11691  11713  11697  11696     1  0.0000000  1.6024720  3
  11692  11695  11696  11697     1  180.0000771  0.8368000  1
  11692  11695  11696  11697     1  180.0000771  1.0460000  2
  11692  11695  11696  11697     1  0.0000000  0.7531200  3
  11692  11695  11696  11702     1  0.0000000  0.6508444  3
  11692  11691  11705  11711     1  0.0000000  0.6508444  3
  11692  11691  11713  11697     1  180.0000771  0.4184000  2
  11692  11691  11713  11697     1  0.0000000  1.6024720  3
  11695  11696  11697  11701     1  0.0000000  0.6508444  3
  11695  11696  11697  11713     1  0.0000000  0.6508444  3
  11695  11692  11691  11705     1  180.0000771  0.8368000  1
  11695  11692  11691  11705     1  180.0000771  1.0460000  2
  11695  11692  11691  11705     1  0.0000000  0.7531200  3
  11695  11692  11691  11713     1  0.0000000  0.6508444  3
  11696  11695  11692  11704     1  0.0000000  0.6508444  3
  11697  11713  11691  11705     1  180.0000771  0.4184000  2
  11697  11713  11691  11705     1  0.0000000  1.6024720  3
  11697  11696  11695  11703     1  0.0000000  0.6508444  3
  11701  11697  11696  11702     1  0.0000000  4.9162000  2
  11701  11697  11696  11702     1  0.0000000  0.6024960  3
  11702  11696  11697  11713     1  0.0000000  4.9162000  2
  11702  11696  11697  11713     1  0.0000000  0.6024960  3
  11702  11696  11695  11703     1  0.0000000  4.9162000  2
  11702  11696  11695  11703     1  0.0000000  0.6024960  3
  11703  11695  11692  11704     1  0.0000000  4.9162000  2
  11703  11695  11692  11704     1  0.0000000  0.6024960  3
  11704  11692  11691  11705     1  0.0000000  0.6508444  3
  11704  11692  11691  11713     1  0.0000000  4.9162000  2
  11704  11692  11691  11713     1  0.0000000  0.6024960  3
  11711  11705  11691  11713     1  0.0000000  4.9162000  2
  11711  11705  11691  11713     1  0.0000000  0.6024960  3
  11714  11715  11718  11719     1  180.0000771  0.8368000  1
  11714  11715  11718  11719     1  180.0000771  1.0460000  2
  11714  11715  11718  11719     1  0.0000000  0.7531200  3
  11714  11715  11718  11726     1  0.0000000  0.6508444  3
  11714  11736  11720  11719     1  180.0000771  0.4184000  2
  11714  11736  11720  11719     1  0.0000000  1.6024720  3
  11714  11736  11720  11724     1  180.0000771  5.6484000  1
  11714  11736  11720  11724     1  180.0000771  3.5564000  2
  11714  11736  11720  11724     1  0.0000000  0.4184000  3
  11715  11714  11728  11734     1  0.0000000  0.6508444  3
  11715  11714  11736  11720     1  180.0000771  0.4184000  2
  11715  11714  11736  11720     1  0.0000000  1.6024720  3
  11715  11718  11719  11720     1  180.0000771  0.8368000  1
  11715  11718  11719  11720     1  180.0000771  1.0460000  2
  11715  11718  11719  11720     1  0.0000000  0.7531200  3
  11715  11718  11719  11725     1  0.0000000  0.6508444  3
  11718  11715  11714  11728     1  180.0000771  0.8368000  1
  11718  11715  11714  11728     1  180.0000771  1.0460000  2
  11718  11715  11714  11728     1  0.0000000  0.7531200  3
  11718  11715  11714  11736     1  0.0000000  0.6508444  3
  11718  11719  11720  11724     1  0.0000000  0.6508444  3
  11718  11719  11720  11736     1  0.0000000  0.6508444  3
  11719  11718  11715  11727     1  0.0000000  0.6508444  3
  11720  11719  11718  11726     1  0.0000000  0.6508444  3
  11720  11736  11714  11728     1  180.0000771  0.4184000  2
  11720  11736  11714  11728     1  0.0000000  1.6024720  3
  11724  11720  11719  11725     1  0.0000000  4.9162000  2
  11724  11720  11719  11725     1  0.0000000  0.6024960  3
  11725  11719  11718  11726     1  0.0000000  4.9162000  2
  11725  11719  11718  11726     1  0.0000000  0.6024960  3
  11725  11719  11720  11736     1  0.0000000  4.9162000  2
  11725  11719  11720  11736     1  0.0000000  0.6024960  3
  11726  11718  11715  11727     1  0.0000000  4.9162000  2
  11726  11718  11715  11727     1  0.0000000  0.6024960  3
  11727  11715  11714  11728     1  0.0000000  0.6508444  3
  11727  11715  11714  11736     1  0.0000000  4.9162000  2
  11727  11715  11714  11736     1  0.0000000  0.6024960  3
  11734  11728  11714  11736     1  0.0000000  4.9162000  2
  11734  11728  11714  11736     1  0.0000000  0.6024960  3
  11737  11738  11741  11742     1  180.0000771  0.8368000  1
  11737  11738  11741  11742     1  180.0000771  1.0460000  2
  11737  11738  11741  11742     1  0.0000000  0.7531200  3
  11737  11738  11741  11749     1  0.0000000  0.6508444  3
  11737  11759  11743  11747     1  180.0000771  5.6484000  1
  11737  11759  11743  11747     1  180.0000771  3.5564000  2
  11737  11759  11743  11747     1  0.0000000  0.4184000  3
  11737  11759  11743  11742     1  180.0000771  0.4184000  2
  11737  11759  11743  11742     1  0.0000000  1.6024720  3
  11738  11741  11742  11743     1  180.0000771  0.8368000  1
  11738  11741  11742  11743     1  180.0000771  1.0460000  2
  11738  11741  11742  11743     1  0.0000000  0.7531200  3
  11738  11741  11742  11748     1  0.0000000  0.6508444  3
  11738  11737  11751  11757     1  0.0000000  0.6508444  3
  11738  11737  11759  11743     1  180.0000771  0.4184000  2
  11738  11737  11759  11743     1  0.0000000  1.6024720  3
  11741  11742  11743  11747     1  0.0000000  0.6508444  3
  11741  11742  11743  11759     1  0.0000000  0.6508444  3
  11741  11738  11737  11751     1  180.0000771  0.8368000  1
  11741  11738  11737  11751     1  180.0000771  1.0460000  2
  11741  11738  11737  11751     1  0.0000000  0.7531200  3
  11741  11738  11737  11759     1  0.0000000  0.6508444  3
  11742  11741  11738  11750     1  0.0000000  0.6508444  3
  11743  11759  11737  11751     1  180.0000771  0.4184000  2
  11743  11759  11737  11751     1  0.0000000  1.6024720  3
  11743  11742  11741  11749     1  0.0000000  0.6508444  3
  11747  11743  11742  11748     1  0.0000000  4.9162000  2
  11747  11743  11742  11748     1  0.0000000  0.6024960  3
  11748  11742  11743  11759     1  0.0000000  4.9162000  2
  11748  11742  11743  11759     1  0.0000000  0.6024960  3
  11748  11742  11741  11749     1  0.0000000  4.9162000  2
  11748  11742  11741  11749     1  0.0000000  0.6024960  3
  11749  11741  11738  11750     1  0.0000000  4.9162000  2
  11749  11741  11738  11750     1  0.0000000  0.6024960  3
  11750  11738  11737  11751     1  0.0000000  0.6508444  3
  11750  11738  11737  11759     1  0.0000000  4.9162000  2
  11750  11738  11737  11759     1  0.0000000  0.6024960  3
  11757  11751  11737  11759     1  0.0000000  4.9162000  2
  11757  11751  11737  11759     1  0.0000000  0.6024960  3
  11760  11761  11764  11765     1  180.0000771  0.8368000  1
  11760  11761  11764  11765     1  180.0000771  1.0460000  2
  11760  11761  11764  11765     1  0.0000000  0.7531200  3
  11760  11761  11764  11772     1  0.0000000  0.6508444  3
  11760  11782  11766  11765     1  180.0000771  0.4184000  2
  11760  11782  11766  11765     1  0.0000000  1.6024720  3
  11760  11782  11766  11770     1  180.0000771  5.6484000  1
  11760  11782  11766  11770     1  180.0000771  3.5564000  2
  11760  11782  11766  11770     1  0.0000000  0.4184000  3
  11761  11760  11774  11780     1  0.0000000  0.6508444  3
  11761  11760  11782  11766     1  180.0000771  0.4184000  2
  11761  11760  11782  11766     1  0.0000000  1.6024720  3
  11761  11764  11765  11766     1  180.0000771  0.8368000  1
  11761  11764  11765  11766     1  180.0000771  1.0460000  2
  11761  11764  11765  11766     1  0.0000000  0.7531200  3
  11761  11764  11765  11771     1  0.0000000  0.6508444  3
  11764  11761  11760  11774     1  180.0000771  0.8368000  1
  11764  11761  11760  11774     1  180.0000771  1.0460000  2
  11764  11761  11760  11774     1  0.0000000  0.7531200  3
  11764  11761  11760  11782     1  0.0000000  0.6508444  3
  11764  11765  11766  11770     1  0.0000000  0.6508444  3
  11764  11765  11766  11782     1  0.0000000  0.6508444  3
  11765  11764  11761  11773     1  0.0000000  0.6508444  3
  11766  11765  11764  11772     1  0.0000000  0.6508444  3
  11766  11782  11760  11774     1  180.0000771  0.4184000  2
  11766  11782  11760  11774     1  0.0000000  1.6024720  3
  11770  11766  11765  11771     1  0.0000000  4.9162000  2
  11770  11766  11765  11771     1  0.0000000  0.6024960  3
  11771  11765  11764  11772     1  0.0000000  4.9162000  2
  11771  11765  11764  11772     1  0.0000000  0.6024960  3
  11771  11765  11766  11782     1  0.0000000  4.9162000  2
  11771  11765  11766  11782     1  0.0000000  0.6024960  3
  11772  11764  11761  11773     1  0.0000000  4.9162000  2
  11772  11764  11761  11773     1  0.0000000  0.6024960  3
  11773  11761  11760  11774     1  0.0000000  0.6508444  3
  11773  11761  11760  11782     1  0.0000000  4.9162000  2
  11773  11761  11760  11782     1  0.0000000  0.6024960  3
  11780  11774  11760  11782     1  0.0000000  4.9162000  2
  11780  11774  11760  11782     1  0.0000000  0.6024960  3
  11783  11784  11787  11788     1  180.0000771  0.8368000  1
  11783  11784  11787  11788     1  180.0000771  1.0460000  2
  11783  11784  11787  11788     1  0.0000000  0.7531200  3
  11783  11784  11787  11795     1  0.0000000  0.6508444  3
  11783  11805  11789  11793     1  180.0000771  5.6484000  1
  11783  11805  11789  11793     1  180.0000771  3.5564000  2
  11783  11805  11789  11793     1  0.0000000  0.4184000  3
  11783  11805  11789  11788     1  180.0000771  0.4184000  2
  11783  11805  11789  11788     1  0.0000000  1.6024720  3
  11784  11787  11788  11789     1  180.0000771  0.8368000  1
  11784  11787  11788  11789     1  180.0000771  1.0460000  2
  11784  11787  11788  11789     1  0.0000000  0.7531200  3
  11784  11787  11788  11794     1  0.0000000  0.6508444  3
  11784  11783  11797  11803     1  0.0000000  0.6508444  3
  11784  11783  11805  11789     1  180.0000771  0.4184000  2
  11784  11783  11805  11789     1  0.0000000  1.6024720  3
  11787  11788  11789  11793     1  0.0000000  0.6508444  3
  11787  11788  11789  11805     1  0.0000000  0.6508444  3
  11787  11784  11783  11797     1  180.0000771  0.8368000  1
  11787  11784  11783  11797     1  180.0000771  1.0460000  2
  11787  11784  11783  11797     1  0.0000000  0.7531200  3
  11787  11784  11783  11805     1  0.0000000  0.6508444  3
  11788  11787  11784  11796     1  0.0000000  0.6508444  3
  11789  11805  11783  11797     1  180.0000771  0.4184000  2
  11789  11805  11783  11797     1  0.0000000  1.6024720  3
  11789  11788  11787  11795     1  0.0000000  0.6508444  3
  11793  11789  11788  11794     1  0.0000000  4.9162000  2
  11793  11789  11788  11794     1  0.0000000  0.6024960  3
  11794  11788  11789  11805     1  0.0000000  4.9162000  2
  11794  11788  11789  11805     1  0.0000000  0.6024960  3
  11794  11788  11787  11795     1  0.0000000  4.9162000  2
  11794  11788  11787  11795     1  0.0000000  0.6024960  3
  11795  11787  11784  11796     1  0.0000000  4.9162000  2
  11795  11787  11784  11796     1  0.0000000  0.6024960  3
  11796  11784  11783  11797     1  0.0000000  0.6508444  3
  11796  11784  11783  11805     1  0.0000000  4.9162000  2
  11796  11784  11783  11805     1  0.0000000  0.6024960  3
  11803  11797  11783  11805     1  0.0000000  4.9162000  2
  11803  11797  11783  11805     1  0.0000000  0.6024960  3
  11806  11807  11810  11811     1  180.0000771  0.8368000  1
  11806  11807  11810  11811     1  180.0000771  1.0460000  2
  11806  11807  11810  11811     1  0.0000000  0.7531200  3
  11806  11807  11810  11818     1  0.0000000  0.6508444  3
  11806  11828  11812  11811     1  180.0000771  0.4184000  2
  11806  11828  11812  11811     1  0.0000000  1.6024720  3
  11806  11828  11812  11816     1  180.0000771  5.6484000  1
  11806  11828  11812  11816     1  180.0000771  3.5564000  2
  11806  11828  11812  11816     1  0.0000000  0.4184000  3
  11807  11806  11820  11826     1  0.0000000  0.6508444  3
  11807  11806  11828  11812     1  180.0000771  0.4184000  2
  11807  11806  11828  11812     1  0.0000000  1.6024720  3
  11807  11810  11811  11812     1  180.0000771  0.8368000  1
  11807  11810  11811  11812     1  180.0000771  1.0460000  2
  11807  11810  11811  11812     1  0.0000000  0.7531200  3
  11807  11810  11811  11817     1  0.0000000  0.6508444  3
  11810  11807  11806  11820     1  180.0000771  0.8368000  1
  11810  11807  11806  11820     1  180.0000771  1.0460000  2
  11810  11807  11806  11820     1  0.0000000  0.7531200  3
  11810  11807  11806  11828     1  0.0000000  0.6508444  3
  11810  11811  11812  11816     1  0.0000000  0.6508444  3
  11810  11811  11812  11828     1  0.0000000  0.6508444  3
  11811  11810  11807  11819     1  0.0000000  0.6508444  3
  11812  11811  11810  11818     1  0.0000000  0.6508444  3
  11812  11828  11806  11820     1  180.0000771  0.4184000  2
  11812  11828  11806  11820     1  0.0000000  1.6024720  3
  11816  11812  11811  11817     1  0.0000000  4.9162000  2
  11816  11812  11811  11817     1  0.0000000  0.6024960  3
  11817  11811  11810  11818     1  0.0000000  4.9162000  2
  11817  11811  11810  11818     1  0.0000000  0.6024960  3
  11817  11811  11812  11828     1  0.0000000  4.9162000  2
  11817  11811  11812  11828     1  0.0000000  0.6024960  3
  11818  11810  11807  11819     1  0.0000000  4.9162000  2
  11818  11810  11807  11819     1  0.0000000  0.6024960  3
  11819  11807  11806  11820     1  0.0000000  0.6508444  3
  11819  11807  11806  11828     1  0.0000000  4.9162000  2
  11819  11807  11806  11828     1  0.0000000  0.6024960  3
  11826  11820  11806  11828     1  0.0000000  4.9162000  2
  11826  11820  11806  11828     1  0.0000000  0.6024960  3
  11829  11830  11833  11834     1  180.0000771  0.8368000  1
  11829  11830  11833  11834     1  180.0000771  1.0460000  2
  11829  11830  11833  11834     1  0.0000000  0.7531200  3
  11829  11830  11833  11841     1  0.0000000  0.6508444  3
  11829  11851  11835  11839     1  180.0000771  5.6484000  1
  11829  11851  11835  11839     1  180.0000771  3.5564000  2
  11829  11851  11835  11839     1  0.0000000  0.4184000  3
  11829  11851  11835  11834     1  180.0000771  0.4184000  2
  11829  11851  11835  11834     1  0.0000000  1.6024720  3
  11830  11833  11834  11835     1  180.0000771  0.8368000  1
  11830  11833  11834  11835     1  180.0000771  1.0460000  2
  11830  11833  11834  11835     1  0.0000000  0.7531200  3
  11830  11833  11834  11840     1  0.0000000  0.6508444  3
  11830  11829  11843  11849     1  0.0000000  0.6508444  3
  11830  11829  11851  11835     1  180.0000771  0.4184000  2
  11830  11829  11851  11835     1  0.0000000  1.6024720  3
  11833  11834  11835  11839     1  0.0000000  0.6508444  3
  11833  11834  11835  11851     1  0.0000000  0.6508444  3
  11833  11830  11829  11843     1  180.0000771  0.8368000  1
  11833  11830  11829  11843     1  180.0000771  1.0460000  2
  11833  11830  11829  11843     1  0.0000000  0.7531200  3
  11833  11830  11829  11851     1  0.0000000  0.6508444  3
  11834  11833  11830  11842     1  0.0000000  0.6508444  3
  11835  11851  11829  11843     1  180.0000771  0.4184000  2
  11835  11851  11829  11843     1  0.0000000  1.6024720  3
  11835  11834  11833  11841     1  0.0000000  0.6508444  3
  11839  11835  11834  11840     1  0.0000000  4.9162000  2
  11839  11835  11834  11840     1  0.0000000  0.6024960  3
  11840  11834  11835  11851     1  0.0000000  4.9162000  2
  11840  11834  11835  11851     1  0.0000000  0.6024960  3
  11840  11834  11833  11841     1  0.0000000  4.9162000  2
  11840  11834  11833  11841     1  0.0000000  0.6024960  3
  11841  11833  11830  11842     1  0.0000000  4.9162000  2
  11841  11833  11830  11842     1  0.0000000  0.6024960  3
  11842  11830  11829  11843     1  0.0000000  0.6508444  3
  11842  11830  11829  11851     1  0.0000000  4.9162000  2
  11842  11830  11829  11851     1  0.0000000  0.6024960  3
  11849  11843  11829  11851     1  0.0000000  4.9162000  2
  11849  11843  11829  11851     1  0.0000000  0.6024960  3
  11852  11853  11856  11857     1  180.0000771  0.8368000  1
  11852  11853  11856  11857     1  180.0000771  1.0460000  2
  11852  11853  11856  11857     1  0.0000000  0.7531200  3
  11852  11853  11856  11864     1  0.0000000  0.6508444  3
  11852  11874  11858  11857     1  180.0000771  0.4184000  2
  11852  11874  11858  11857     1  0.0000000  1.6024720  3
  11852  11874  11858  11862     1  180.0000771  5.6484000  1
  11852  11874  11858  11862     1  180.0000771  3.5564000  2
  11852  11874  11858  11862     1  0.0000000  0.4184000  3
  11853  11852  11866  11872     1  0.0000000  0.6508444  3
  11853  11852  11874  11858     1  180.0000771  0.4184000  2
  11853  11852  11874  11858     1  0.0000000  1.6024720  3
  11853  11856  11857  11858     1  180.0000771  0.8368000  1
  11853  11856  11857  11858     1  180.0000771  1.0460000  2
  11853  11856  11857  11858     1  0.0000000  0.7531200  3
  11853  11856  11857  11863     1  0.0000000  0.6508444  3
  11856  11853  11852  11866     1  180.0000771  0.8368000  1
  11856  11853  11852  11866     1  180.0000771  1.0460000  2
  11856  11853  11852  11866     1  0.0000000  0.7531200  3
  11856  11853  11852  11874     1  0.0000000  0.6508444  3
  11856  11857  11858  11862     1  0.0000000  0.6508444  3
  11856  11857  11858  11874     1  0.0000000  0.6508444  3
  11857  11856  11853  11865     1  0.0000000  0.6508444  3
  11858  11857  11856  11864     1  0.0000000  0.6508444  3
  11858  11874  11852  11866     1  180.0000771  0.4184000  2
  11858  11874  11852  11866     1  0.0000000  1.6024720  3
  11862  11858  11857  11863     1  0.0000000  4.9162000  2
  11862  11858  11857  11863     1  0.0000000  0.6024960  3
  11863  11857  11856  11864     1  0.0000000  4.9162000  2
  11863  11857  11856  11864     1  0.0000000  0.6024960  3
  11863  11857  11858  11874     1  0.0000000  4.9162000  2
  11863  11857  11858  11874     1  0.0000000  0.6024960  3
  11864  11856  11853  11865     1  0.0000000  4.9162000  2
  11864  11856  11853  11865     1  0.0000000  0.6024960  3
  11865  11853  11852  11866     1  0.0000000  0.6508444  3
  11865  11853  11852  11874     1  0.0000000  4.9162000  2
  11865  11853  11852  11874     1  0.0000000  0.6024960  3
  11872  11866  11852  11874     1  0.0000000  4.9162000  2
  11872  11866  11852  11874     1  0.0000000  0.6024960  3
  11875  11876  11879  11880     1  180.0000771  0.8368000  1
  11875  11876  11879  11880     1  180.0000771  1.0460000  2
  11875  11876  11879  11880     1  0.0000000  0.7531200  3
  11875  11876  11879  11887     1  0.0000000  0.6508444  3
  11875  11897  11881  11885     1  180.0000771  5.6484000  1
  11875  11897  11881  11885     1  180.0000771  3.5564000  2
  11875  11897  11881  11885     1  0.0000000  0.4184000  3
  11875  11897  11881  11880     1  180.0000771  0.4184000  2
  11875  11897  11881  11880     1  0.0000000  1.6024720  3
  11876  11879  11880  11881     1  180.0000771  0.8368000  1
  11876  11879  11880  11881     1  180.0000771  1.0460000  2
  11876  11879  11880  11881     1  0.0000000  0.7531200  3
  11876  11879  11880  11886     1  0.0000000  0.6508444  3
  11876  11875  11889  11895     1  0.0000000  0.6508444  3
  11876  11875  11897  11881     1  180.0000771  0.4184000  2
  11876  11875  11897  11881     1  0.0000000  1.6024720  3
  11879  11880  11881  11885     1  0.0000000  0.6508444  3
  11879  11880  11881  11897     1  0.0000000  0.6508444  3
  11879  11876  11875  11889     1  180.0000771  0.8368000  1
  11879  11876  11875  11889     1  180.0000771  1.0460000  2
  11879  11876  11875  11889     1  0.0000000  0.7531200  3
  11879  11876  11875  11897     1  0.0000000  0.6508444  3
  11880  11879  11876  11888     1  0.0000000  0.6508444  3
  11881  11897  11875  11889     1  180.0000771  0.4184000  2
  11881  11897  11875  11889     1  0.0000000  1.6024720  3
  11881  11880  11879  11887     1  0.0000000  0.6508444  3
  11885  11881  11880  11886     1  0.0000000  4.9162000  2
  11885  11881  11880  11886     1  0.0000000  0.6024960  3
  11886  11880  11881  11897     1  0.0000000  4.9162000  2
  11886  11880  11881  11897     1  0.0000000  0.6024960  3
  11886  11880  11879  11887     1  0.0000000  4.9162000  2
  11886  11880  11879  11887     1  0.0000000  0.6024960  3
  11887  11879  11876  11888     1  0.0000000  4.9162000  2
  11887  11879  11876  11888     1  0.0000000  0.6024960  3
  11888  11876  11875  11889     1  0.0000000  0.6508444  3
  11888  11876  11875  11897     1  0.0000000  4.9162000  2
  11888  11876  11875  11897     1  0.0000000  0.6024960  3
  11895  11889  11875  11897     1  0.0000000  4.9162000  2
  11895  11889  11875  11897     1  0.0000000  0.6024960  3
  11898  11899  11902  11903     1  180.0000771  0.8368000  1
  11898  11899  11902  11903     1  180.0000771  1.0460000  2
  11898  11899  11902  11903     1  0.0000000  0.7531200  3
  11898  11899  11902  11910     1  0.0000000  0.6508444  3
  11898  11920  11904  11903     1  180.0000771  0.4184000  2
  11898  11920  11904  11903     1  0.0000000  1.6024720  3
  11898  11920  11904  11908     1  180.0000771  5.6484000  1
  11898  11920  11904  11908     1  180.0000771  3.5564000  2
  11898  11920  11904  11908     1  0.0000000  0.4184000  3
  11899  11898  11912  11918     1  0.0000000  0.6508444  3
  11899  11898  11920  11904     1  180.0000771  0.4184000  2
  11899  11898  11920  11904     1  0.0000000  1.6024720  3
  11899  11902  11903  11904     1  180.0000771  0.8368000  1
  11899  11902  11903  11904     1  180.0000771  1.0460000  2
  11899  11902  11903  11904     1  0.0000000  0.7531200  3
  11899  11902  11903  11909     1  0.0000000  0.6508444  3
  11902  11899  11898  11912     1  180.0000771  0.8368000  1
  11902  11899  11898  11912     1  180.0000771  1.0460000  2
  11902  11899  11898  11912     1  0.0000000  0.7531200  3
  11902  11899  11898  11920     1  0.0000000  0.6508444  3
  11902  11903  11904  11908     1  0.0000000  0.6508444  3
  11902  11903  11904  11920     1  0.0000000  0.6508444  3
  11903  11902  11899  11911     1  0.0000000  0.6508444  3
  11904  11903  11902  11910     1  0.0000000  0.6508444  3
  11904  11920  11898  11912     1  180.0000771  0.4184000  2
  11904  11920  11898  11912     1  0.0000000  1.6024720  3
  11908  11904  11903  11909     1  0.0000000  4.9162000  2
  11908  11904  11903  11909     1  0.0000000  0.6024960  3
  11909  11903  11902  11910     1  0.0000000  4.9162000  2
  11909  11903  11902  11910     1  0.0000000  0.6024960  3
  11909  11903  11904  11920     1  0.0000000  4.9162000  2
  11909  11903  11904  11920     1  0.0000000  0.6024960  3
  11910  11902  11899  11911     1  0.0000000  4.9162000  2
  11910  11902  11899  11911     1  0.0000000  0.6024960  3
  11911  11899  11898  11912     1  0.0000000  0.6508444  3
  11911  11899  11898  11920     1  0.0000000  4.9162000  2
  11911  11899  11898  11920     1  0.0000000  0.6024960  3
  11918  11912  11898  11920     1  0.0000000  4.9162000  2
  11918  11912  11898  11920     1  0.0000000  0.6024960  3
  11921  11922  11925  11926     1  180.0000771  0.8368000  1
  11921  11922  11925  11926     1  180.0000771  1.0460000  2
  11921  11922  11925  11926     1  0.0000000  0.7531200  3
  11921  11922  11925  11933     1  0.0000000  0.6508444  3
  11921  11943  11927  11931     1  180.0000771  5.6484000  1
  11921  11943  11927  11931     1  180.0000771  3.5564000  2
  11921  11943  11927  11931     1  0.0000000  0.4184000  3
  11921  11943  11927  11926     1  180.0000771  0.4184000  2
  11921  11943  11927  11926     1  0.0000000  1.6024720  3
  11922  11925  11926  11927     1  180.0000771  0.8368000  1
  11922  11925  11926  11927     1  180.0000771  1.0460000  2
  11922  11925  11926  11927     1  0.0000000  0.7531200  3
  11922  11925  11926  11932     1  0.0000000  0.6508444  3
  11922  11921  11935  11941     1  0.0000000  0.6508444  3
  11922  11921  11943  11927     1  180.0000771  0.4184000  2
  11922  11921  11943  11927     1  0.0000000  1.6024720  3
  11925  11926  11927  11931     1  0.0000000  0.6508444  3
  11925  11926  11927  11943     1  0.0000000  0.6508444  3
  11925  11922  11921  11935     1  180.0000771  0.8368000  1
  11925  11922  11921  11935     1  180.0000771  1.0460000  2
  11925  11922  11921  11935     1  0.0000000  0.7531200  3
  11925  11922  11921  11943     1  0.0000000  0.6508444  3
  11926  11925  11922  11934     1  0.0000000  0.6508444  3
  11927  11943  11921  11935     1  180.0000771  0.4184000  2
  11927  11943  11921  11935     1  0.0000000  1.6024720  3
  11927  11926  11925  11933     1  0.0000000  0.6508444  3
  11931  11927  11926  11932     1  0.0000000  4.9162000  2
  11931  11927  11926  11932     1  0.0000000  0.6024960  3
  11932  11926  11927  11943     1  0.0000000  4.9162000  2
  11932  11926  11927  11943     1  0.0000000  0.6024960  3
  11932  11926  11925  11933     1  0.0000000  4.9162000  2
  11932  11926  11925  11933     1  0.0000000  0.6024960  3
  11933  11925  11922  11934     1  0.0000000  4.9162000  2
  11933  11925  11922  11934     1  0.0000000  0.6024960  3
  11934  11922  11921  11935     1  0.0000000  0.6508444  3
  11934  11922  11921  11943     1  0.0000000  4.9162000  2
  11934  11922  11921  11943     1  0.0000000  0.6024960  3
  11941  11935  11921  11943     1  0.0000000  4.9162000  2
  11941  11935  11921  11943     1  0.0000000  0.6024960  3
  11944  11945  11948  11949     1  180.0000771  0.8368000  1
  11944  11945  11948  11949     1  180.0000771  1.0460000  2
  11944  11945  11948  11949     1  0.0000000  0.7531200  3
  11944  11945  11948  11956     1  0.0000000  0.6508444  3
  11944  11966  11950  11949     1  180.0000771  0.4184000  2
  11944  11966  11950  11949     1  0.0000000  1.6024720  3
  11944  11966  11950  11954     1  180.0000771  5.6484000  1
  11944  11966  11950  11954     1  180.0000771  3.5564000  2
  11944  11966  11950  11954     1  0.0000000  0.4184000  3
  11945  11944  11958  11964     1  0.0000000  0.6508444  3
  11945  11944  11966  11950     1  180.0000771  0.4184000  2
  11945  11944  11966  11950     1  0.0000000  1.6024720  3
  11945  11948  11949  11950     1  180.0000771  0.8368000  1
  11945  11948  11949  11950     1  180.0000771  1.0460000  2
  11945  11948  11949  11950     1  0.0000000  0.7531200  3
  11945  11948  11949  11955     1  0.0000000  0.6508444  3
  11948  11945  11944  11958     1  180.0000771  0.8368000  1
  11948  11945  11944  11958     1  180.0000771  1.0460000  2
  11948  11945  11944  11958     1  0.0000000  0.7531200  3
  11948  11945  11944  11966     1  0.0000000  0.6508444  3
  11948  11949  11950  11954     1  0.0000000  0.6508444  3
  11948  11949  11950  11966     1  0.0000000  0.6508444  3
  11949  11948  11945  11957     1  0.0000000  0.6508444  3
  11950  11949  11948  11956     1  0.0000000  0.6508444  3
  11950  11966  11944  11958     1  180.0000771  0.4184000  2
  11950  11966  11944  11958     1  0.0000000  1.6024720  3
  11954  11950  11949  11955     1  0.0000000  4.9162000  2
  11954  11950  11949  11955     1  0.0000000  0.6024960  3
  11955  11949  11948  11956     1  0.0000000  4.9162000  2
  11955  11949  11948  11956     1  0.0000000  0.6024960  3
  11955  11949  11950  11966     1  0.0000000  4.9162000  2
  11955  11949  11950  11966     1  0.0000000  0.6024960  3
  11956  11948  11945  11957     1  0.0000000  4.9162000  2
  11956  11948  11945  11957     1  0.0000000  0.6024960  3
  11957  11945  11944  11958     1  0.0000000  0.6508444  3
  11957  11945  11944  11966     1  0.0000000  4.9162000  2
  11957  11945  11944  11966     1  0.0000000  0.6024960  3
  11964  11958  11944  11966     1  0.0000000  4.9162000  2
  11964  11958  11944  11966     1  0.0000000  0.6024960  3
  11967  11968  11971  11972     1  180.0000771  0.8368000  1
  11967  11968  11971  11972     1  180.0000771  1.0460000  2
  11967  11968  11971  11972     1  0.0000000  0.7531200  3
  11967  11968  11971  11979     1  0.0000000  0.6508444  3
  11967  11989  11973  11977     1  180.0000771  5.6484000  1
  11967  11989  11973  11977     1  180.0000771  3.5564000  2
  11967  11989  11973  11977     1  0.0000000  0.4184000  3
  11967  11989  11973  11972     1  180.0000771  0.4184000  2
  11967  11989  11973  11972     1  0.0000000  1.6024720  3
  11968  11971  11972  11973     1  180.0000771  0.8368000  1
  11968  11971  11972  11973     1  180.0000771  1.0460000  2
  11968  11971  11972  11973     1  0.0000000  0.7531200  3
  11968  11971  11972  11978     1  0.0000000  0.6508444  3
  11968  11967  11981  11987     1  0.0000000  0.6508444  3
  11968  11967  11989  11973     1  180.0000771  0.4184000  2
  11968  11967  11989  11973     1  0.0000000  1.6024720  3
  11971  11972  11973  11977     1  0.0000000  0.6508444  3
  11971  11972  11973  11989     1  0.0000000  0.6508444  3
  11971  11968  11967  11981     1  180.0000771  0.8368000  1
  11971  11968  11967  11981     1  180.0000771  1.0460000  2
  11971  11968  11967  11981     1  0.0000000  0.7531200  3
  11971  11968  11967  11989     1  0.0000000  0.6508444  3
  11972  11971  11968  11980     1  0.0000000  0.6508444  3
  11973  11989  11967  11981     1  180.0000771  0.4184000  2
  11973  11989  11967  11981     1  0.0000000  1.6024720  3
  11973  11972  11971  11979     1  0.0000000  0.6508444  3
  11977  11973  11972  11978     1  0.0000000  4.9162000  2
  11977  11973  11972  11978     1  0.0000000  0.6024960  3
  11978  11972  11973  11989     1  0.0000000  4.9162000  2
  11978  11972  11973  11989     1  0.0000000  0.6024960  3
  11978  11972  11971  11979     1  0.0000000  4.9162000  2
  11978  11972  11971  11979     1  0.0000000  0.6024960  3
  11979  11971  11968  11980     1  0.0000000  4.9162000  2
  11979  11971  11968  11980     1  0.0000000  0.6024960  3
  11980  11968  11967  11981     1  0.0000000  0.6508444  3
  11980  11968  11967  11989     1  0.0000000  4.9162000  2
  11980  11968  11967  11989     1  0.0000000  0.6024960  3
  11987  11981  11967  11989     1  0.0000000  4.9162000  2
  11987  11981  11967  11989     1  0.0000000  0.6024960  3
  11990  11991  11994  11995     1  180.0000771  0.8368000  1
  11990  11991  11994  11995     1  180.0000771  1.0460000  2
  11990  11991  11994  11995     1  0.0000000  0.7531200  3
  11990  11991  11994  12002     1  0.0000000  0.6508444  3
  11990  12012  11996  11995     1  180.0000771  0.4184000  2
  11990  12012  11996  11995     1  0.0000000  1.6024720  3
  11990  12012  11996  12000     1  180.0000771  5.6484000  1
  11990  12012  11996  12000     1  180.0000771  3.5564000  2
  11990  12012  11996  12000     1  0.0000000  0.4184000  3
  11991  11990  12004  12010     1  0.0000000  0.6508444  3
  11991  11990  12012  11996     1  180.0000771  0.4184000  2
  11991  11990  12012  11996     1  0.0000000  1.6024720  3
  11991  11994  11995  11996     1  180.0000771  0.8368000  1
  11991  11994  11995  11996     1  180.0000771  1.0460000  2
  11991  11994  11995  11996     1  0.0000000  0.7531200  3
  11991  11994  11995  12001     1  0.0000000  0.6508444  3
  11994  11991  11990  12004     1  180.0000771  0.8368000  1
  11994  11991  11990  12004     1  180.0000771  1.0460000  2
  11994  11991  11990  12004     1  0.0000000  0.7531200  3
  11994  11991  11990  12012     1  0.0000000  0.6508444  3
  11994  11995  11996  12000     1  0.0000000  0.6508444  3
  11994  11995  11996  12012     1  0.0000000  0.6508444  3
  11995  11994  11991  12003     1  0.0000000  0.6508444  3
  11996  11995  11994  12002     1  0.0000000  0.6508444  3
  11996  12012  11990  12004     1  180.0000771  0.4184000  2
  11996  12012  11990  12004     1  0.0000000  1.6024720  3
  12000  11996  11995  12001     1  0.0000000  4.9162000  2
  12000  11996  11995  12001     1  0.0000000  0.6024960  3
  12001  11995  11994  12002     1  0.0000000  4.9162000  2
  12001  11995  11994  12002     1  0.0000000  0.6024960  3
  12001  11995  11996  12012     1  0.0000000  4.9162000  2
  12001  11995  11996  12012     1  0.0000000  0.6024960  3
  12002  11994  11991  12003     1  0.0000000  4.9162000  2
  12002  11994  11991  12003     1  0.0000000  0.6024960  3
  12003  11991  11990  12004     1  0.0000000  0.6508444  3
  12003  11991  11990  12012     1  0.0000000  4.9162000  2
  12003  11991  11990  12012     1  0.0000000  0.6024960  3
  12010  12004  11990  12012     1  0.0000000  4.9162000  2
  12010  12004  11990  12012     1  0.0000000  0.6024960  3
  12013  12014  12017  12018     1  180.0000771  0.8368000  1
  12013  12014  12017  12018     1  180.0000771  1.0460000  2
  12013  12014  12017  12018     1  0.0000000  0.7531200  3
  12013  12014  12017  12025     1  0.0000000  0.6508444  3
  12013  12035  12019  12023     1  180.0000771  5.6484000  1
  12013  12035  12019  12023     1  180.0000771  3.5564000  2
  12013  12035  12019  12023     1  0.0000000  0.4184000  3
  12013  12035  12019  12018     1  180.0000771  0.4184000  2
  12013  12035  12019  12018     1  0.0000000  1.6024720  3
  12014  12017  12018  12019     1  180.0000771  0.8368000  1
  12014  12017  12018  12019     1  180.0000771  1.0460000  2
  12014  12017  12018  12019     1  0.0000000  0.7531200  3
  12014  12017  12018  12024     1  0.0000000  0.6508444  3
  12014  12013  12027  12033     1  0.0000000  0.6508444  3
  12014  12013  12035  12019     1  180.0000771  0.4184000  2
  12014  12013  12035  12019     1  0.0000000  1.6024720  3
  12017  12018  12019  12023     1  0.0000000  0.6508444  3
  12017  12018  12019  12035     1  0.0000000  0.6508444  3
  12017  12014  12013  12027     1  180.0000771  0.8368000  1
  12017  12014  12013  12027     1  180.0000771  1.0460000  2
  12017  12014  12013  12027     1  0.0000000  0.7531200  3
  12017  12014  12013  12035     1  0.0000000  0.6508444  3
  12018  12017  12014  12026     1  0.0000000  0.6508444  3
  12019  12035  12013  12027     1  180.0000771  0.4184000  2
  12019  12035  12013  12027     1  0.0000000  1.6024720  3
  12019  12018  12017  12025     1  0.0000000  0.6508444  3
  12023  12019  12018  12024     1  0.0000000  4.9162000  2
  12023  12019  12018  12024     1  0.0000000  0.6024960  3
  12024  12018  12019  12035     1  0.0000000  4.9162000  2
  12024  12018  12019  12035     1  0.0000000  0.6024960  3
  12024  12018  12017  12025     1  0.0000000  4.9162000  2
  12024  12018  12017  12025     1  0.0000000  0.6024960  3
  12025  12017  12014  12026     1  0.0000000  4.9162000  2
  12025  12017  12014  12026     1  0.0000000  0.6024960  3
  12026  12014  12013  12027     1  0.0000000  0.6508444  3
  12026  12014  12013  12035     1  0.0000000  4.9162000  2
  12026  12014  12013  12035     1  0.0000000  0.6024960  3
  12033  12027  12013  12035     1  0.0000000  4.9162000  2
  12033  12027  12013  12035     1  0.0000000  0.6024960  3
  12036  12037  12040  12041     1  180.0000771  0.8368000  1
  12036  12037  12040  12041     1  180.0000771  1.0460000  2
  12036  12037  12040  12041     1  0.0000000  0.7531200  3
  12036  12037  12040  12048     1  0.0000000  0.6508444  3
  12036  12058  12042  12041     1  180.0000771  0.4184000  2
  12036  12058  12042  12041     1  0.0000000  1.6024720  3
  12036  12058  12042  12046     1  180.0000771  5.6484000  1
  12036  12058  12042  12046     1  180.0000771  3.5564000  2
  12036  12058  12042  12046     1  0.0000000  0.4184000  3
  12037  12036  12050  12056     1  0.0000000  0.6508444  3
  12037  12036  12058  12042     1  180.0000771  0.4184000  2
  12037  12036  12058  12042     1  0.0000000  1.6024720  3
  12037  12040  12041  12042     1  180.0000771  0.8368000  1
  12037  12040  12041  12042     1  180.0000771  1.0460000  2
  12037  12040  12041  12042     1  0.0000000  0.7531200  3
  12037  12040  12041  12047     1  0.0000000  0.6508444  3
  12040  12037  12036  12050     1  180.0000771  0.8368000  1
  12040  12037  12036  12050     1  180.0000771  1.0460000  2
  12040  12037  12036  12050     1  0.0000000  0.7531200  3
  12040  12037  12036  12058     1  0.0000000  0.6508444  3
  12040  12041  12042  12046     1  0.0000000  0.6508444  3
  12040  12041  12042  12058     1  0.0000000  0.6508444  3
  12041  12040  12037  12049     1  0.0000000  0.6508444  3
  12042  12041  12040  12048     1  0.0000000  0.6508444  3
  12042  12058  12036  12050     1  180.0000771  0.4184000  2
  12042  12058  12036  12050     1  0.0000000  1.6024720  3
  12046  12042  12041  12047     1  0.0000000  4.9162000  2
  12046  12042  12041  12047     1  0.0000000  0.6024960  3
  12047  12041  12040  12048     1  0.0000000  4.9162000  2
  12047  12041  12040  12048     1  0.0000000  0.6024960  3
  12047  12041  12042  12058     1  0.0000000  4.9162000  2
  12047  12041  12042  12058     1  0.0000000  0.6024960  3
  12048  12040  12037  12049     1  0.0000000  4.9162000  2
  12048  12040  12037  12049     1  0.0000000  0.6024960  3
  12049  12037  12036  12050     1  0.0000000  0.6508444  3
  12049  12037  12036  12058     1  0.0000000  4.9162000  2
  12049  12037  12036  12058     1  0.0000000  0.6024960  3
  12056  12050  12036  12058     1  0.0000000  4.9162000  2
  12056  12050  12036  12058     1  0.0000000  0.6024960  3
  12059  12060  12063  12064     1  180.0000771  0.8368000  1
  12059  12060  12063  12064     1  180.0000771  1.0460000  2
  12059  12060  12063  12064     1  0.0000000  0.7531200  3
  12059  12060  12063  12071     1  0.0000000  0.6508444  3
  12059  12081  12065  12069     1  180.0000771  5.6484000  1
  12059  12081  12065  12069     1  180.0000771  3.5564000  2
  12059  12081  12065  12069     1  0.0000000  0.4184000  3
  12059  12081  12065  12064     1  180.0000771  0.4184000  2
  12059  12081  12065  12064     1  0.0000000  1.6024720  3
  12060  12063  12064  12065     1  180.0000771  0.8368000  1
  12060  12063  12064  12065     1  180.0000771  1.0460000  2
  12060  12063  12064  12065     1  0.0000000  0.7531200  3
  12060  12063  12064  12070     1  0.0000000  0.6508444  3
  12060  12059  12073  12079     1  0.0000000  0.6508444  3
  12060  12059  12081  12065     1  180.0000771  0.4184000  2
  12060  12059  12081  12065     1  0.0000000  1.6024720  3
  12063  12064  12065  12069     1  0.0000000  0.6508444  3
  12063  12064  12065  12081     1  0.0000000  0.6508444  3
  12063  12060  12059  12073     1  180.0000771  0.8368000  1
  12063  12060  12059  12073     1  180.0000771  1.0460000  2
  12063  12060  12059  12073     1  0.0000000  0.7531200  3
  12063  12060  12059  12081     1  0.0000000  0.6508444  3
  12064  12063  12060  12072     1  0.0000000  0.6508444  3
  12065  12081  12059  12073     1  180.0000771  0.4184000  2
  12065  12081  12059  12073     1  0.0000000  1.6024720  3
  12065  12064  12063  12071     1  0.0000000  0.6508444  3
  12069  12065  12064  12070     1  0.0000000  4.9162000  2
  12069  12065  12064  12070     1  0.0000000  0.6024960  3
  12070  12064  12065  12081     1  0.0000000  4.9162000  2
  12070  12064  12065  12081     1  0.0000000  0.6024960  3
  12070  12064  12063  12071     1  0.0000000  4.9162000  2
  12070  12064  12063  12071     1  0.0000000  0.6024960  3
  12071  12063  12060  12072     1  0.0000000  4.9162000  2
  12071  12063  12060  12072     1  0.0000000  0.6024960  3
  12072  12060  12059  12073     1  0.0000000  0.6508444  3
  12072  12060  12059  12081     1  0.0000000  4.9162000  2
  12072  12060  12059  12081     1  0.0000000  0.6024960  3
  12079  12073  12059  12081     1  0.0000000  4.9162000  2
  12079  12073  12059  12081     1  0.0000000  0.6024960  3
  12082  12083  12086  12087     1  180.0000771  0.8368000  1
  12082  12083  12086  12087     1  180.0000771  1.0460000  2
  12082  12083  12086  12087     1  0.0000000  0.7531200  3
  12082  12083  12086  12094     1  0.0000000  0.6508444  3
  12082  12104  12088  12087     1  180.0000771  0.4184000  2
  12082  12104  12088  12087     1  0.0000000  1.6024720  3
  12082  12104  12088  12092     1  180.0000771  5.6484000  1
  12082  12104  12088  12092     1  180.0000771  3.5564000  2
  12082  12104  12088  12092     1  0.0000000  0.4184000  3
  12083  12082  12096  12102     1  0.0000000  0.6508444  3
  12083  12082  12104  12088     1  180.0000771  0.4184000  2
  12083  12082  12104  12088     1  0.0000000  1.6024720  3
  12083  12086  12087  12088     1  180.0000771  0.8368000  1
  12083  12086  12087  12088     1  180.0000771  1.0460000  2
  12083  12086  12087  12088     1  0.0000000  0.7531200  3
  12083  12086  12087  12093     1  0.0000000  0.6508444  3
  12086  12083  12082  12096     1  180.0000771  0.8368000  1
  12086  12083  12082  12096     1  180.0000771  1.0460000  2
  12086  12083  12082  12096     1  0.0000000  0.7531200  3
  12086  12083  12082  12104     1  0.0000000  0.6508444  3
  12086  12087  12088  12092     1  0.0000000  0.6508444  3
  12086  12087  12088  12104     1  0.0000000  0.6508444  3
  12087  12086  12083  12095     1  0.0000000  0.6508444  3
  12088  12087  12086  12094     1  0.0000000  0.6508444  3
  12088  12104  12082  12096     1  180.0000771  0.4184000  2
  12088  12104  12082  12096     1  0.0000000  1.6024720  3
  12092  12088  12087  12093     1  0.0000000  4.9162000  2
  12092  12088  12087  12093     1  0.0000000  0.6024960  3
  12093  12087  12086  12094     1  0.0000000  4.9162000  2
  12093  12087  12086  12094     1  0.0000000  0.6024960  3
  12093  12087  12088  12104     1  0.0000000  4.9162000  2
  12093  12087  12088  12104     1  0.0000000  0.6024960  3
  12094  12086  12083  12095     1  0.0000000  4.9162000  2
  12094  12086  12083  12095     1  0.0000000  0.6024960  3
  12095  12083  12082  12096     1  0.0000000  0.6508444  3
  12095  12083  12082  12104     1  0.0000000  4.9162000  2
  12095  12083  12082  12104     1  0.0000000  0.6024960  3
  12102  12096  12082  12104     1  0.0000000  4.9162000  2
  12102  12096  12082  12104     1  0.0000000  0.6024960  3
  12105  12106  12109  12110     1  180.0000771  0.8368000  1
  12105  12106  12109  12110     1  180.0000771  1.0460000  2
  12105  12106  12109  12110     1  0.0000000  0.7531200  3
  12105  12106  12109  12117     1  0.0000000  0.6508444  3
  12105  12127  12111  12115     1  180.0000771  5.6484000  1
  12105  12127  12111  12115     1  180.0000771  3.5564000  2
  12105  12127  12111  12115     1  0.0000000  0.4184000  3
  12105  12127  12111  12110     1  180.0000771  0.4184000  2
  12105  12127  12111  12110     1  0.0000000  1.6024720  3
  12106  12109  12110  12111     1  180.0000771  0.8368000  1
  12106  12109  12110  12111     1  180.0000771  1.0460000  2
  12106  12109  12110  12111     1  0.0000000  0.7531200  3
  12106  12109  12110  12116     1  0.0000000  0.6508444  3
  12106  12105  12119  12125     1  0.0000000  0.6508444  3
  12106  12105  12127  12111     1  180.0000771  0.4184000  2
  12106  12105  12127  12111     1  0.0000000  1.6024720  3
  12109  12110  12111  12115     1  0.0000000  0.6508444  3
  12109  12110  12111  12127     1  0.0000000  0.6508444  3
  12109  12106  12105  12119     1  180.0000771  0.8368000  1
  12109  12106  12105  12119     1  180.0000771  1.0460000  2
  12109  12106  12105  12119     1  0.0000000  0.7531200  3
  12109  12106  12105  12127     1  0.0000000  0.6508444  3
  12110  12109  12106  12118     1  0.0000000  0.6508444  3
  12111  12127  12105  12119     1  180.0000771  0.4184000  2
  12111  12127  12105  12119     1  0.0000000  1.6024720  3
  12111  12110  12109  12117     1  0.0000000  0.6508444  3
  12115  12111  12110  12116     1  0.0000000  4.9162000  2
  12115  12111  12110  12116     1  0.0000000  0.6024960  3
  12116  12110  12111  12127     1  0.0000000  4.9162000  2
  12116  12110  12111  12127     1  0.0000000  0.6024960  3
  12116  12110  12109  12117     1  0.0000000  4.9162000  2
  12116  12110  12109  12117     1  0.0000000  0.6024960  3
  12117  12109  12106  12118     1  0.0000000  4.9162000  2
  12117  12109  12106  12118     1  0.0000000  0.6024960  3
  12118  12106  12105  12119     1  0.0000000  0.6508444  3
  12118  12106  12105  12127     1  0.0000000  4.9162000  2
  12118  12106  12105  12127     1  0.0000000  0.6024960  3
  12125  12119  12105  12127     1  0.0000000  4.9162000  2
  12125  12119  12105  12127     1  0.0000000  0.6024960  3
  12128  12129  12132  12133     1  180.0000771  0.8368000  1
  12128  12129  12132  12133     1  180.0000771  1.0460000  2
  12128  12129  12132  12133     1  0.0000000  0.7531200  3
  12128  12129  12132  12140     1  0.0000000  0.6508444  3
  12128  12150  12134  12133     1  180.0000771  0.4184000  2
  12128  12150  12134  12133     1  0.0000000  1.6024720  3
  12128  12150  12134  12138     1  180.0000771  5.6484000  1
  12128  12150  12134  12138     1  180.0000771  3.5564000  2
  12128  12150  12134  12138     1  0.0000000  0.4184000  3
  12129  12128  12142  12148     1  0.0000000  0.6508444  3
  12129  12128  12150  12134     1  180.0000771  0.4184000  2
  12129  12128  12150  12134     1  0.0000000  1.6024720  3
  12129  12132  12133  12134     1  180.0000771  0.8368000  1
  12129  12132  12133  12134     1  180.0000771  1.0460000  2
  12129  12132  12133  12134     1  0.0000000  0.7531200  3
  12129  12132  12133  12139     1  0.0000000  0.6508444  3
  12132  12129  12128  12142     1  180.0000771  0.8368000  1
  12132  12129  12128  12142     1  180.0000771  1.0460000  2
  12132  12129  12128  12142     1  0.0000000  0.7531200  3
  12132  12129  12128  12150     1  0.0000000  0.6508444  3
  12132  12133  12134  12138     1  0.0000000  0.6508444  3
  12132  12133  12134  12150     1  0.0000000  0.6508444  3
  12133  12132  12129  12141     1  0.0000000  0.6508444  3
  12134  12133  12132  12140     1  0.0000000  0.6508444  3
  12134  12150  12128  12142     1  180.0000771  0.4184000  2
  12134  12150  12128  12142     1  0.0000000  1.6024720  3
  12138  12134  12133  12139     1  0.0000000  4.9162000  2
  12138  12134  12133  12139     1  0.0000000  0.6024960  3
  12139  12133  12132  12140     1  0.0000000  4.9162000  2
  12139  12133  12132  12140     1  0.0000000  0.6024960  3
  12139  12133  12134  12150     1  0.0000000  4.9162000  2
  12139  12133  12134  12150     1  0.0000000  0.6024960  3
  12140  12132  12129  12141     1  0.0000000  4.9162000  2
  12140  12132  12129  12141     1  0.0000000  0.6024960  3
  12141  12129  12128  12142     1  0.0000000  0.6508444  3
  12141  12129  12128  12150     1  0.0000000  4.9162000  2
  12141  12129  12128  12150     1  0.0000000  0.6024960  3
  12148  12142  12128  12150     1  0.0000000  4.9162000  2
  12148  12142  12128  12150     1  0.0000000  0.6024960  3
  12151  12152  12155  12156     1  180.0000771  0.8368000  1
  12151  12152  12155  12156     1  180.0000771  1.0460000  2
  12151  12152  12155  12156     1  0.0000000  0.7531200  3
  12151  12152  12155  12163     1  0.0000000  0.6508444  3
  12151  12173  12157  12161     1  180.0000771  5.6484000  1
  12151  12173  12157  12161     1  180.0000771  3.5564000  2
  12151  12173  12157  12161     1  0.0000000  0.4184000  3
  12151  12173  12157  12156     1  180.0000771  0.4184000  2
  12151  12173  12157  12156     1  0.0000000  1.6024720  3
  12152  12155  12156  12157     1  180.0000771  0.8368000  1
  12152  12155  12156  12157     1  180.0000771  1.0460000  2
  12152  12155  12156  12157     1  0.0000000  0.7531200  3
  12152  12155  12156  12162     1  0.0000000  0.6508444  3
  12152  12151  12165  12171     1  0.0000000  0.6508444  3
  12152  12151  12173  12157     1  180.0000771  0.4184000  2
  12152  12151  12173  12157     1  0.0000000  1.6024720  3
  12155  12156  12157  12161     1  0.0000000  0.6508444  3
  12155  12156  12157  12173     1  0.0000000  0.6508444  3
  12155  12152  12151  12165     1  180.0000771  0.8368000  1
  12155  12152  12151  12165     1  180.0000771  1.0460000  2
  12155  12152  12151  12165     1  0.0000000  0.7531200  3
  12155  12152  12151  12173     1  0.0000000  0.6508444  3
  12156  12155  12152  12164     1  0.0000000  0.6508444  3
  12157  12173  12151  12165     1  180.0000771  0.4184000  2
  12157  12173  12151  12165     1  0.0000000  1.6024720  3
  12157  12156  12155  12163     1  0.0000000  0.6508444  3
  12161  12157  12156  12162     1  0.0000000  4.9162000  2
  12161  12157  12156  12162     1  0.0000000  0.6024960  3
  12162  12156  12157  12173     1  0.0000000  4.9162000  2
  12162  12156  12157  12173     1  0.0000000  0.6024960  3
  12162  12156  12155  12163     1  0.0000000  4.9162000  2
  12162  12156  12155  12163     1  0.0000000  0.6024960  3
  12163  12155  12152  12164     1  0.0000000  4.9162000  2
  12163  12155  12152  12164     1  0.0000000  0.6024960  3
  12164  12152  12151  12165     1  0.0000000  0.6508444  3
  12164  12152  12151  12173     1  0.0000000  4.9162000  2
  12164  12152  12151  12173     1  0.0000000  0.6024960  3
  12171  12165  12151  12173     1  0.0000000  4.9162000  2
  12171  12165  12151  12173     1  0.0000000  0.6024960  3
  12174  12175  12178  12179     1  180.0000771  0.8368000  1
  12174  12175  12178  12179     1  180.0000771  1.0460000  2
  12174  12175  12178  12179     1  0.0000000  0.7531200  3
  12174  12175  12178  12186     1  0.0000000  0.6508444  3
  12174  12196  12180  12179     1  180.0000771  0.4184000  2
  12174  12196  12180  12179     1  0.0000000  1.6024720  3
  12174  12196  12180  12184     1  180.0000771  5.6484000  1
  12174  12196  12180  12184     1  180.0000771  3.5564000  2
  12174  12196  12180  12184     1  0.0000000  0.4184000  3
  12175  12174  12188  12194     1  0.0000000  0.6508444  3
  12175  12174  12196  12180     1  180.0000771  0.4184000  2
  12175  12174  12196  12180     1  0.0000000  1.6024720  3
  12175  12178  12179  12180     1  180.0000771  0.8368000  1
  12175  12178  12179  12180     1  180.0000771  1.0460000  2
  12175  12178  12179  12180     1  0.0000000  0.7531200  3
  12175  12178  12179  12185     1  0.0000000  0.6508444  3
  12178  12175  12174  12188     1  180.0000771  0.8368000  1
  12178  12175  12174  12188     1  180.0000771  1.0460000  2
  12178  12175  12174  12188     1  0.0000000  0.7531200  3
  12178  12175  12174  12196     1  0.0000000  0.6508444  3
  12178  12179  12180  12184     1  0.0000000  0.6508444  3
  12178  12179  12180  12196     1  0.0000000  0.6508444  3
  12179  12178  12175  12187     1  0.0000000  0.6508444  3
  12180  12179  12178  12186     1  0.0000000  0.6508444  3
  12180  12196  12174  12188     1  180.0000771  0.4184000  2
  12180  12196  12174  12188     1  0.0000000  1.6024720  3
  12184  12180  12179  12185     1  0.0000000  4.9162000  2
  12184  12180  12179  12185     1  0.0000000  0.6024960  3
  12185  12179  12178  12186     1  0.0000000  4.9162000  2
  12185  12179  12178  12186     1  0.0000000  0.6024960  3
  12185  12179  12180  12196     1  0.0000000  4.9162000  2
  12185  12179  12180  12196     1  0.0000000  0.6024960  3
  12186  12178  12175  12187     1  0.0000000  4.9162000  2
  12186  12178  12175  12187     1  0.0000000  0.6024960  3
  12187  12175  12174  12188     1  0.0000000  0.6508444  3
  12187  12175  12174  12196     1  0.0000000  4.9162000  2
  12187  12175  12174  12196     1  0.0000000  0.6024960  3
  12194  12188  12174  12196     1  0.0000000  4.9162000  2
  12194  12188  12174  12196     1  0.0000000  0.6024960  3
  12197  12198  12201  12202     1  180.0000771  0.8368000  1
  12197  12198  12201  12202     1  180.0000771  1.0460000  2
  12197  12198  12201  12202     1  0.0000000  0.7531200  3
  12197  12198  12201  12209     1  0.0000000  0.6508444  3
  12197  12219  12203  12207     1  180.0000771  5.6484000  1
  12197  12219  12203  12207     1  180.0000771  3.5564000  2
  12197  12219  12203  12207     1  0.0000000  0.4184000  3
  12197  12219  12203  12202     1  180.0000771  0.4184000  2
  12197  12219  12203  12202     1  0.0000000  1.6024720  3
  12198  12201  12202  12203     1  180.0000771  0.8368000  1
  12198  12201  12202  12203     1  180.0000771  1.0460000  2
  12198  12201  12202  12203     1  0.0000000  0.7531200  3
  12198  12201  12202  12208     1  0.0000000  0.6508444  3
  12198  12197  12211  12217     1  0.0000000  0.6508444  3
  12198  12197  12219  12203     1  180.0000771  0.4184000  2
  12198  12197  12219  12203     1  0.0000000  1.6024720  3
  12201  12202  12203  12207     1  0.0000000  0.6508444  3
  12201  12202  12203  12219     1  0.0000000  0.6508444  3
  12201  12198  12197  12211     1  180.0000771  0.8368000  1
  12201  12198  12197  12211     1  180.0000771  1.0460000  2
  12201  12198  12197  12211     1  0.0000000  0.7531200  3
  12201  12198  12197  12219     1  0.0000000  0.6508444  3
  12202  12201  12198  12210     1  0.0000000  0.6508444  3
  12203  12219  12197  12211     1  180.0000771  0.4184000  2
  12203  12219  12197  12211     1  0.0000000  1.6024720  3
  12203  12202  12201  12209     1  0.0000000  0.6508444  3
  12207  12203  12202  12208     1  0.0000000  4.9162000  2
  12207  12203  12202  12208     1  0.0000000  0.6024960  3
  12208  12202  12203  12219     1  0.0000000  4.9162000  2
  12208  12202  12203  12219     1  0.0000000  0.6024960  3
  12208  12202  12201  12209     1  0.0000000  4.9162000  2
  12208  12202  12201  12209     1  0.0000000  0.6024960  3
  12209  12201  12198  12210     1  0.0000000  4.9162000  2
  12209  12201  12198  12210     1  0.0000000  0.6024960  3
  12210  12198  12197  12211     1  0.0000000  0.6508444  3
  12210  12198  12197  12219     1  0.0000000  4.9162000  2
  12210  12198  12197  12219     1  0.0000000  0.6024960  3
  12217  12211  12197  12219     1  0.0000000  4.9162000  2
  12217  12211  12197  12219     1  0.0000000  0.6024960  3
  12220  12221  12224  12225     1  180.0000771  0.8368000  1
  12220  12221  12224  12225     1  180.0000771  1.0460000  2
  12220  12221  12224  12225     1  0.0000000  0.7531200  3
  12220  12221  12224  12232     1  0.0000000  0.6508444  3
  12220  12242  12226  12225     1  180.0000771  0.4184000  2
  12220  12242  12226  12225     1  0.0000000  1.6024720  3
  12220  12242  12226  12230     1  180.0000771  5.6484000  1
  12220  12242  12226  12230     1  180.0000771  3.5564000  2
  12220  12242  12226  12230     1  0.0000000  0.4184000  3
  12221  12220  12234  12240     1  0.0000000  0.6508444  3
  12221  12220  12242  12226     1  180.0000771  0.4184000  2
  12221  12220  12242  12226     1  0.0000000  1.6024720  3
  12221  12224  12225  12226     1  180.0000771  0.8368000  1
  12221  12224  12225  12226     1  180.0000771  1.0460000  2
  12221  12224  12225  12226     1  0.0000000  0.7531200  3
  12221  12224  12225  12231     1  0.0000000  0.6508444  3
  12224  12221  12220  12234     1  180.0000771  0.8368000  1
  12224  12221  12220  12234     1  180.0000771  1.0460000  2
  12224  12221  12220  12234     1  0.0000000  0.7531200  3
  12224  12221  12220  12242     1  0.0000000  0.6508444  3
  12224  12225  12226  12230     1  0.0000000  0.6508444  3
  12224  12225  12226  12242     1  0.0000000  0.6508444  3
  12225  12224  12221  12233     1  0.0000000  0.6508444  3
  12226  12225  12224  12232     1  0.0000000  0.6508444  3
  12226  12242  12220  12234     1  180.0000771  0.4184000  2
  12226  12242  12220  12234     1  0.0000000  1.6024720  3
  12230  12226  12225  12231     1  0.0000000  4.9162000  2
  12230  12226  12225  12231     1  0.0000000  0.6024960  3
  12231  12225  12224  12232     1  0.0000000  4.9162000  2
  12231  12225  12224  12232     1  0.0000000  0.6024960  3
  12231  12225  12226  12242     1  0.0000000  4.9162000  2
  12231  12225  12226  12242     1  0.0000000  0.6024960  3
  12232  12224  12221  12233     1  0.0000000  4.9162000  2
  12232  12224  12221  12233     1  0.0000000  0.6024960  3
  12233  12221  12220  12234     1  0.0000000  0.6508444  3
  12233  12221  12220  12242     1  0.0000000  4.9162000  2
  12233  12221  12220  12242     1  0.0000000  0.6024960  3
  12240  12234  12220  12242     1  0.0000000  4.9162000  2
  12240  12234  12220  12242     1  0.0000000  0.6024960  3
  12243  12244  12247  12248     1  180.0000771  0.8368000  1
  12243  12244  12247  12248     1  180.0000771  1.0460000  2
  12243  12244  12247  12248     1  0.0000000  0.7531200  3
  12243  12244  12247  12255     1  0.0000000  0.6508444  3
  12243  12265  12249  12253     1  180.0000771  5.6484000  1
  12243  12265  12249  12253     1  180.0000771  3.5564000  2
  12243  12265  12249  12253     1  0.0000000  0.4184000  3
  12243  12265  12249  12248     1  180.0000771  0.4184000  2
  12243  12265  12249  12248     1  0.0000000  1.6024720  3
  12244  12247  12248  12249     1  180.0000771  0.8368000  1
  12244  12247  12248  12249     1  180.0000771  1.0460000  2
  12244  12247  12248  12249     1  0.0000000  0.7531200  3
  12244  12247  12248  12254     1  0.0000000  0.6508444  3
  12244  12243  12257  12263     1  0.0000000  0.6508444  3
  12244  12243  12265  12249     1  180.0000771  0.4184000  2
  12244  12243  12265  12249     1  0.0000000  1.6024720  3
  12247  12248  12249  12253     1  0.0000000  0.6508444  3
  12247  12248  12249  12265     1  0.0000000  0.6508444  3
  12247  12244  12243  12257     1  180.0000771  0.8368000  1
  12247  12244  12243  12257     1  180.0000771  1.0460000  2
  12247  12244  12243  12257     1  0.0000000  0.7531200  3
  12247  12244  12243  12265     1  0.0000000  0.6508444  3
  12248  12247  12244  12256     1  0.0000000  0.6508444  3
  12249  12265  12243  12257     1  180.0000771  0.4184000  2
  12249  12265  12243  12257     1  0.0000000  1.6024720  3
  12249  12248  12247  12255     1  0.0000000  0.6508444  3
  12253  12249  12248  12254     1  0.0000000  4.9162000  2
  12253  12249  12248  12254     1  0.0000000  0.6024960  3
  12254  12248  12249  12265     1  0.0000000  4.9162000  2
  12254  12248  12249  12265     1  0.0000000  0.6024960  3
  12254  12248  12247  12255     1  0.0000000  4.9162000  2
  12254  12248  12247  12255     1  0.0000000  0.6024960  3
  12255  12247  12244  12256     1  0.0000000  4.9162000  2
  12255  12247  12244  12256     1  0.0000000  0.6024960  3
  12256  12244  12243  12257     1  0.0000000  0.6508444  3
  12256  12244  12243  12265     1  0.0000000  4.9162000  2
  12256  12244  12243  12265     1  0.0000000  0.6024960  3
  12263  12257  12243  12265     1  0.0000000  4.9162000  2
  12263  12257  12243  12265     1  0.0000000  0.6024960  3
  12266  12267  12270  12271     1  180.0000771  0.8368000  1
  12266  12267  12270  12271     1  180.0000771  1.0460000  2
  12266  12267  12270  12271     1  0.0000000  0.7531200  3
  12266  12267  12270  12278     1  0.0000000  0.6508444  3
  12266  12288  12272  12271     1  180.0000771  0.4184000  2
  12266  12288  12272  12271     1  0.0000000  1.6024720  3
  12266  12288  12272  12276     1  180.0000771  5.6484000  1
  12266  12288  12272  12276     1  180.0000771  3.5564000  2
  12266  12288  12272  12276     1  0.0000000  0.4184000  3
  12267  12266  12280  12286     1  0.0000000  0.6508444  3
  12267  12266  12288  12272     1  180.0000771  0.4184000  2
  12267  12266  12288  12272     1  0.0000000  1.6024720  3
  12267  12270  12271  12272     1  180.0000771  0.8368000  1
  12267  12270  12271  12272     1  180.0000771  1.0460000  2
  12267  12270  12271  12272     1  0.0000000  0.7531200  3
  12267  12270  12271  12277     1  0.0000000  0.6508444  3
  12270  12267  12266  12280     1  180.0000771  0.8368000  1
  12270  12267  12266  12280     1  180.0000771  1.0460000  2
  12270  12267  12266  12280     1  0.0000000  0.7531200  3
  12270  12267  12266  12288     1  0.0000000  0.6508444  3
  12270  12271  12272  12276     1  0.0000000  0.6508444  3
  12270  12271  12272  12288     1  0.0000000  0.6508444  3
  12271  12270  12267  12279     1  0.0000000  0.6508444  3
  12272  12271  12270  12278     1  0.0000000  0.6508444  3
  12272  12288  12266  12280     1  180.0000771  0.4184000  2
  12272  12288  12266  12280     1  0.0000000  1.6024720  3
  12276  12272  12271  12277     1  0.0000000  4.9162000  2
  12276  12272  12271  12277     1  0.0000000  0.6024960  3
  12277  12271  12270  12278     1  0.0000000  4.9162000  2
  12277  12271  12270  12278     1  0.0000000  0.6024960  3
  12277  12271  12272  12288     1  0.0000000  4.9162000  2
  12277  12271  12272  12288     1  0.0000000  0.6024960  3
  12278  12270  12267  12279     1  0.0000000  4.9162000  2
  12278  12270  12267  12279     1  0.0000000  0.6024960  3
  12279  12267  12266  12280     1  0.0000000  0.6508444  3
  12279  12267  12266  12288     1  0.0000000  4.9162000  2
  12279  12267  12266  12288     1  0.0000000  0.6024960  3
  12286  12280  12266  12288     1  0.0000000  4.9162000  2
  12286  12280  12266  12288     1  0.0000000  0.6024960  3
  12289  12290  12293  12294     1  180.0000771  0.8368000  1
  12289  12290  12293  12294     1  180.0000771  1.0460000  2
  12289  12290  12293  12294     1  0.0000000  0.7531200  3
  12289  12290  12293  12301     1  0.0000000  0.6508444  3
  12289  12311  12295  12299     1  180.0000771  5.6484000  1
  12289  12311  12295  12299     1  180.0000771  3.5564000  2
  12289  12311  12295  12299     1  0.0000000  0.4184000  3
  12289  12311  12295  12294     1  180.0000771  0.4184000  2
  12289  12311  12295  12294     1  0.0000000  1.6024720  3
  12290  12293  12294  12295     1  180.0000771  0.8368000  1
  12290  12293  12294  12295     1  180.0000771  1.0460000  2
  12290  12293  12294  12295     1  0.0000000  0.7531200  3
  12290  12293  12294  12300     1  0.0000000  0.6508444  3
  12290  12289  12303  12309     1  0.0000000  0.6508444  3
  12290  12289  12311  12295     1  180.0000771  0.4184000  2
  12290  12289  12311  12295     1  0.0000000  1.6024720  3
  12293  12294  12295  12299     1  0.0000000  0.6508444  3
  12293  12294  12295  12311     1  0.0000000  0.6508444  3
  12293  12290  12289  12303     1  180.0000771  0.8368000  1
  12293  12290  12289  12303     1  180.0000771  1.0460000  2
  12293  12290  12289  12303     1  0.0000000  0.7531200  3
  12293  12290  12289  12311     1  0.0000000  0.6508444  3
  12294  12293  12290  12302     1  0.0000000  0.6508444  3
  12295  12311  12289  12303     1  180.0000771  0.4184000  2
  12295  12311  12289  12303     1  0.0000000  1.6024720  3
  12295  12294  12293  12301     1  0.0000000  0.6508444  3
  12299  12295  12294  12300     1  0.0000000  4.9162000  2
  12299  12295  12294  12300     1  0.0000000  0.6024960  3
  12300  12294  12295  12311     1  0.0000000  4.9162000  2
  12300  12294  12295  12311     1  0.0000000  0.6024960  3
  12300  12294  12293  12301     1  0.0000000  4.9162000  2
  12300  12294  12293  12301     1  0.0000000  0.6024960  3
  12301  12293  12290  12302     1  0.0000000  4.9162000  2
  12301  12293  12290  12302     1  0.0000000  0.6024960  3
  12302  12290  12289  12303     1  0.0000000  0.6508444  3
  12302  12290  12289  12311     1  0.0000000  4.9162000  2
  12302  12290  12289  12311     1  0.0000000  0.6024960  3
  12309  12303  12289  12311     1  0.0000000  4.9162000  2
  12309  12303  12289  12311     1  0.0000000  0.6024960  3
  12312  12313  12316  12317     1  180.0000771  0.8368000  1
  12312  12313  12316  12317     1  180.0000771  1.0460000  2
  12312  12313  12316  12317     1  0.0000000  0.7531200  3
  12312  12313  12316  12324     1  0.0000000  0.6508444  3
  12312  12334  12318  12317     1  180.0000771  0.4184000  2
  12312  12334  12318  12317     1  0.0000000  1.6024720  3
  12312  12334  12318  12322     1  180.0000771  5.6484000  1
  12312  12334  12318  12322     1  180.0000771  3.5564000  2
  12312  12334  12318  12322     1  0.0000000  0.4184000  3
  12313  12312  12326  12332     1  0.0000000  0.6508444  3
  12313  12312  12334  12318     1  180.0000771  0.4184000  2
  12313  12312  12334  12318     1  0.0000000  1.6024720  3
  12313  12316  12317  12318     1  180.0000771  0.8368000  1
  12313  12316  12317  12318     1  180.0000771  1.0460000  2
  12313  12316  12317  12318     1  0.0000000  0.7531200  3
  12313  12316  12317  12323     1  0.0000000  0.6508444  3
  12316  12313  12312  12326     1  180.0000771  0.8368000  1
  12316  12313  12312  12326     1  180.0000771  1.0460000  2
  12316  12313  12312  12326     1  0.0000000  0.7531200  3
  12316  12313  12312  12334     1  0.0000000  0.6508444  3
  12316  12317  12318  12322     1  0.0000000  0.6508444  3
  12316  12317  12318  12334     1  0.0000000  0.6508444  3
  12317  12316  12313  12325     1  0.0000000  0.6508444  3
  12318  12317  12316  12324     1  0.0000000  0.6508444  3
  12318  12334  12312  12326     1  180.0000771  0.4184000  2
  12318  12334  12312  12326     1  0.0000000  1.6024720  3
  12322  12318  12317  12323     1  0.0000000  4.9162000  2
  12322  12318  12317  12323     1  0.0000000  0.6024960  3
  12323  12317  12316  12324     1  0.0000000  4.9162000  2
  12323  12317  12316  12324     1  0.0000000  0.6024960  3
  12323  12317  12318  12334     1  0.0000000  4.9162000  2
  12323  12317  12318  12334     1  0.0000000  0.6024960  3
  12324  12316  12313  12325     1  0.0000000  4.9162000  2
  12324  12316  12313  12325     1  0.0000000  0.6024960  3
  12325  12313  12312  12326     1  0.0000000  0.6508444  3
  12325  12313  12312  12334     1  0.0000000  4.9162000  2
  12325  12313  12312  12334     1  0.0000000  0.6024960  3
  12332  12326  12312  12334     1  0.0000000  4.9162000  2
  12332  12326  12312  12334     1  0.0000000  0.6024960  3
  12335  12336  12339  12340     1  180.0000771  0.8368000  1
  12335  12336  12339  12340     1  180.0000771  1.0460000  2
  12335  12336  12339  12340     1  0.0000000  0.7531200  3
  12335  12336  12339  12347     1  0.0000000  0.6508444  3
  12335  12357  12341  12345     1  180.0000771  5.6484000  1
  12335  12357  12341  12345     1  180.0000771  3.5564000  2
  12335  12357  12341  12345     1  0.0000000  0.4184000  3
  12335  12357  12341  12340     1  180.0000771  0.4184000  2
  12335  12357  12341  12340     1  0.0000000  1.6024720  3
  12336  12339  12340  12341     1  180.0000771  0.8368000  1
  12336  12339  12340  12341     1  180.0000771  1.0460000  2
  12336  12339  12340  12341     1  0.0000000  0.7531200  3
  12336  12339  12340  12346     1  0.0000000  0.6508444  3
  12336  12335  12349  12355     1  0.0000000  0.6508444  3
  12336  12335  12357  12341     1  180.0000771  0.4184000  2
  12336  12335  12357  12341     1  0.0000000  1.6024720  3
  12339  12340  12341  12345     1  0.0000000  0.6508444  3
  12339  12340  12341  12357     1  0.0000000  0.6508444  3
  12339  12336  12335  12349     1  180.0000771  0.8368000  1
  12339  12336  12335  12349     1  180.0000771  1.0460000  2
  12339  12336  12335  12349     1  0.0000000  0.7531200  3
  12339  12336  12335  12357     1  0.0000000  0.6508444  3
  12340  12339  12336  12348     1  0.0000000  0.6508444  3
  12341  12357  12335  12349     1  180.0000771  0.4184000  2
  12341  12357  12335  12349     1  0.0000000  1.6024720  3
  12341  12340  12339  12347     1  0.0000000  0.6508444  3
  12345  12341  12340  12346     1  0.0000000  4.9162000  2
  12345  12341  12340  12346     1  0.0000000  0.6024960  3
  12346  12340  12341  12357     1  0.0000000  4.9162000  2
  12346  12340  12341  12357     1  0.0000000  0.6024960  3
  12346  12340  12339  12347     1  0.0000000  4.9162000  2
  12346  12340  12339  12347     1  0.0000000  0.6024960  3
  12347  12339  12336  12348     1  0.0000000  4.9162000  2
  12347  12339  12336  12348     1  0.0000000  0.6024960  3
  12348  12336  12335  12349     1  0.0000000  0.6508444  3
  12348  12336  12335  12357     1  0.0000000  4.9162000  2
  12348  12336  12335  12357     1  0.0000000  0.6024960  3
  12355  12349  12335  12357     1  0.0000000  4.9162000  2
  12355  12349  12335  12357     1  0.0000000  0.6024960  3
  12358  12359  12362  12363     1  180.0000771  0.8368000  1
  12358  12359  12362  12363     1  180.0000771  1.0460000  2
  12358  12359  12362  12363     1  0.0000000  0.7531200  3
  12358  12359  12362  12370     1  0.0000000  0.6508444  3
  12358  12380  12364  12363     1  180.0000771  0.4184000  2
  12358  12380  12364  12363     1  0.0000000  1.6024720  3
  12358  12380  12364  12368     1  180.0000771  5.6484000  1
  12358  12380  12364  12368     1  180.0000771  3.5564000  2
  12358  12380  12364  12368     1  0.0000000  0.4184000  3
  12359  12358  12372  12378     1  0.0000000  0.6508444  3
  12359  12358  12380  12364     1  180.0000771  0.4184000  2
  12359  12358  12380  12364     1  0.0000000  1.6024720  3
  12359  12362  12363  12364     1  180.0000771  0.8368000  1
  12359  12362  12363  12364     1  180.0000771  1.0460000  2
  12359  12362  12363  12364     1  0.0000000  0.7531200  3
  12359  12362  12363  12369     1  0.0000000  0.6508444  3
  12362  12359  12358  12372     1  180.0000771  0.8368000  1
  12362  12359  12358  12372     1  180.0000771  1.0460000  2
  12362  12359  12358  12372     1  0.0000000  0.7531200  3
  12362  12359  12358  12380     1  0.0000000  0.6508444  3
  12362  12363  12364  12368     1  0.0000000  0.6508444  3
  12362  12363  12364  12380     1  0.0000000  0.6508444  3
  12363  12362  12359  12371     1  0.0000000  0.6508444  3
  12364  12363  12362  12370     1  0.0000000  0.6508444  3
  12364  12380  12358  12372     1  180.0000771  0.4184000  2
  12364  12380  12358  12372     1  0.0000000  1.6024720  3
  12368  12364  12363  12369     1  0.0000000  4.9162000  2
  12368  12364  12363  12369     1  0.0000000  0.6024960  3
  12369  12363  12362  12370     1  0.0000000  4.9162000  2
  12369  12363  12362  12370     1  0.0000000  0.6024960  3
  12369  12363  12364  12380     1  0.0000000  4.9162000  2
  12369  12363  12364  12380     1  0.0000000  0.6024960  3
  12370  12362  12359  12371     1  0.0000000  4.9162000  2
  12370  12362  12359  12371     1  0.0000000  0.6024960  3
  12371  12359  12358  12372     1  0.0000000  0.6508444  3
  12371  12359  12358  12380     1  0.0000000  4.9162000  2
  12371  12359  12358  12380     1  0.0000000  0.6024960  3
  12378  12372  12358  12380     1  0.0000000  4.9162000  2
  12378  12372  12358  12380     1  0.0000000  0.6024960  3
  12381  12382  12385  12386     1  180.0000771  0.8368000  1
  12381  12382  12385  12386     1  180.0000771  1.0460000  2
  12381  12382  12385  12386     1  0.0000000  0.7531200  3
  12381  12382  12385  12393     1  0.0000000  0.6508444  3
  12381  12403  12387  12391     1  180.0000771  5.6484000  1
  12381  12403  12387  12391     1  180.0000771  3.5564000  2
  12381  12403  12387  12391     1  0.0000000  0.4184000  3
  12381  12403  12387  12386     1  180.0000771  0.4184000  2
  12381  12403  12387  12386     1  0.0000000  1.6024720  3
  12382  12385  12386  12387     1  180.0000771  0.8368000  1
  12382  12385  12386  12387     1  180.0000771  1.0460000  2
  12382  12385  12386  12387     1  0.0000000  0.7531200  3
  12382  12385  12386  12392     1  0.0000000  0.6508444  3
  12382  12381  12395  12401     1  0.0000000  0.6508444  3
  12382  12381  12403  12387     1  180.0000771  0.4184000  2
  12382  12381  12403  12387     1  0.0000000  1.6024720  3
  12385  12386  12387  12391     1  0.0000000  0.6508444  3
  12385  12386  12387  12403     1  0.0000000  0.6508444  3
  12385  12382  12381  12395     1  180.0000771  0.8368000  1
  12385  12382  12381  12395     1  180.0000771  1.0460000  2
  12385  12382  12381  12395     1  0.0000000  0.7531200  3
  12385  12382  12381  12403     1  0.0000000  0.6508444  3
  12386  12385  12382  12394     1  0.0000000  0.6508444  3
  12387  12403  12381  12395     1  180.0000771  0.4184000  2
  12387  12403  12381  12395     1  0.0000000  1.6024720  3
  12387  12386  12385  12393     1  0.0000000  0.6508444  3
  12391  12387  12386  12392     1  0.0000000  4.9162000  2
  12391  12387  12386  12392     1  0.0000000  0.6024960  3
  12392  12386  12387  12403     1  0.0000000  4.9162000  2
  12392  12386  12387  12403     1  0.0000000  0.6024960  3
  12392  12386  12385  12393     1  0.0000000  4.9162000  2
  12392  12386  12385  12393     1  0.0000000  0.6024960  3
  12393  12385  12382  12394     1  0.0000000  4.9162000  2
  12393  12385  12382  12394     1  0.0000000  0.6024960  3
  12394  12382  12381  12395     1  0.0000000  0.6508444  3
  12394  12382  12381  12403     1  0.0000000  4.9162000  2
  12394  12382  12381  12403     1  0.0000000  0.6024960  3
  12401  12395  12381  12403     1  0.0000000  4.9162000  2
  12401  12395  12381  12403     1  0.0000000  0.6024960  3
  12404  12405  12408  12409     1  180.0000771  0.8368000  1
  12404  12405  12408  12409     1  180.0000771  1.0460000  2
  12404  12405  12408  12409     1  0.0000000  0.7531200  3
  12404  12405  12408  12416     1  0.0000000  0.6508444  3
  12404  12426  12410  12409     1  180.0000771  0.4184000  2
  12404  12426  12410  12409     1  0.0000000  1.6024720  3
  12404  12426  12410  12414     1  180.0000771  5.6484000  1
  12404  12426  12410  12414     1  180.0000771  3.5564000  2
  12404  12426  12410  12414     1  0.0000000  0.4184000  3
  12405  12404  12418  12424     1  0.0000000  0.6508444  3
  12405  12404  12426  12410     1  180.0000771  0.4184000  2
  12405  12404  12426  12410     1  0.0000000  1.6024720  3
  12405  12408  12409  12410     1  180.0000771  0.8368000  1
  12405  12408  12409  12410     1  180.0000771  1.0460000  2
  12405  12408  12409  12410     1  0.0000000  0.7531200  3
  12405  12408  12409  12415     1  0.0000000  0.6508444  3
  12408  12405  12404  12418     1  180.0000771  0.8368000  1
  12408  12405  12404  12418     1  180.0000771  1.0460000  2
  12408  12405  12404  12418     1  0.0000000  0.7531200  3
  12408  12405  12404  12426     1  0.0000000  0.6508444  3
  12408  12409  12410  12414     1  0.0000000  0.6508444  3
  12408  12409  12410  12426     1  0.0000000  0.6508444  3
  12409  12408  12405  12417     1  0.0000000  0.6508444  3
  12410  12409  12408  12416     1  0.0000000  0.6508444  3
  12410  12426  12404  12418     1  180.0000771  0.4184000  2
  12410  12426  12404  12418     1  0.0000000  1.6024720  3
  12414  12410  12409  12415     1  0.0000000  4.9162000  2
  12414  12410  12409  12415     1  0.0000000  0.6024960  3
  12415  12409  12408  12416     1  0.0000000  4.9162000  2
  12415  12409  12408  12416     1  0.0000000  0.6024960  3
  12415  12409  12410  12426     1  0.0000000  4.9162000  2
  12415  12409  12410  12426     1  0.0000000  0.6024960  3
  12416  12408  12405  12417     1  0.0000000  4.9162000  2
  12416  12408  12405  12417     1  0.0000000  0.6024960  3
  12417  12405  12404  12418     1  0.0000000  0.6508444  3
  12417  12405  12404  12426     1  0.0000000  4.9162000  2
  12417  12405  12404  12426     1  0.0000000  0.6024960  3
  12424  12418  12404  12426     1  0.0000000  4.9162000  2
  12424  12418  12404  12426     1  0.0000000  0.6024960  3
  12427  12428  12431  12432     1  180.0000771  0.8368000  1
  12427  12428  12431  12432     1  180.0000771  1.0460000  2
  12427  12428  12431  12432     1  0.0000000  0.7531200  3
  12427  12428  12431  12439     1  0.0000000  0.6508444  3
  12427  12449  12433  12437     1  180.0000771  5.6484000  1
  12427  12449  12433  12437     1  180.0000771  3.5564000  2
  12427  12449  12433  12437     1  0.0000000  0.4184000  3
  12427  12449  12433  12432     1  180.0000771  0.4184000  2
  12427  12449  12433  12432     1  0.0000000  1.6024720  3
  12428  12431  12432  12433     1  180.0000771  0.8368000  1
  12428  12431  12432  12433     1  180.0000771  1.0460000  2
  12428  12431  12432  12433     1  0.0000000  0.7531200  3
  12428  12431  12432  12438     1  0.0000000  0.6508444  3
  12428  12427  12441  12447     1  0.0000000  0.6508444  3
  12428  12427  12449  12433     1  180.0000771  0.4184000  2
  12428  12427  12449  12433     1  0.0000000  1.6024720  3
  12431  12432  12433  12437     1  0.0000000  0.6508444  3
  12431  12432  12433  12449     1  0.0000000  0.6508444  3
  12431  12428  12427  12441     1  180.0000771  0.8368000  1
  12431  12428  12427  12441     1  180.0000771  1.0460000  2
  12431  12428  12427  12441     1  0.0000000  0.7531200  3
  12431  12428  12427  12449     1  0.0000000  0.6508444  3
  12432  12431  12428  12440     1  0.0000000  0.6508444  3
  12433  12449  12427  12441     1  180.0000771  0.4184000  2
  12433  12449  12427  12441     1  0.0000000  1.6024720  3
  12433  12432  12431  12439     1  0.0000000  0.6508444  3
  12437  12433  12432  12438     1  0.0000000  4.9162000  2
  12437  12433  12432  12438     1  0.0000000  0.6024960  3
  12438  12432  12433  12449     1  0.0000000  4.9162000  2
  12438  12432  12433  12449     1  0.0000000  0.6024960  3
  12438  12432  12431  12439     1  0.0000000  4.9162000  2
  12438  12432  12431  12439     1  0.0000000  0.6024960  3
  12439  12431  12428  12440     1  0.0000000  4.9162000  2
  12439  12431  12428  12440     1  0.0000000  0.6024960  3
  12440  12428  12427  12441     1  0.0000000  0.6508444  3
  12440  12428  12427  12449     1  0.0000000  4.9162000  2
  12440  12428  12427  12449     1  0.0000000  0.6024960  3
  12447  12441  12427  12449     1  0.0000000  4.9162000  2
  12447  12441  12427  12449     1  0.0000000  0.6024960  3
  12450  12451  12454  12455     1  180.0000771  0.8368000  1
  12450  12451  12454  12455     1  180.0000771  1.0460000  2
  12450  12451  12454  12455     1  0.0000000  0.7531200  3
  12450  12451  12454  12462     1  0.0000000  0.6508444  3
  12450  12472  12456  12455     1  180.0000771  0.4184000  2
  12450  12472  12456  12455     1  0.0000000  1.6024720  3
  12450  12472  12456  12460     1  180.0000771  5.6484000  1
  12450  12472  12456  12460     1  180.0000771  3.5564000  2
  12450  12472  12456  12460     1  0.0000000  0.4184000  3
  12451  12450  12464  12470     1  0.0000000  0.6508444  3
  12451  12450  12472  12456     1  180.0000771  0.4184000  2
  12451  12450  12472  12456     1  0.0000000  1.6024720  3
  12451  12454  12455  12456     1  180.0000771  0.8368000  1
  12451  12454  12455  12456     1  180.0000771  1.0460000  2
  12451  12454  12455  12456     1  0.0000000  0.7531200  3
  12451  12454  12455  12461     1  0.0000000  0.6508444  3
  12454  12451  12450  12464     1  180.0000771  0.8368000  1
  12454  12451  12450  12464     1  180.0000771  1.0460000  2
  12454  12451  12450  12464     1  0.0000000  0.7531200  3
  12454  12451  12450  12472     1  0.0000000  0.6508444  3
  12454  12455  12456  12460     1  0.0000000  0.6508444  3
  12454  12455  12456  12472     1  0.0000000  0.6508444  3
  12455  12454  12451  12463     1  0.0000000  0.6508444  3
  12456  12455  12454  12462     1  0.0000000  0.6508444  3
  12456  12472  12450  12464     1  180.0000771  0.4184000  2
  12456  12472  12450  12464     1  0.0000000  1.6024720  3
  12460  12456  12455  12461     1  0.0000000  4.9162000  2
  12460  12456  12455  12461     1  0.0000000  0.6024960  3
  12461  12455  12454  12462     1  0.0000000  4.9162000  2
  12461  12455  12454  12462     1  0.0000000  0.6024960  3
  12461  12455  12456  12472     1  0.0000000  4.9162000  2
  12461  12455  12456  12472     1  0.0000000  0.6024960  3
  12462  12454  12451  12463     1  0.0000000  4.9162000  2
  12462  12454  12451  12463     1  0.0000000  0.6024960  3
  12463  12451  12450  12464     1  0.0000000  0.6508444  3
  12463  12451  12450  12472     1  0.0000000  4.9162000  2
  12463  12451  12450  12472     1  0.0000000  0.6024960  3
  12470  12464  12450  12472     1  0.0000000  4.9162000  2
  12470  12464  12450  12472     1  0.0000000  0.6024960  3
  12473  12474  12477  12478     1  180.0000771  0.8368000  1
  12473  12474  12477  12478     1  180.0000771  1.0460000  2
  12473  12474  12477  12478     1  0.0000000  0.7531200  3
  12473  12474  12477  12485     1  0.0000000  0.6508444  3
  12473  12495  12479  12483     1  180.0000771  5.6484000  1
  12473  12495  12479  12483     1  180.0000771  3.5564000  2
  12473  12495  12479  12483     1  0.0000000  0.4184000  3
  12473  12495  12479  12478     1  180.0000771  0.4184000  2
  12473  12495  12479  12478     1  0.0000000  1.6024720  3
  12474  12477  12478  12479     1  180.0000771  0.8368000  1
  12474  12477  12478  12479     1  180.0000771  1.0460000  2
  12474  12477  12478  12479     1  0.0000000  0.7531200  3
  12474  12477  12478  12484     1  0.0000000  0.6508444  3
  12474  12473  12487  12493     1  0.0000000  0.6508444  3
  12474  12473  12495  12479     1  180.0000771  0.4184000  2
  12474  12473  12495  12479     1  0.0000000  1.6024720  3
  12477  12478  12479  12483     1  0.0000000  0.6508444  3
  12477  12478  12479  12495     1  0.0000000  0.6508444  3
  12477  12474  12473  12487     1  180.0000771  0.8368000  1
  12477  12474  12473  12487     1  180.0000771  1.0460000  2
  12477  12474  12473  12487     1  0.0000000  0.7531200  3
  12477  12474  12473  12495     1  0.0000000  0.6508444  3
  12478  12477  12474  12486     1  0.0000000  0.6508444  3
  12479  12495  12473  12487     1  180.0000771  0.4184000  2
  12479  12495  12473  12487     1  0.0000000  1.6024720  3
  12479  12478  12477  12485     1  0.0000000  0.6508444  3
  12483  12479  12478  12484     1  0.0000000  4.9162000  2
  12483  12479  12478  12484     1  0.0000000  0.6024960  3
  12484  12478  12479  12495     1  0.0000000  4.9162000  2
  12484  12478  12479  12495     1  0.0000000  0.6024960  3
  12484  12478  12477  12485     1  0.0000000  4.9162000  2
  12484  12478  12477  12485     1  0.0000000  0.6024960  3
  12485  12477  12474  12486     1  0.0000000  4.9162000  2
  12485  12477  12474  12486     1  0.0000000  0.6024960  3
  12486  12474  12473  12487     1  0.0000000  0.6508444  3
  12486  12474  12473  12495     1  0.0000000  4.9162000  2
  12486  12474  12473  12495     1  0.0000000  0.6024960  3
  12493  12487  12473  12495     1  0.0000000  4.9162000  2
  12493  12487  12473  12495     1  0.0000000  0.6024960  3
  12496  12497  12500  12501     1  180.0000771  0.8368000  1
  12496  12497  12500  12501     1  180.0000771  1.0460000  2
  12496  12497  12500  12501     1  0.0000000  0.7531200  3
  12496  12497  12500  12508     1  0.0000000  0.6508444  3
  12496  12518  12502  12501     1  180.0000771  0.4184000  2
  12496  12518  12502  12501     1  0.0000000  1.6024720  3
  12496  12518  12502  12506     1  180.0000771  5.6484000  1
  12496  12518  12502  12506     1  180.0000771  3.5564000  2
  12496  12518  12502  12506     1  0.0000000  0.4184000  3
  12497  12496  12510  12516     1  0.0000000  0.6508444  3
  12497  12496  12518  12502     1  180.0000771  0.4184000  2
  12497  12496  12518  12502     1  0.0000000  1.6024720  3
  12497  12500  12501  12502     1  180.0000771  0.8368000  1
  12497  12500  12501  12502     1  180.0000771  1.0460000  2
  12497  12500  12501  12502     1  0.0000000  0.7531200  3
  12497  12500  12501  12507     1  0.0000000  0.6508444  3
  12500  12497  12496  12510     1  180.0000771  0.8368000  1
  12500  12497  12496  12510     1  180.0000771  1.0460000  2
  12500  12497  12496  12510     1  0.0000000  0.7531200  3
  12500  12497  12496  12518     1  0.0000000  0.6508444  3
  12500  12501  12502  12506     1  0.0000000  0.6508444  3
  12500  12501  12502  12518     1  0.0000000  0.6508444  3
  12501  12500  12497  12509     1  0.0000000  0.6508444  3
  12502  12501  12500  12508     1  0.0000000  0.6508444  3
  12502  12518  12496  12510     1  180.0000771  0.4184000  2
  12502  12518  12496  12510     1  0.0000000  1.6024720  3
  12506  12502  12501  12507     1  0.0000000  4.9162000  2
  12506  12502  12501  12507     1  0.0000000  0.6024960  3
  12507  12501  12500  12508     1  0.0000000  4.9162000  2
  12507  12501  12500  12508     1  0.0000000  0.6024960  3
  12507  12501  12502  12518     1  0.0000000  4.9162000  2
  12507  12501  12502  12518     1  0.0000000  0.6024960  3
  12508  12500  12497  12509     1  0.0000000  4.9162000  2
  12508  12500  12497  12509     1  0.0000000  0.6024960  3
  12509  12497  12496  12510     1  0.0000000  0.6508444  3
  12509  12497  12496  12518     1  0.0000000  4.9162000  2
  12509  12497  12496  12518     1  0.0000000  0.6024960  3
  12516  12510  12496  12518     1  0.0000000  4.9162000  2
  12516  12510  12496  12518     1  0.0000000  0.6024960  3
  12519  12520  12523  12524     1  180.0000771  0.8368000  1
  12519  12520  12523  12524     1  180.0000771  1.0460000  2
  12519  12520  12523  12524     1  0.0000000  0.7531200  3
  12519  12520  12523  12531     1  0.0000000  0.6508444  3
  12519  12541  12525  12529     1  180.0000771  5.6484000  1
  12519  12541  12525  12529     1  180.0000771  3.5564000  2
  12519  12541  12525  12529     1  0.0000000  0.4184000  3
  12519  12541  12525  12524     1  180.0000771  0.4184000  2
  12519  12541  12525  12524     1  0.0000000  1.6024720  3
  12520  12523  12524  12525     1  180.0000771  0.8368000  1
  12520  12523  12524  12525     1  180.0000771  1.0460000  2
  12520  12523  12524  12525     1  0.0000000  0.7531200  3
  12520  12523  12524  12530     1  0.0000000  0.6508444  3
  12520  12519  12533  12539     1  0.0000000  0.6508444  3
  12520  12519  12541  12525     1  180.0000771  0.4184000  2
  12520  12519  12541  12525     1  0.0000000  1.6024720  3
  12523  12524  12525  12529     1  0.0000000  0.6508444  3
  12523  12524  12525  12541     1  0.0000000  0.6508444  3
  12523  12520  12519  12533     1  180.0000771  0.8368000  1
  12523  12520  12519  12533     1  180.0000771  1.0460000  2
  12523  12520  12519  12533     1  0.0000000  0.7531200  3
  12523  12520  12519  12541     1  0.0000000  0.6508444  3
  12524  12523  12520  12532     1  0.0000000  0.6508444  3
  12525  12541  12519  12533     1  180.0000771  0.4184000  2
  12525  12541  12519  12533     1  0.0000000  1.6024720  3
  12525  12524  12523  12531     1  0.0000000  0.6508444  3
  12529  12525  12524  12530     1  0.0000000  4.9162000  2
  12529  12525  12524  12530     1  0.0000000  0.6024960  3
  12530  12524  12525  12541     1  0.0000000  4.9162000  2
  12530  12524  12525  12541     1  0.0000000  0.6024960  3
  12530  12524  12523  12531     1  0.0000000  4.9162000  2
  12530  12524  12523  12531     1  0.0000000  0.6024960  3
  12531  12523  12520  12532     1  0.0000000  4.9162000  2
  12531  12523  12520  12532     1  0.0000000  0.6024960  3
  12532  12520  12519  12533     1  0.0000000  0.6508444  3
  12532  12520  12519  12541     1  0.0000000  4.9162000  2
  12532  12520  12519  12541     1  0.0000000  0.6024960  3
  12539  12533  12519  12541     1  0.0000000  4.9162000  2
  12539  12533  12519  12541     1  0.0000000  0.6024960  3
  12542  12543  12546  12547     1  180.0000771  0.8368000  1
  12542  12543  12546  12547     1  180.0000771  1.0460000  2
  12542  12543  12546  12547     1  0.0000000  0.7531200  3
  12542  12543  12546  12554     1  0.0000000  0.6508444  3
  12542  12564  12548  12547     1  180.0000771  0.4184000  2
  12542  12564  12548  12547     1  0.0000000  1.6024720  3
  12542  12564  12548  12552     1  180.0000771  5.6484000  1
  12542  12564  12548  12552     1  180.0000771  3.5564000  2
  12542  12564  12548  12552     1  0.0000000  0.4184000  3
  12543  12542  12556  12562     1  0.0000000  0.6508444  3
  12543  12542  12564  12548     1  180.0000771  0.4184000  2
  12543  12542  12564  12548     1  0.0000000  1.6024720  3
  12543  12546  12547  12548     1  180.0000771  0.8368000  1
  12543  12546  12547  12548     1  180.0000771  1.0460000  2
  12543  12546  12547  12548     1  0.0000000  0.7531200  3
  12543  12546  12547  12553     1  0.0000000  0.6508444  3
  12546  12543  12542  12556     1  180.0000771  0.8368000  1
  12546  12543  12542  12556     1  180.0000771  1.0460000  2
  12546  12543  12542  12556     1  0.0000000  0.7531200  3
  12546  12543  12542  12564     1  0.0000000  0.6508444  3
  12546  12547  12548  12552     1  0.0000000  0.6508444  3
  12546  12547  12548  12564     1  0.0000000  0.6508444  3
  12547  12546  12543  12555     1  0.0000000  0.6508444  3
  12548  12547  12546  12554     1  0.0000000  0.6508444  3
  12548  12564  12542  12556     1  180.0000771  0.4184000  2
  12548  12564  12542  12556     1  0.0000000  1.6024720  3
  12552  12548  12547  12553     1  0.0000000  4.9162000  2
  12552  12548  12547  12553     1  0.0000000  0.6024960  3
  12553  12547  12546  12554     1  0.0000000  4.9162000  2
  12553  12547  12546  12554     1  0.0000000  0.6024960  3
  12553  12547  12548  12564     1  0.0000000  4.9162000  2
  12553  12547  12548  12564     1  0.0000000  0.6024960  3
  12554  12546  12543  12555     1  0.0000000  4.9162000  2
  12554  12546  12543  12555     1  0.0000000  0.6024960  3
  12555  12543  12542  12556     1  0.0000000  0.6508444  3
  12555  12543  12542  12564     1  0.0000000  4.9162000  2
  12555  12543  12542  12564     1  0.0000000  0.6024960  3
  12562  12556  12542  12564     1  0.0000000  4.9162000  2
  12562  12556  12542  12564     1  0.0000000  0.6024960  3
  12565  12566  12569  12570     1  180.0000771  0.8368000  1
  12565  12566  12569  12570     1  180.0000771  1.0460000  2
  12565  12566  12569  12570     1  0.0000000  0.7531200  3
  12565  12566  12569  12577     1  0.0000000  0.6508444  3
  12565  12587  12571  12575     1  180.0000771  5.6484000  1
  12565  12587  12571  12575     1  180.0000771  3.5564000  2
  12565  12587  12571  12575     1  0.0000000  0.4184000  3
  12565  12587  12571  12570     1  180.0000771  0.4184000  2
  12565  12587  12571  12570     1  0.0000000  1.6024720  3
  12566  12569  12570  12571     1  180.0000771  0.8368000  1
  12566  12569  12570  12571     1  180.0000771  1.0460000  2
  12566  12569  12570  12571     1  0.0000000  0.7531200  3
  12566  12569  12570  12576     1  0.0000000  0.6508444  3
  12566  12565  12579  12585     1  0.0000000  0.6508444  3
  12566  12565  12587  12571     1  180.0000771  0.4184000  2
  12566  12565  12587  12571     1  0.0000000  1.6024720  3
  12569  12570  12571  12575     1  0.0000000  0.6508444  3
  12569  12570  12571  12587     1  0.0000000  0.6508444  3
  12569  12566  12565  12579     1  180.0000771  0.8368000  1
  12569  12566  12565  12579     1  180.0000771  1.0460000  2
  12569  12566  12565  12579     1  0.0000000  0.7531200  3
  12569  12566  12565  12587     1  0.0000000  0.6508444  3
  12570  12569  12566  12578     1  0.0000000  0.6508444  3
  12571  12587  12565  12579     1  180.0000771  0.4184000  2
  12571  12587  12565  12579     1  0.0000000  1.6024720  3
  12571  12570  12569  12577     1  0.0000000  0.6508444  3
  12575  12571  12570  12576     1  0.0000000  4.9162000  2
  12575  12571  12570  12576     1  0.0000000  0.6024960  3
  12576  12570  12571  12587     1  0.0000000  4.9162000  2
  12576  12570  12571  12587     1  0.0000000  0.6024960  3
  12576  12570  12569  12577     1  0.0000000  4.9162000  2
  12576  12570  12569  12577     1  0.0000000  0.6024960  3
  12577  12569  12566  12578     1  0.0000000  4.9162000  2
  12577  12569  12566  12578     1  0.0000000  0.6024960  3
  12578  12566  12565  12579     1  0.0000000  0.6508444  3
  12578  12566  12565  12587     1  0.0000000  4.9162000  2
  12578  12566  12565  12587     1  0.0000000  0.6024960  3
  12585  12579  12565  12587     1  0.0000000  4.9162000  2
  12585  12579  12565  12587     1  0.0000000  0.6024960  3
  12588  12589  12592  12593     1  180.0000771  0.8368000  1
  12588  12589  12592  12593     1  180.0000771  1.0460000  2
  12588  12589  12592  12593     1  0.0000000  0.7531200  3
  12588  12589  12592  12600     1  0.0000000  0.6508444  3
  12588  12610  12594  12593     1  180.0000771  0.4184000  2
  12588  12610  12594  12593     1  0.0000000  1.6024720  3
  12588  12610  12594  12598     1  180.0000771  5.6484000  1
  12588  12610  12594  12598     1  180.0000771  3.5564000  2
  12588  12610  12594  12598     1  0.0000000  0.4184000  3
  12589  12588  12602  12608     1  0.0000000  0.6508444  3
  12589  12588  12610  12594     1  180.0000771  0.4184000  2
  12589  12588  12610  12594     1  0.0000000  1.6024720  3
  12589  12592  12593  12594     1  180.0000771  0.8368000  1
  12589  12592  12593  12594     1  180.0000771  1.0460000  2
  12589  12592  12593  12594     1  0.0000000  0.7531200  3
  12589  12592  12593  12599     1  0.0000000  0.6508444  3
  12592  12589  12588  12602     1  180.0000771  0.8368000  1
  12592  12589  12588  12602     1  180.0000771  1.0460000  2
  12592  12589  12588  12602     1  0.0000000  0.7531200  3
  12592  12589  12588  12610     1  0.0000000  0.6508444  3
  12592  12593  12594  12598     1  0.0000000  0.6508444  3
  12592  12593  12594  12610     1  0.0000000  0.6508444  3
  12593  12592  12589  12601     1  0.0000000  0.6508444  3
  12594  12593  12592  12600     1  0.0000000  0.6508444  3
  12594  12610  12588  12602     1  180.0000771  0.4184000  2
  12594  12610  12588  12602     1  0.0000000  1.6024720  3
  12598  12594  12593  12599     1  0.0000000  4.9162000  2
  12598  12594  12593  12599     1  0.0000000  0.6024960  3
  12599  12593  12592  12600     1  0.0000000  4.9162000  2
  12599  12593  12592  12600     1  0.0000000  0.6024960  3
  12599  12593  12594  12610     1  0.0000000  4.9162000  2
  12599  12593  12594  12610     1  0.0000000  0.6024960  3
  12600  12592  12589  12601     1  0.0000000  4.9162000  2
  12600  12592  12589  12601     1  0.0000000  0.6024960  3
  12601  12589  12588  12602     1  0.0000000  0.6508444  3
  12601  12589  12588  12610     1  0.0000000  4.9162000  2
  12601  12589  12588  12610     1  0.0000000  0.6024960  3
  12608  12602  12588  12610     1  0.0000000  4.9162000  2
  12608  12602  12588  12610     1  0.0000000  0.6024960  3
  12611  12612  12615  12616     1  180.0000771  0.8368000  1
  12611  12612  12615  12616     1  180.0000771  1.0460000  2
  12611  12612  12615  12616     1  0.0000000  0.7531200  3
  12611  12612  12615  12623     1  0.0000000  0.6508444  3
  12611  12633  12617  12621     1  180.0000771  5.6484000  1
  12611  12633  12617  12621     1  180.0000771  3.5564000  2
  12611  12633  12617  12621     1  0.0000000  0.4184000  3
  12611  12633  12617  12616     1  180.0000771  0.4184000  2
  12611  12633  12617  12616     1  0.0000000  1.6024720  3
  12612  12615  12616  12617     1  180.0000771  0.8368000  1
  12612  12615  12616  12617     1  180.0000771  1.0460000  2
  12612  12615  12616  12617     1  0.0000000  0.7531200  3
  12612  12615  12616  12622     1  0.0000000  0.6508444  3
  12612  12611  12625  12631     1  0.0000000  0.6508444  3
  12612  12611  12633  12617     1  180.0000771  0.4184000  2
  12612  12611  12633  12617     1  0.0000000  1.6024720  3
  12615  12616  12617  12621     1  0.0000000  0.6508444  3
  12615  12616  12617  12633     1  0.0000000  0.6508444  3
  12615  12612  12611  12625     1  180.0000771  0.8368000  1
  12615  12612  12611  12625     1  180.0000771  1.0460000  2
  12615  12612  12611  12625     1  0.0000000  0.7531200  3
  12615  12612  12611  12633     1  0.0000000  0.6508444  3
  12616  12615  12612  12624     1  0.0000000  0.6508444  3
  12617  12633  12611  12625     1  180.0000771  0.4184000  2
  12617  12633  12611  12625     1  0.0000000  1.6024720  3
  12617  12616  12615  12623     1  0.0000000  0.6508444  3
  12621  12617  12616  12622     1  0.0000000  4.9162000  2
  12621  12617  12616  12622     1  0.0000000  0.6024960  3
  12622  12616  12617  12633     1  0.0000000  4.9162000  2
  12622  12616  12617  12633     1  0.0000000  0.6024960  3
  12622  12616  12615  12623     1  0.0000000  4.9162000  2
  12622  12616  12615  12623     1  0.0000000  0.6024960  3
  12623  12615  12612  12624     1  0.0000000  4.9162000  2
  12623  12615  12612  12624     1  0.0000000  0.6024960  3
  12624  12612  12611  12625     1  0.0000000  0.6508444  3
  12624  12612  12611  12633     1  0.0000000  4.9162000  2
  12624  12612  12611  12633     1  0.0000000  0.6024960  3
  12631  12625  12611  12633     1  0.0000000  4.9162000  2
  12631  12625  12611  12633     1  0.0000000  0.6024960  3
  12634  12635  12638  12639     1  180.0000771  0.8368000  1
  12634  12635  12638  12639     1  180.0000771  1.0460000  2
  12634  12635  12638  12639     1  0.0000000  0.7531200  3
  12634  12635  12638  12646     1  0.0000000  0.6508444  3
  12634  12656  12640  12639     1  180.0000771  0.4184000  2
  12634  12656  12640  12639     1  0.0000000  1.6024720  3
  12634  12656  12640  12644     1  180.0000771  5.6484000  1
  12634  12656  12640  12644     1  180.0000771  3.5564000  2
  12634  12656  12640  12644     1  0.0000000  0.4184000  3
  12635  12634  12648  12654     1  0.0000000  0.6508444  3
  12635  12634  12656  12640     1  180.0000771  0.4184000  2
  12635  12634  12656  12640     1  0.0000000  1.6024720  3
  12635  12638  12639  12640     1  180.0000771  0.8368000  1
  12635  12638  12639  12640     1  180.0000771  1.0460000  2
  12635  12638  12639  12640     1  0.0000000  0.7531200  3
  12635  12638  12639  12645     1  0.0000000  0.6508444  3
  12638  12635  12634  12648     1  180.0000771  0.8368000  1
  12638  12635  12634  12648     1  180.0000771  1.0460000  2
  12638  12635  12634  12648     1  0.0000000  0.7531200  3
  12638  12635  12634  12656     1  0.0000000  0.6508444  3
  12638  12639  12640  12644     1  0.0000000  0.6508444  3
  12638  12639  12640  12656     1  0.0000000  0.6508444  3
  12639  12638  12635  12647     1  0.0000000  0.6508444  3
  12640  12639  12638  12646     1  0.0000000  0.6508444  3
  12640  12656  12634  12648     1  180.0000771  0.4184000  2
  12640  12656  12634  12648     1  0.0000000  1.6024720  3
  12644  12640  12639  12645     1  0.0000000  4.9162000  2
  12644  12640  12639  12645     1  0.0000000  0.6024960  3
  12645  12639  12638  12646     1  0.0000000  4.9162000  2
  12645  12639  12638  12646     1  0.0000000  0.6024960  3
  12645  12639  12640  12656     1  0.0000000  4.9162000  2
  12645  12639  12640  12656     1  0.0000000  0.6024960  3
  12646  12638  12635  12647     1  0.0000000  4.9162000  2
  12646  12638  12635  12647     1  0.0000000  0.6024960  3
  12647  12635  12634  12648     1  0.0000000  0.6508444  3
  12647  12635  12634  12656     1  0.0000000  4.9162000  2
  12647  12635  12634  12656     1  0.0000000  0.6024960  3
  12654  12648  12634  12656     1  0.0000000  4.9162000  2
  12654  12648  12634  12656     1  0.0000000  0.6024960  3
  12657  12658  12661  12662     1  180.0000771  0.8368000  1
  12657  12658  12661  12662     1  180.0000771  1.0460000  2
  12657  12658  12661  12662     1  0.0000000  0.7531200  3
  12657  12658  12661  12669     1  0.0000000  0.6508444  3
  12657  12679  12663  12667     1  180.0000771  5.6484000  1
  12657  12679  12663  12667     1  180.0000771  3.5564000  2
  12657  12679  12663  12667     1  0.0000000  0.4184000  3
  12657  12679  12663  12662     1  180.0000771  0.4184000  2
  12657  12679  12663  12662     1  0.0000000  1.6024720  3
  12658  12661  12662  12663     1  180.0000771  0.8368000  1
  12658  12661  12662  12663     1  180.0000771  1.0460000  2
  12658  12661  12662  12663     1  0.0000000  0.7531200  3
  12658  12661  12662  12668     1  0.0000000  0.6508444  3
  12658  12657  12671  12677     1  0.0000000  0.6508444  3
  12658  12657  12679  12663     1  180.0000771  0.4184000  2
  12658  12657  12679  12663     1  0.0000000  1.6024720  3
  12661  12662  12663  12667     1  0.0000000  0.6508444  3
  12661  12662  12663  12679     1  0.0000000  0.6508444  3
  12661  12658  12657  12671     1  180.0000771  0.8368000  1
  12661  12658  12657  12671     1  180.0000771  1.0460000  2
  12661  12658  12657  12671     1  0.0000000  0.7531200  3
  12661  12658  12657  12679     1  0.0000000  0.6508444  3
  12662  12661  12658  12670     1  0.0000000  0.6508444  3
  12663  12679  12657  12671     1  180.0000771  0.4184000  2
  12663  12679  12657  12671     1  0.0000000  1.6024720  3
  12663  12662  12661  12669     1  0.0000000  0.6508444  3
  12667  12663  12662  12668     1  0.0000000  4.9162000  2
  12667  12663  12662  12668     1  0.0000000  0.6024960  3
  12668  12662  12663  12679     1  0.0000000  4.9162000  2
  12668  12662  12663  12679     1  0.0000000  0.6024960  3
  12668  12662  12661  12669     1  0.0000000  4.9162000  2
  12668  12662  12661  12669     1  0.0000000  0.6024960  3
  12669  12661  12658  12670     1  0.0000000  4.9162000  2
  12669  12661  12658  12670     1  0.0000000  0.6024960  3
  12670  12658  12657  12671     1  0.0000000  0.6508444  3
  12670  12658  12657  12679     1  0.0000000  4.9162000  2
  12670  12658  12657  12679     1  0.0000000  0.6024960  3
  12677  12671  12657  12679     1  0.0000000  4.9162000  2
  12677  12671  12657  12679     1  0.0000000  0.6024960  3
  12680  12681  12684  12685     1  180.0000771  0.8368000  1
  12680  12681  12684  12685     1  180.0000771  1.0460000  2
  12680  12681  12684  12685     1  0.0000000  0.7531200  3
  12680  12681  12684  12692     1  0.0000000  0.6508444  3
  12680  12702  12686  12685     1  180.0000771  0.4184000  2
  12680  12702  12686  12685     1  0.0000000  1.6024720  3
  12680  12702  12686  12690     1  180.0000771  5.6484000  1
  12680  12702  12686  12690     1  180.0000771  3.5564000  2
  12680  12702  12686  12690     1  0.0000000  0.4184000  3
  12681  12680  12694  12700     1  0.0000000  0.6508444  3
  12681  12680  12702  12686     1  180.0000771  0.4184000  2
  12681  12680  12702  12686     1  0.0000000  1.6024720  3
  12681  12684  12685  12686     1  180.0000771  0.8368000  1
  12681  12684  12685  12686     1  180.0000771  1.0460000  2
  12681  12684  12685  12686     1  0.0000000  0.7531200  3
  12681  12684  12685  12691     1  0.0000000  0.6508444  3
  12684  12681  12680  12694     1  180.0000771  0.8368000  1
  12684  12681  12680  12694     1  180.0000771  1.0460000  2
  12684  12681  12680  12694     1  0.0000000  0.7531200  3
  12684  12681  12680  12702     1  0.0000000  0.6508444  3
  12684  12685  12686  12690     1  0.0000000  0.6508444  3
  12684  12685  12686  12702     1  0.0000000  0.6508444  3
  12685  12684  12681  12693     1  0.0000000  0.6508444  3
  12686  12685  12684  12692     1  0.0000000  0.6508444  3
  12686  12702  12680  12694     1  180.0000771  0.4184000  2
  12686  12702  12680  12694     1  0.0000000  1.6024720  3
  12690  12686  12685  12691     1  0.0000000  4.9162000  2
  12690  12686  12685  12691     1  0.0000000  0.6024960  3
  12691  12685  12684  12692     1  0.0000000  4.9162000  2
  12691  12685  12684  12692     1  0.0000000  0.6024960  3
  12691  12685  12686  12702     1  0.0000000  4.9162000  2
  12691  12685  12686  12702     1  0.0000000  0.6024960  3
  12692  12684  12681  12693     1  0.0000000  4.9162000  2
  12692  12684  12681  12693     1  0.0000000  0.6024960  3
  12693  12681  12680  12694     1  0.0000000  0.6508444  3
  12693  12681  12680  12702     1  0.0000000  4.9162000  2
  12693  12681  12680  12702     1  0.0000000  0.6024960  3
  12700  12694  12680  12702     1  0.0000000  4.9162000  2
  12700  12694  12680  12702     1  0.0000000  0.6024960  3
  12703  12704  12707  12708     1  180.0000771  0.8368000  1
  12703  12704  12707  12708     1  180.0000771  1.0460000  2
  12703  12704  12707  12708     1  0.0000000  0.7531200  3
  12703  12704  12707  12715     1  0.0000000  0.6508444  3
  12703  12725  12709  12713     1  180.0000771  5.6484000  1
  12703  12725  12709  12713     1  180.0000771  3.5564000  2
  12703  12725  12709  12713     1  0.0000000  0.4184000  3
  12703  12725  12709  12708     1  180.0000771  0.4184000  2
  12703  12725  12709  12708     1  0.0000000  1.6024720  3
  12704  12707  12708  12709     1  180.0000771  0.8368000  1
  12704  12707  12708  12709     1  180.0000771  1.0460000  2
  12704  12707  12708  12709     1  0.0000000  0.7531200  3
  12704  12707  12708  12714     1  0.0000000  0.6508444  3
  12704  12703  12717  12723     1  0.0000000  0.6508444  3
  12704  12703  12725  12709     1  180.0000771  0.4184000  2
  12704  12703  12725  12709     1  0.0000000  1.6024720  3
  12707  12708  12709  12713     1  0.0000000  0.6508444  3
  12707  12708  12709  12725     1  0.0000000  0.6508444  3
  12707  12704  12703  12717     1  180.0000771  0.8368000  1
  12707  12704  12703  12717     1  180.0000771  1.0460000  2
  12707  12704  12703  12717     1  0.0000000  0.7531200  3
  12707  12704  12703  12725     1  0.0000000  0.6508444  3
  12708  12707  12704  12716     1  0.0000000  0.6508444  3
  12709  12725  12703  12717     1  180.0000771  0.4184000  2
  12709  12725  12703  12717     1  0.0000000  1.6024720  3
  12709  12708  12707  12715     1  0.0000000  0.6508444  3
  12713  12709  12708  12714     1  0.0000000  4.9162000  2
  12713  12709  12708  12714     1  0.0000000  0.6024960  3
  12714  12708  12709  12725     1  0.0000000  4.9162000  2
  12714  12708  12709  12725     1  0.0000000  0.6024960  3
  12714  12708  12707  12715     1  0.0000000  4.9162000  2
  12714  12708  12707  12715     1  0.0000000  0.6024960  3
  12715  12707  12704  12716     1  0.0000000  4.9162000  2
  12715  12707  12704  12716     1  0.0000000  0.6024960  3
  12716  12704  12703  12717     1  0.0000000  0.6508444  3
  12716  12704  12703  12725     1  0.0000000  4.9162000  2
  12716  12704  12703  12725     1  0.0000000  0.6024960  3
  12723  12717  12703  12725     1  0.0000000  4.9162000  2
  12723  12717  12703  12725     1  0.0000000  0.6024960  3
  12726  12727  12730  12731     1  180.0000771  0.8368000  1
  12726  12727  12730  12731     1  180.0000771  1.0460000  2
  12726  12727  12730  12731     1  0.0000000  0.7531200  3
  12726  12727  12730  12738     1  0.0000000  0.6508444  3
  12726  12748  12732  12731     1  180.0000771  0.4184000  2
  12726  12748  12732  12731     1  0.0000000  1.6024720  3
  12726  12748  12732  12736     1  180.0000771  5.6484000  1
  12726  12748  12732  12736     1  180.0000771  3.5564000  2
  12726  12748  12732  12736     1  0.0000000  0.4184000  3
  12727  12726  12740  12746     1  0.0000000  0.6508444  3
  12727  12726  12748  12732     1  180.0000771  0.4184000  2
  12727  12726  12748  12732     1  0.0000000  1.6024720  3
  12727  12730  12731  12732     1  180.0000771  0.8368000  1
  12727  12730  12731  12732     1  180.0000771  1.0460000  2
  12727  12730  12731  12732     1  0.0000000  0.7531200  3
  12727  12730  12731  12737     1  0.0000000  0.6508444  3
  12730  12727  12726  12740     1  180.0000771  0.8368000  1
  12730  12727  12726  12740     1  180.0000771  1.0460000  2
  12730  12727  12726  12740     1  0.0000000  0.7531200  3
  12730  12727  12726  12748     1  0.0000000  0.6508444  3
  12730  12731  12732  12736     1  0.0000000  0.6508444  3
  12730  12731  12732  12748     1  0.0000000  0.6508444  3
  12731  12730  12727  12739     1  0.0000000  0.6508444  3
  12732  12731  12730  12738     1  0.0000000  0.6508444  3
  12732  12748  12726  12740     1  180.0000771  0.4184000  2
  12732  12748  12726  12740     1  0.0000000  1.6024720  3
  12736  12732  12731  12737     1  0.0000000  4.9162000  2
  12736  12732  12731  12737     1  0.0000000  0.6024960  3
  12737  12731  12730  12738     1  0.0000000  4.9162000  2
  12737  12731  12730  12738     1  0.0000000  0.6024960  3
  12737  12731  12732  12748     1  0.0000000  4.9162000  2
  12737  12731  12732  12748     1  0.0000000  0.6024960  3
  12738  12730  12727  12739     1  0.0000000  4.9162000  2
  12738  12730  12727  12739     1  0.0000000  0.6024960  3
  12739  12727  12726  12740     1  0.0000000  0.6508444  3
  12739  12727  12726  12748     1  0.0000000  4.9162000  2
  12739  12727  12726  12748     1  0.0000000  0.6024960  3
  12746  12740  12726  12748     1  0.0000000  4.9162000  2
  12746  12740  12726  12748     1  0.0000000  0.6024960  3
  12749  12750  12753  12754     1  180.0000771  0.8368000  1
  12749  12750  12753  12754     1  180.0000771  1.0460000  2
  12749  12750  12753  12754     1  0.0000000  0.7531200  3
  12749  12750  12753  12761     1  0.0000000  0.6508444  3
  12749  12771  12755  12759     1  180.0000771  5.6484000  1
  12749  12771  12755  12759     1  180.0000771  3.5564000  2
  12749  12771  12755  12759     1  0.0000000  0.4184000  3
  12749  12771  12755  12754     1  180.0000771  0.4184000  2
  12749  12771  12755  12754     1  0.0000000  1.6024720  3
  12750  12753  12754  12755     1  180.0000771  0.8368000  1
  12750  12753  12754  12755     1  180.0000771  1.0460000  2
  12750  12753  12754  12755     1  0.0000000  0.7531200  3
  12750  12753  12754  12760     1  0.0000000  0.6508444  3
  12750  12749  12763  12769     1  0.0000000  0.6508444  3
  12750  12749  12771  12755     1  180.0000771  0.4184000  2
  12750  12749  12771  12755     1  0.0000000  1.6024720  3
  12753  12754  12755  12759     1  0.0000000  0.6508444  3
  12753  12754  12755  12771     1  0.0000000  0.6508444  3
  12753  12750  12749  12763     1  180.0000771  0.8368000  1
  12753  12750  12749  12763     1  180.0000771  1.0460000  2
  12753  12750  12749  12763     1  0.0000000  0.7531200  3
  12753  12750  12749  12771     1  0.0000000  0.6508444  3
  12754  12753  12750  12762     1  0.0000000  0.6508444  3
  12755  12771  12749  12763     1  180.0000771  0.4184000  2
  12755  12771  12749  12763     1  0.0000000  1.6024720  3
  12755  12754  12753  12761     1  0.0000000  0.6508444  3
  12759  12755  12754  12760     1  0.0000000  4.9162000  2
  12759  12755  12754  12760     1  0.0000000  0.6024960  3
  12760  12754  12755  12771     1  0.0000000  4.9162000  2
  12760  12754  12755  12771     1  0.0000000  0.6024960  3
  12760  12754  12753  12761     1  0.0000000  4.9162000  2
  12760  12754  12753  12761     1  0.0000000  0.6024960  3
  12761  12753  12750  12762     1  0.0000000  4.9162000  2
  12761  12753  12750  12762     1  0.0000000  0.6024960  3
  12762  12750  12749  12763     1  0.0000000  0.6508444  3
  12762  12750  12749  12771     1  0.0000000  4.9162000  2
  12762  12750  12749  12771     1  0.0000000  0.6024960  3
  12769  12763  12749  12771     1  0.0000000  4.9162000  2
  12769  12763  12749  12771     1  0.0000000  0.6024960  3
  12772  12773  12776  12777     1  180.0000771  0.8368000  1
  12772  12773  12776  12777     1  180.0000771  1.0460000  2
  12772  12773  12776  12777     1  0.0000000  0.7531200  3
  12772  12773  12776  12784     1  0.0000000  0.6508444  3
  12772  12794  12778  12777     1  180.0000771  0.4184000  2
  12772  12794  12778  12777     1  0.0000000  1.6024720  3
  12772  12794  12778  12782     1  180.0000771  5.6484000  1
  12772  12794  12778  12782     1  180.0000771  3.5564000  2
  12772  12794  12778  12782     1  0.0000000  0.4184000  3
  12773  12772  12786  12792     1  0.0000000  0.6508444  3
  12773  12772  12794  12778     1  180.0000771  0.4184000  2
  12773  12772  12794  12778     1  0.0000000  1.6024720  3
  12773  12776  12777  12778     1  180.0000771  0.8368000  1
  12773  12776  12777  12778     1  180.0000771  1.0460000  2
  12773  12776  12777  12778     1  0.0000000  0.7531200  3
  12773  12776  12777  12783     1  0.0000000  0.6508444  3
  12776  12773  12772  12786     1  180.0000771  0.8368000  1
  12776  12773  12772  12786     1  180.0000771  1.0460000  2
  12776  12773  12772  12786     1  0.0000000  0.7531200  3
  12776  12773  12772  12794     1  0.0000000  0.6508444  3
  12776  12777  12778  12782     1  0.0000000  0.6508444  3
  12776  12777  12778  12794     1  0.0000000  0.6508444  3
  12777  12776  12773  12785     1  0.0000000  0.6508444  3
  12778  12777  12776  12784     1  0.0000000  0.6508444  3
  12778  12794  12772  12786     1  180.0000771  0.4184000  2
  12778  12794  12772  12786     1  0.0000000  1.6024720  3
  12782  12778  12777  12783     1  0.0000000  4.9162000  2
  12782  12778  12777  12783     1  0.0000000  0.6024960  3
  12783  12777  12776  12784     1  0.0000000  4.9162000  2
  12783  12777  12776  12784     1  0.0000000  0.6024960  3
  12783  12777  12778  12794     1  0.0000000  4.9162000  2
  12783  12777  12778  12794     1  0.0000000  0.6024960  3
  12784  12776  12773  12785     1  0.0000000  4.9162000  2
  12784  12776  12773  12785     1  0.0000000  0.6024960  3
  12785  12773  12772  12786     1  0.0000000  0.6508444  3
  12785  12773  12772  12794     1  0.0000000  4.9162000  2
  12785  12773  12772  12794     1  0.0000000  0.6024960  3
  12792  12786  12772  12794     1  0.0000000  4.9162000  2
  12792  12786  12772  12794     1  0.0000000  0.6024960  3
  12795  12796  12799  12800     1  180.0000771  0.8368000  1
  12795  12796  12799  12800     1  180.0000771  1.0460000  2
  12795  12796  12799  12800     1  0.0000000  0.7531200  3
  12795  12796  12799  12807     1  0.0000000  0.6508444  3
  12795  12817  12801  12805     1  180.0000771  5.6484000  1
  12795  12817  12801  12805     1  180.0000771  3.5564000  2
  12795  12817  12801  12805     1  0.0000000  0.4184000  3
  12795  12817  12801  12800     1  180.0000771  0.4184000  2
  12795  12817  12801  12800     1  0.0000000  1.6024720  3
  12796  12799  12800  12801     1  180.0000771  0.8368000  1
  12796  12799  12800  12801     1  180.0000771  1.0460000  2
  12796  12799  12800  12801     1  0.0000000  0.7531200  3
  12796  12799  12800  12806     1  0.0000000  0.6508444  3
  12796  12795  12809  12815     1  0.0000000  0.6508444  3
  12796  12795  12817  12801     1  180.0000771  0.4184000  2
  12796  12795  12817  12801     1  0.0000000  1.6024720  3
  12799  12800  12801  12805     1  0.0000000  0.6508444  3
  12799  12800  12801  12817     1  0.0000000  0.6508444  3
  12799  12796  12795  12809     1  180.0000771  0.8368000  1
  12799  12796  12795  12809     1  180.0000771  1.0460000  2
  12799  12796  12795  12809     1  0.0000000  0.7531200  3
  12799  12796  12795  12817     1  0.0000000  0.6508444  3
  12800  12799  12796  12808     1  0.0000000  0.6508444  3
  12801  12817  12795  12809     1  180.0000771  0.4184000  2
  12801  12817  12795  12809     1  0.0000000  1.6024720  3
  12801  12800  12799  12807     1  0.0000000  0.6508444  3
  12805  12801  12800  12806     1  0.0000000  4.9162000  2
  12805  12801  12800  12806     1  0.0000000  0.6024960  3
  12806  12800  12801  12817     1  0.0000000  4.9162000  2
  12806  12800  12801  12817     1  0.0000000  0.6024960  3
  12806  12800  12799  12807     1  0.0000000  4.9162000  2
  12806  12800  12799  12807     1  0.0000000  0.6024960  3
  12807  12799  12796  12808     1  0.0000000  4.9162000  2
  12807  12799  12796  12808     1  0.0000000  0.6024960  3
  12808  12796  12795  12809     1  0.0000000  0.6508444  3
  12808  12796  12795  12817     1  0.0000000  4.9162000  2
  12808  12796  12795  12817     1  0.0000000  0.6024960  3
  12815  12809  12795  12817     1  0.0000000  4.9162000  2
  12815  12809  12795  12817     1  0.0000000  0.6024960  3
  12818  12819  12822  12823     1  180.0000771  0.8368000  1
  12818  12819  12822  12823     1  180.0000771  1.0460000  2
  12818  12819  12822  12823     1  0.0000000  0.7531200  3
  12818  12819  12822  12830     1  0.0000000  0.6508444  3
  12818  12840  12824  12823     1  180.0000771  0.4184000  2
  12818  12840  12824  12823     1  0.0000000  1.6024720  3
  12818  12840  12824  12828     1  180.0000771  5.6484000  1
  12818  12840  12824  12828     1  180.0000771  3.5564000  2
  12818  12840  12824  12828     1  0.0000000  0.4184000  3
  12819  12818  12832  12838     1  0.0000000  0.6508444  3
  12819  12818  12840  12824     1  180.0000771  0.4184000  2
  12819  12818  12840  12824     1  0.0000000  1.6024720  3
  12819  12822  12823  12824     1  180.0000771  0.8368000  1
  12819  12822  12823  12824     1  180.0000771  1.0460000  2
  12819  12822  12823  12824     1  0.0000000  0.7531200  3
  12819  12822  12823  12829     1  0.0000000  0.6508444  3
  12822  12819  12818  12832     1  180.0000771  0.8368000  1
  12822  12819  12818  12832     1  180.0000771  1.0460000  2
  12822  12819  12818  12832     1  0.0000000  0.7531200  3
  12822  12819  12818  12840     1  0.0000000  0.6508444  3
  12822  12823  12824  12828     1  0.0000000  0.6508444  3
  12822  12823  12824  12840     1  0.0000000  0.6508444  3
  12823  12822  12819  12831     1  0.0000000  0.6508444  3
  12824  12823  12822  12830     1  0.0000000  0.6508444  3
  12824  12840  12818  12832     1  180.0000771  0.4184000  2
  12824  12840  12818  12832     1  0.0000000  1.6024720  3
  12828  12824  12823  12829     1  0.0000000  4.9162000  2
  12828  12824  12823  12829     1  0.0000000  0.6024960  3
  12829  12823  12822  12830     1  0.0000000  4.9162000  2
  12829  12823  12822  12830     1  0.0000000  0.6024960  3
  12829  12823  12824  12840     1  0.0000000  4.9162000  2
  12829  12823  12824  12840     1  0.0000000  0.6024960  3
  12830  12822  12819  12831     1  0.0000000  4.9162000  2
  12830  12822  12819  12831     1  0.0000000  0.6024960  3
  12831  12819  12818  12832     1  0.0000000  0.6508444  3
  12831  12819  12818  12840     1  0.0000000  4.9162000  2
  12831  12819  12818  12840     1  0.0000000  0.6024960  3
  12838  12832  12818  12840     1  0.0000000  4.9162000  2
  12838  12832  12818  12840     1  0.0000000  0.6024960  3
  12841  12842  12845  12846     1  180.0000771  0.8368000  1
  12841  12842  12845  12846     1  180.0000771  1.0460000  2
  12841  12842  12845  12846     1  0.0000000  0.7531200  3
  12841  12842  12845  12853     1  0.0000000  0.6508444  3
  12841  12863  12847  12851     1  180.0000771  5.6484000  1
  12841  12863  12847  12851     1  180.0000771  3.5564000  2
  12841  12863  12847  12851     1  0.0000000  0.4184000  3
  12841  12863  12847  12846     1  180.0000771  0.4184000  2
  12841  12863  12847  12846     1  0.0000000  1.6024720  3
  12842  12845  12846  12847     1  180.0000771  0.8368000  1
  12842  12845  12846  12847     1  180.0000771  1.0460000  2
  12842  12845  12846  12847     1  0.0000000  0.7531200  3
  12842  12845  12846  12852     1  0.0000000  0.6508444  3
  12842  12841  12855  12861     1  0.0000000  0.6508444  3
  12842  12841  12863  12847     1  180.0000771  0.4184000  2
  12842  12841  12863  12847     1  0.0000000  1.6024720  3
  12845  12846  12847  12851     1  0.0000000  0.6508444  3
  12845  12846  12847  12863     1  0.0000000  0.6508444  3
  12845  12842  12841  12855     1  180.0000771  0.8368000  1
  12845  12842  12841  12855     1  180.0000771  1.0460000  2
  12845  12842  12841  12855     1  0.0000000  0.7531200  3
  12845  12842  12841  12863     1  0.0000000  0.6508444  3
  12846  12845  12842  12854     1  0.0000000  0.6508444  3
  12847  12863  12841  12855     1  180.0000771  0.4184000  2
  12847  12863  12841  12855     1  0.0000000  1.6024720  3
  12847  12846  12845  12853     1  0.0000000  0.6508444  3
  12851  12847  12846  12852     1  0.0000000  4.9162000  2
  12851  12847  12846  12852     1  0.0000000  0.6024960  3
  12852  12846  12847  12863     1  0.0000000  4.9162000  2
  12852  12846  12847  12863     1  0.0000000  0.6024960  3
  12852  12846  12845  12853     1  0.0000000  4.9162000  2
  12852  12846  12845  12853     1  0.0000000  0.6024960  3
  12853  12845  12842  12854     1  0.0000000  4.9162000  2
  12853  12845  12842  12854     1  0.0000000  0.6024960  3
  12854  12842  12841  12855     1  0.0000000  0.6508444  3
  12854  12842  12841  12863     1  0.0000000  4.9162000  2
  12854  12842  12841  12863     1  0.0000000  0.6024960  3
  12861  12855  12841  12863     1  0.0000000  4.9162000  2
  12861  12855  12841  12863     1  0.0000000  0.6024960  3
  12864  12865  12868  12869     1  180.0000771  0.8368000  1
  12864  12865  12868  12869     1  180.0000771  1.0460000  2
  12864  12865  12868  12869     1  0.0000000  0.7531200  3
  12864  12865  12868  12876     1  0.0000000  0.6508444  3
  12864  12886  12870  12869     1  180.0000771  0.4184000  2
  12864  12886  12870  12869     1  0.0000000  1.6024720  3
  12864  12886  12870  12874     1  180.0000771  5.6484000  1
  12864  12886  12870  12874     1  180.0000771  3.5564000  2
  12864  12886  12870  12874     1  0.0000000  0.4184000  3
  12865  12864  12878  12884     1  0.0000000  0.6508444  3
  12865  12864  12886  12870     1  180.0000771  0.4184000  2
  12865  12864  12886  12870     1  0.0000000  1.6024720  3
  12865  12868  12869  12870     1  180.0000771  0.8368000  1
  12865  12868  12869  12870     1  180.0000771  1.0460000  2
  12865  12868  12869  12870     1  0.0000000  0.7531200  3
  12865  12868  12869  12875     1  0.0000000  0.6508444  3
  12868  12865  12864  12878     1  180.0000771  0.8368000  1
  12868  12865  12864  12878     1  180.0000771  1.0460000  2
  12868  12865  12864  12878     1  0.0000000  0.7531200  3
  12868  12865  12864  12886     1  0.0000000  0.6508444  3
  12868  12869  12870  12874     1  0.0000000  0.6508444  3
  12868  12869  12870  12886     1  0.0000000  0.6508444  3
  12869  12868  12865  12877     1  0.0000000  0.6508444  3
  12870  12869  12868  12876     1  0.0000000  0.6508444  3
  12870  12886  12864  12878     1  180.0000771  0.4184000  2
  12870  12886  12864  12878     1  0.0000000  1.6024720  3
  12874  12870  12869  12875     1  0.0000000  4.9162000  2
  12874  12870  12869  12875     1  0.0000000  0.6024960  3
  12875  12869  12868  12876     1  0.0000000  4.9162000  2
  12875  12869  12868  12876     1  0.0000000  0.6024960  3
  12875  12869  12870  12886     1  0.0000000  4.9162000  2
  12875  12869  12870  12886     1  0.0000000  0.6024960  3
  12876  12868  12865  12877     1  0.0000000  4.9162000  2
  12876  12868  12865  12877     1  0.0000000  0.6024960  3
  12877  12865  12864  12878     1  0.0000000  0.6508444  3
  12877  12865  12864  12886     1  0.0000000  4.9162000  2
  12877  12865  12864  12886     1  0.0000000  0.6024960  3
  12884  12878  12864  12886     1  0.0000000  4.9162000  2
  12884  12878  12864  12886     1  0.0000000  0.6024960  3
  12887  12888  12891  12892     1  180.0000771  0.8368000  1
  12887  12888  12891  12892     1  180.0000771  1.0460000  2
  12887  12888  12891  12892     1  0.0000000  0.7531200  3
  12887  12888  12891  12899     1  0.0000000  0.6508444  3
  12887  12909  12893  12897     1  180.0000771  5.6484000  1
  12887  12909  12893  12897     1  180.0000771  3.5564000  2
  12887  12909  12893  12897     1  0.0000000  0.4184000  3
  12887  12909  12893  12892     1  180.0000771  0.4184000  2
  12887  12909  12893  12892     1  0.0000000  1.6024720  3
  12888  12891  12892  12893     1  180.0000771  0.8368000  1
  12888  12891  12892  12893     1  180.0000771  1.0460000  2
  12888  12891  12892  12893     1  0.0000000  0.7531200  3
  12888  12891  12892  12898     1  0.0000000  0.6508444  3
  12888  12887  12901  12907     1  0.0000000  0.6508444  3
  12888  12887  12909  12893     1  180.0000771  0.4184000  2
  12888  12887  12909  12893     1  0.0000000  1.6024720  3
  12891  12892  12893  12897     1  0.0000000  0.6508444  3
  12891  12892  12893  12909     1  0.0000000  0.6508444  3
  12891  12888  12887  12901     1  180.0000771  0.8368000  1
  12891  12888  12887  12901     1  180.0000771  1.0460000  2
  12891  12888  12887  12901     1  0.0000000  0.7531200  3
  12891  12888  12887  12909     1  0.0000000  0.6508444  3
  12892  12891  12888  12900     1  0.0000000  0.6508444  3
  12893  12909  12887  12901     1  180.0000771  0.4184000  2
  12893  12909  12887  12901     1  0.0000000  1.6024720  3
  12893  12892  12891  12899     1  0.0000000  0.6508444  3
  12897  12893  12892  12898     1  0.0000000  4.9162000  2
  12897  12893  12892  12898     1  0.0000000  0.6024960  3
  12898  12892  12893  12909     1  0.0000000  4.9162000  2
  12898  12892  12893  12909     1  0.0000000  0.6024960  3
  12898  12892  12891  12899     1  0.0000000  4.9162000  2
  12898  12892  12891  12899     1  0.0000000  0.6024960  3
  12899  12891  12888  12900     1  0.0000000  4.9162000  2
  12899  12891  12888  12900     1  0.0000000  0.6024960  3
  12900  12888  12887  12901     1  0.0000000  0.6508444  3
  12900  12888  12887  12909     1  0.0000000  4.9162000  2
  12900  12888  12887  12909     1  0.0000000  0.6024960  3
  12907  12901  12887  12909     1  0.0000000  4.9162000  2
  12907  12901  12887  12909     1  0.0000000  0.6024960  3
  12910  12911  12914  12915     1  180.0000771  0.8368000  1
  12910  12911  12914  12915     1  180.0000771  1.0460000  2
  12910  12911  12914  12915     1  0.0000000  0.7531200  3
  12910  12911  12914  12922     1  0.0000000  0.6508444  3
  12910  12932  12916  12915     1  180.0000771  0.4184000  2
  12910  12932  12916  12915     1  0.0000000  1.6024720  3
  12910  12932  12916  12920     1  180.0000771  5.6484000  1
  12910  12932  12916  12920     1  180.0000771  3.5564000  2
  12910  12932  12916  12920     1  0.0000000  0.4184000  3
  12911  12910  12924  12930     1  0.0000000  0.6508444  3
  12911  12910  12932  12916     1  180.0000771  0.4184000  2
  12911  12910  12932  12916     1  0.0000000  1.6024720  3
  12911  12914  12915  12916     1  180.0000771  0.8368000  1
  12911  12914  12915  12916     1  180.0000771  1.0460000  2
  12911  12914  12915  12916     1  0.0000000  0.7531200  3
  12911  12914  12915  12921     1  0.0000000  0.6508444  3
  12914  12911  12910  12924     1  180.0000771  0.8368000  1
  12914  12911  12910  12924     1  180.0000771  1.0460000  2
  12914  12911  12910  12924     1  0.0000000  0.7531200  3
  12914  12911  12910  12932     1  0.0000000  0.6508444  3
  12914  12915  12916  12920     1  0.0000000  0.6508444  3
  12914  12915  12916  12932     1  0.0000000  0.6508444  3
  12915  12914  12911  12923     1  0.0000000  0.6508444  3
  12916  12915  12914  12922     1  0.0000000  0.6508444  3
  12916  12932  12910  12924     1  180.0000771  0.4184000  2
  12916  12932  12910  12924     1  0.0000000  1.6024720  3
  12920  12916  12915  12921     1  0.0000000  4.9162000  2
  12920  12916  12915  12921     1  0.0000000  0.6024960  3
  12921  12915  12914  12922     1  0.0000000  4.9162000  2
  12921  12915  12914  12922     1  0.0000000  0.6024960  3
  12921  12915  12916  12932     1  0.0000000  4.9162000  2
  12921  12915  12916  12932     1  0.0000000  0.6024960  3
  12922  12914  12911  12923     1  0.0000000  4.9162000  2
  12922  12914  12911  12923     1  0.0000000  0.6024960  3
  12923  12911  12910  12924     1  0.0000000  0.6508444  3
  12923  12911  12910  12932     1  0.0000000  4.9162000  2
  12923  12911  12910  12932     1  0.0000000  0.6024960  3
  12930  12924  12910  12932     1  0.0000000  4.9162000  2
  12930  12924  12910  12932     1  0.0000000  0.6024960  3
  12933  12934  12937  12938     1  180.0000771  0.8368000  1
  12933  12934  12937  12938     1  180.0000771  1.0460000  2
  12933  12934  12937  12938     1  0.0000000  0.7531200  3
  12933  12934  12937  12945     1  0.0000000  0.6508444  3
  12933  12955  12939  12943     1  180.0000771  5.6484000  1
  12933  12955  12939  12943     1  180.0000771  3.5564000  2
  12933  12955  12939  12943     1  0.0000000  0.4184000  3
  12933  12955  12939  12938     1  180.0000771  0.4184000  2
  12933  12955  12939  12938     1  0.0000000  1.6024720  3
  12934  12937  12938  12939     1  180.0000771  0.8368000  1
  12934  12937  12938  12939     1  180.0000771  1.0460000  2
  12934  12937  12938  12939     1  0.0000000  0.7531200  3
  12934  12937  12938  12944     1  0.0000000  0.6508444  3
  12934  12933  12947  12953     1  0.0000000  0.6508444  3
  12934  12933  12955  12939     1  180.0000771  0.4184000  2
  12934  12933  12955  12939     1  0.0000000  1.6024720  3
  12937  12938  12939  12943     1  0.0000000  0.6508444  3
  12937  12938  12939  12955     1  0.0000000  0.6508444  3
  12937  12934  12933  12947     1  180.0000771  0.8368000  1
  12937  12934  12933  12947     1  180.0000771  1.0460000  2
  12937  12934  12933  12947     1  0.0000000  0.7531200  3
  12937  12934  12933  12955     1  0.0000000  0.6508444  3
  12938  12937  12934  12946     1  0.0000000  0.6508444  3
  12939  12955  12933  12947     1  180.0000771  0.4184000  2
  12939  12955  12933  12947     1  0.0000000  1.6024720  3
  12939  12938  12937  12945     1  0.0000000  0.6508444  3
  12943  12939  12938  12944     1  0.0000000  4.9162000  2
  12943  12939  12938  12944     1  0.0000000  0.6024960  3
  12944  12938  12939  12955     1  0.0000000  4.9162000  2
  12944  12938  12939  12955     1  0.0000000  0.6024960  3
  12944  12938  12937  12945     1  0.0000000  4.9162000  2
  12944  12938  12937  12945     1  0.0000000  0.6024960  3
  12945  12937  12934  12946     1  0.0000000  4.9162000  2
  12945  12937  12934  12946     1  0.0000000  0.6024960  3
  12946  12934  12933  12947     1  0.0000000  0.6508444  3
  12946  12934  12933  12955     1  0.0000000  4.9162000  2
  12946  12934  12933  12955     1  0.0000000  0.6024960  3
  12953  12947  12933  12955     1  0.0000000  4.9162000  2
  12953  12947  12933  12955     1  0.0000000  0.6024960  3
  12956  12957  12960  12961     1  180.0000771  0.8368000  1
  12956  12957  12960  12961     1  180.0000771  1.0460000  2
  12956  12957  12960  12961     1  0.0000000  0.7531200  3
  12956  12957  12960  12968     1  0.0000000  0.6508444  3
  12956  12978  12962  12961     1  180.0000771  0.4184000  2
  12956  12978  12962  12961     1  0.0000000  1.6024720  3
  12956  12978  12962  12966     1  180.0000771  5.6484000  1
  12956  12978  12962  12966     1  180.0000771  3.5564000  2
  12956  12978  12962  12966     1  0.0000000  0.4184000  3
  12957  12956  12970  12976     1  0.0000000  0.6508444  3
  12957  12956  12978  12962     1  180.0000771  0.4184000  2
  12957  12956  12978  12962     1  0.0000000  1.6024720  3
  12957  12960  12961  12962     1  180.0000771  0.8368000  1
  12957  12960  12961  12962     1  180.0000771  1.0460000  2
  12957  12960  12961  12962     1  0.0000000  0.7531200  3
  12957  12960  12961  12967     1  0.0000000  0.6508444  3
  12960  12957  12956  12970     1  180.0000771  0.8368000  1
  12960  12957  12956  12970     1  180.0000771  1.0460000  2
  12960  12957  12956  12970     1  0.0000000  0.7531200  3
  12960  12957  12956  12978     1  0.0000000  0.6508444  3
  12960  12961  12962  12966     1  0.0000000  0.6508444  3
  12960  12961  12962  12978     1  0.0000000  0.6508444  3
  12961  12960  12957  12969     1  0.0000000  0.6508444  3
  12962  12961  12960  12968     1  0.0000000  0.6508444  3
  12962  12978  12956  12970     1  180.0000771  0.4184000  2
  12962  12978  12956  12970     1  0.0000000  1.6024720  3
  12966  12962  12961  12967     1  0.0000000  4.9162000  2
  12966  12962  12961  12967     1  0.0000000  0.6024960  3
  12967  12961  12960  12968     1  0.0000000  4.9162000  2
  12967  12961  12960  12968     1  0.0000000  0.6024960  3
  12967  12961  12962  12978     1  0.0000000  4.9162000  2
  12967  12961  12962  12978     1  0.0000000  0.6024960  3
  12968  12960  12957  12969     1  0.0000000  4.9162000  2
  12968  12960  12957  12969     1  0.0000000  0.6024960  3
  12969  12957  12956  12970     1  0.0000000  0.6508444  3
  12969  12957  12956  12978     1  0.0000000  4.9162000  2
  12969  12957  12956  12978     1  0.0000000  0.6024960  3
  12976  12970  12956  12978     1  0.0000000  4.9162000  2
  12976  12970  12956  12978     1  0.0000000  0.6024960  3
  12979  12980  12983  12984     1  180.0000771  0.8368000  1
  12979  12980  12983  12984     1  180.0000771  1.0460000  2
  12979  12980  12983  12984     1  0.0000000  0.7531200  3
  12979  12980  12983  12991     1  0.0000000  0.6508444  3
  12979  13001  12985  12989     1  180.0000771  5.6484000  1
  12979  13001  12985  12989     1  180.0000771  3.5564000  2
  12979  13001  12985  12989     1  0.0000000  0.4184000  3
  12979  13001  12985  12984     1  180.0000771  0.4184000  2
  12979  13001  12985  12984     1  0.0000000  1.6024720  3
  12980  12983  12984  12985     1  180.0000771  0.8368000  1
  12980  12983  12984  12985     1  180.0000771  1.0460000  2
  12980  12983  12984  12985     1  0.0000000  0.7531200  3
  12980  12983  12984  12990     1  0.0000000  0.6508444  3
  12980  12979  12993  12999     1  0.0000000  0.6508444  3
  12980  12979  13001  12985     1  180.0000771  0.4184000  2
  12980  12979  13001  12985     1  0.0000000  1.6024720  3
  12983  12984  12985  12989     1  0.0000000  0.6508444  3
  12983  12984  12985  13001     1  0.0000000  0.6508444  3
  12983  12980  12979  12993     1  180.0000771  0.8368000  1
  12983  12980  12979  12993     1  180.0000771  1.0460000  2
  12983  12980  12979  12993     1  0.0000000  0.7531200  3
  12983  12980  12979  13001     1  0.0000000  0.6508444  3
  12984  12983  12980  12992     1  0.0000000  0.6508444  3
  12985  13001  12979  12993     1  180.0000771  0.4184000  2
  12985  13001  12979  12993     1  0.0000000  1.6024720  3
  12985  12984  12983  12991     1  0.0000000  0.6508444  3
  12989  12985  12984  12990     1  0.0000000  4.9162000  2
  12989  12985  12984  12990     1  0.0000000  0.6024960  3
  12990  12984  12985  13001     1  0.0000000  4.9162000  2
  12990  12984  12985  13001     1  0.0000000  0.6024960  3
  12990  12984  12983  12991     1  0.0000000  4.9162000  2
  12990  12984  12983  12991     1  0.0000000  0.6024960  3
  12991  12983  12980  12992     1  0.0000000  4.9162000  2
  12991  12983  12980  12992     1  0.0000000  0.6024960  3
  12992  12980  12979  12993     1  0.0000000  0.6508444  3
  12992  12980  12979  13001     1  0.0000000  4.9162000  2
  12992  12980  12979  13001     1  0.0000000  0.6024960  3
  12999  12993  12979  13001     1  0.0000000  4.9162000  2
  12999  12993  12979  13001     1  0.0000000  0.6024960  3
  13002  13003  13006  13007     1  180.0000771  0.8368000  1
  13002  13003  13006  13007     1  180.0000771  1.0460000  2
  13002  13003  13006  13007     1  0.0000000  0.7531200  3
  13002  13003  13006  13014     1  0.0000000  0.6508444  3
  13002  13024  13008  13007     1  180.0000771  0.4184000  2
  13002  13024  13008  13007     1  0.0000000  1.6024720  3
  13002  13024  13008  13012     1  180.0000771  5.6484000  1
  13002  13024  13008  13012     1  180.0000771  3.5564000  2
  13002  13024  13008  13012     1  0.0000000  0.4184000  3
  13003  13002  13016  13022     1  0.0000000  0.6508444  3
  13003  13002  13024  13008     1  180.0000771  0.4184000  2
  13003  13002  13024  13008     1  0.0000000  1.6024720  3
  13003  13006  13007  13008     1  180.0000771  0.8368000  1
  13003  13006  13007  13008     1  180.0000771  1.0460000  2
  13003  13006  13007  13008     1  0.0000000  0.7531200  3
  13003  13006  13007  13013     1  0.0000000  0.6508444  3
  13006  13003  13002  13016     1  180.0000771  0.8368000  1
  13006  13003  13002  13016     1  180.0000771  1.0460000  2
  13006  13003  13002  13016     1  0.0000000  0.7531200  3
  13006  13003  13002  13024     1  0.0000000  0.6508444  3
  13006  13007  13008  13012     1  0.0000000  0.6508444  3
  13006  13007  13008  13024     1  0.0000000  0.6508444  3
  13007  13006  13003  13015     1  0.0000000  0.6508444  3
  13008  13007  13006  13014     1  0.0000000  0.6508444  3
  13008  13024  13002  13016     1  180.0000771  0.4184000  2
  13008  13024  13002  13016     1  0.0000000  1.6024720  3
  13012  13008  13007  13013     1  0.0000000  4.9162000  2
  13012  13008  13007  13013     1  0.0000000  0.6024960  3
  13013  13007  13006  13014     1  0.0000000  4.9162000  2
  13013  13007  13006  13014     1  0.0000000  0.6024960  3
  13013  13007  13008  13024     1  0.0000000  4.9162000  2
  13013  13007  13008  13024     1  0.0000000  0.6024960  3
  13014  13006  13003  13015     1  0.0000000  4.9162000  2
  13014  13006  13003  13015     1  0.0000000  0.6024960  3
  13015  13003  13002  13016     1  0.0000000  0.6508444  3
  13015  13003  13002  13024     1  0.0000000  4.9162000  2
  13015  13003  13002  13024     1  0.0000000  0.6024960  3
  13022  13016  13002  13024     1  0.0000000  4.9162000  2
  13022  13016  13002  13024     1  0.0000000  0.6024960  3
  13025  13026  13029  13030     1  180.0000771  0.8368000  1
  13025  13026  13029  13030     1  180.0000771  1.0460000  2
  13025  13026  13029  13030     1  0.0000000  0.7531200  3
  13025  13026  13029  13037     1  0.0000000  0.6508444  3
  13025  13047  13031  13035     1  180.0000771  5.6484000  1
  13025  13047  13031  13035     1  180.0000771  3.5564000  2
  13025  13047  13031  13035     1  0.0000000  0.4184000  3
  13025  13047  13031  13030     1  180.0000771  0.4184000  2
  13025  13047  13031  13030     1  0.0000000  1.6024720  3
  13026  13029  13030  13031     1  180.0000771  0.8368000  1
  13026  13029  13030  13031     1  180.0000771  1.0460000  2
  13026  13029  13030  13031     1  0.0000000  0.7531200  3
  13026  13029  13030  13036     1  0.0000000  0.6508444  3
  13026  13025  13039  13045     1  0.0000000  0.6508444  3
  13026  13025  13047  13031     1  180.0000771  0.4184000  2
  13026  13025  13047  13031     1  0.0000000  1.6024720  3
  13029  13030  13031  13035     1  0.0000000  0.6508444  3
  13029  13030  13031  13047     1  0.0000000  0.6508444  3
  13029  13026  13025  13039     1  180.0000771  0.8368000  1
  13029  13026  13025  13039     1  180.0000771  1.0460000  2
  13029  13026  13025  13039     1  0.0000000  0.7531200  3
  13029  13026  13025  13047     1  0.0000000  0.6508444  3
  13030  13029  13026  13038     1  0.0000000  0.6508444  3
  13031  13047  13025  13039     1  180.0000771  0.4184000  2
  13031  13047  13025  13039     1  0.0000000  1.6024720  3
  13031  13030  13029  13037     1  0.0000000  0.6508444  3
  13035  13031  13030  13036     1  0.0000000  4.9162000  2
  13035  13031  13030  13036     1  0.0000000  0.6024960  3
  13036  13030  13031  13047     1  0.0000000  4.9162000  2
  13036  13030  13031  13047     1  0.0000000  0.6024960  3
  13036  13030  13029  13037     1  0.0000000  4.9162000  2
  13036  13030  13029  13037     1  0.0000000  0.6024960  3
  13037  13029  13026  13038     1  0.0000000  4.9162000  2
  13037  13029  13026  13038     1  0.0000000  0.6024960  3
  13038  13026  13025  13039     1  0.0000000  0.6508444  3
  13038  13026  13025  13047     1  0.0000000  4.9162000  2
  13038  13026  13025  13047     1  0.0000000  0.6024960  3
  13045  13039  13025  13047     1  0.0000000  4.9162000  2
  13045  13039  13025  13047     1  0.0000000  0.6024960  3
  13048  13049  13052  13053     1  180.0000771  0.8368000  1
  13048  13049  13052  13053     1  180.0000771  1.0460000  2
  13048  13049  13052  13053     1  0.0000000  0.7531200  3
  13048  13049  13052  13060     1  0.0000000  0.6508444  3
  13048  13070  13054  13053     1  180.0000771  0.4184000  2
  13048  13070  13054  13053     1  0.0000000  1.6024720  3
  13048  13070  13054  13058     1  180.0000771  5.6484000  1
  13048  13070  13054  13058     1  180.0000771  3.5564000  2
  13048  13070  13054  13058     1  0.0000000  0.4184000  3
  13049  13048  13062  13068     1  0.0000000  0.6508444  3
  13049  13048  13070  13054     1  180.0000771  0.4184000  2
  13049  13048  13070  13054     1  0.0000000  1.6024720  3
  13049  13052  13053  13054     1  180.0000771  0.8368000  1
  13049  13052  13053  13054     1  180.0000771  1.0460000  2
  13049  13052  13053  13054     1  0.0000000  0.7531200  3
  13049  13052  13053  13059     1  0.0000000  0.6508444  3
  13052  13049  13048  13062     1  180.0000771  0.8368000  1
  13052  13049  13048  13062     1  180.0000771  1.0460000  2
  13052  13049  13048  13062     1  0.0000000  0.7531200  3
  13052  13049  13048  13070     1  0.0000000  0.6508444  3
  13052  13053  13054  13058     1  0.0000000  0.6508444  3
  13052  13053  13054  13070     1  0.0000000  0.6508444  3
  13053  13052  13049  13061     1  0.0000000  0.6508444  3
  13054  13053  13052  13060     1  0.0000000  0.6508444  3
  13054  13070  13048  13062     1  180.0000771  0.4184000  2
  13054  13070  13048  13062     1  0.0000000  1.6024720  3
  13058  13054  13053  13059     1  0.0000000  4.9162000  2
  13058  13054  13053  13059     1  0.0000000  0.6024960  3
  13059  13053  13052  13060     1  0.0000000  4.9162000  2
  13059  13053  13052  13060     1  0.0000000  0.6024960  3
  13059  13053  13054  13070     1  0.0000000  4.9162000  2
  13059  13053  13054  13070     1  0.0000000  0.6024960  3
  13060  13052  13049  13061     1  0.0000000  4.9162000  2
  13060  13052  13049  13061     1  0.0000000  0.6024960  3
  13061  13049  13048  13062     1  0.0000000  0.6508444  3
  13061  13049  13048  13070     1  0.0000000  4.9162000  2
  13061  13049  13048  13070     1  0.0000000  0.6024960  3
  13068  13062  13048  13070     1  0.0000000  4.9162000  2
  13068  13062  13048  13070     1  0.0000000  0.6024960  3
  13071  13072  13075  13076     1  180.0000771  0.8368000  1
  13071  13072  13075  13076     1  180.0000771  1.0460000  2
  13071  13072  13075  13076     1  0.0000000  0.7531200  3
  13071  13072  13075  13083     1  0.0000000  0.6508444  3
  13071  13093  13077  13081     1  180.0000771  5.6484000  1
  13071  13093  13077  13081     1  180.0000771  3.5564000  2
  13071  13093  13077  13081     1  0.0000000  0.4184000  3
  13071  13093  13077  13076     1  180.0000771  0.4184000  2
  13071  13093  13077  13076     1  0.0000000  1.6024720  3
  13072  13075  13076  13077     1  180.0000771  0.8368000  1
  13072  13075  13076  13077     1  180.0000771  1.0460000  2
  13072  13075  13076  13077     1  0.0000000  0.7531200  3
  13072  13075  13076  13082     1  0.0000000  0.6508444  3
  13072  13071  13085  13091     1  0.0000000  0.6508444  3
  13072  13071  13093  13077     1  180.0000771  0.4184000  2
  13072  13071  13093  13077     1  0.0000000  1.6024720  3
  13075  13076  13077  13081     1  0.0000000  0.6508444  3
  13075  13076  13077  13093     1  0.0000000  0.6508444  3
  13075  13072  13071  13085     1  180.0000771  0.8368000  1
  13075  13072  13071  13085     1  180.0000771  1.0460000  2
  13075  13072  13071  13085     1  0.0000000  0.7531200  3
  13075  13072  13071  13093     1  0.0000000  0.6508444  3
  13076  13075  13072  13084     1  0.0000000  0.6508444  3
  13077  13093  13071  13085     1  180.0000771  0.4184000  2
  13077  13093  13071  13085     1  0.0000000  1.6024720  3
  13077  13076  13075  13083     1  0.0000000  0.6508444  3
  13081  13077  13076  13082     1  0.0000000  4.9162000  2
  13081  13077  13076  13082     1  0.0000000  0.6024960  3
  13082  13076  13077  13093     1  0.0000000  4.9162000  2
  13082  13076  13077  13093     1  0.0000000  0.6024960  3
  13082  13076  13075  13083     1  0.0000000  4.9162000  2
  13082  13076  13075  13083     1  0.0000000  0.6024960  3
  13083  13075  13072  13084     1  0.0000000  4.9162000  2
  13083  13075  13072  13084     1  0.0000000  0.6024960  3
  13084  13072  13071  13085     1  0.0000000  0.6508444  3
  13084  13072  13071  13093     1  0.0000000  4.9162000  2
  13084  13072  13071  13093     1  0.0000000  0.6024960  3
  13091  13085  13071  13093     1  0.0000000  4.9162000  2
  13091  13085  13071  13093     1  0.0000000  0.6024960  3
  13094  13095  13098  13099     1  180.0000771  0.8368000  1
  13094  13095  13098  13099     1  180.0000771  1.0460000  2
  13094  13095  13098  13099     1  0.0000000  0.7531200  3
  13094  13095  13098  13106     1  0.0000000  0.6508444  3
  13094  13116  13100  13099     1  180.0000771  0.4184000  2
  13094  13116  13100  13099     1  0.0000000  1.6024720  3
  13094  13116  13100  13104     1  180.0000771  5.6484000  1
  13094  13116  13100  13104     1  180.0000771  3.5564000  2
  13094  13116  13100  13104     1  0.0000000  0.4184000  3
  13095  13094  13108  13114     1  0.0000000  0.6508444  3
  13095  13094  13116  13100     1  180.0000771  0.4184000  2
  13095  13094  13116  13100     1  0.0000000  1.6024720  3
  13095  13098  13099  13100     1  180.0000771  0.8368000  1
  13095  13098  13099  13100     1  180.0000771  1.0460000  2
  13095  13098  13099  13100     1  0.0000000  0.7531200  3
  13095  13098  13099  13105     1  0.0000000  0.6508444  3
  13098  13095  13094  13108     1  180.0000771  0.8368000  1
  13098  13095  13094  13108     1  180.0000771  1.0460000  2
  13098  13095  13094  13108     1  0.0000000  0.7531200  3
  13098  13095  13094  13116     1  0.0000000  0.6508444  3
  13098  13099  13100  13104     1  0.0000000  0.6508444  3
  13098  13099  13100  13116     1  0.0000000  0.6508444  3
  13099  13098  13095  13107     1  0.0000000  0.6508444  3
  13100  13099  13098  13106     1  0.0000000  0.6508444  3
  13100  13116  13094  13108     1  180.0000771  0.4184000  2
  13100  13116  13094  13108     1  0.0000000  1.6024720  3
  13104  13100  13099  13105     1  0.0000000  4.9162000  2
  13104  13100  13099  13105     1  0.0000000  0.6024960  3
  13105  13099  13098  13106     1  0.0000000  4.9162000  2
  13105  13099  13098  13106     1  0.0000000  0.6024960  3
  13105  13099  13100  13116     1  0.0000000  4.9162000  2
  13105  13099  13100  13116     1  0.0000000  0.6024960  3
  13106  13098  13095  13107     1  0.0000000  4.9162000  2
  13106  13098  13095  13107     1  0.0000000  0.6024960  3
  13107  13095  13094  13108     1  0.0000000  0.6508444  3
  13107  13095  13094  13116     1  0.0000000  4.9162000  2
  13107  13095  13094  13116     1  0.0000000  0.6024960  3
  13114  13108  13094  13116     1  0.0000000  4.9162000  2
  13114  13108  13094  13116     1  0.0000000  0.6024960  3
  13117  13118  13121  13122     1  180.0000771  0.8368000  1
  13117  13118  13121  13122     1  180.0000771  1.0460000  2
  13117  13118  13121  13122     1  0.0000000  0.7531200  3
  13117  13118  13121  13129     1  0.0000000  0.6508444  3
  13117  13139  13123  13127     1  180.0000771  5.6484000  1
  13117  13139  13123  13127     1  180.0000771  3.5564000  2
  13117  13139  13123  13127     1  0.0000000  0.4184000  3
  13117  13139  13123  13122     1  180.0000771  0.4184000  2
  13117  13139  13123  13122     1  0.0000000  1.6024720  3
  13118  13121  13122  13123     1  180.0000771  0.8368000  1
  13118  13121  13122  13123     1  180.0000771  1.0460000  2
  13118  13121  13122  13123     1  0.0000000  0.7531200  3
  13118  13121  13122  13128     1  0.0000000  0.6508444  3
  13118  13117  13131  13137     1  0.0000000  0.6508444  3
  13118  13117  13139  13123     1  180.0000771  0.4184000  2
  13118  13117  13139  13123     1  0.0000000  1.6024720  3
  13121  13122  13123  13127     1  0.0000000  0.6508444  3
  13121  13122  13123  13139     1  0.0000000  0.6508444  3
  13121  13118  13117  13131     1  180.0000771  0.8368000  1
  13121  13118  13117  13131     1  180.0000771  1.0460000  2
  13121  13118  13117  13131     1  0.0000000  0.7531200  3
  13121  13118  13117  13139     1  0.0000000  0.6508444  3
  13122  13121  13118  13130     1  0.0000000  0.6508444  3
  13123  13139  13117  13131     1  180.0000771  0.4184000  2
  13123  13139  13117  13131     1  0.0000000  1.6024720  3
  13123  13122  13121  13129     1  0.0000000  0.6508444  3
  13127  13123  13122  13128     1  0.0000000  4.9162000  2
  13127  13123  13122  13128     1  0.0000000  0.6024960  3
  13128  13122  13123  13139     1  0.0000000  4.9162000  2
  13128  13122  13123  13139     1  0.0000000  0.6024960  3
  13128  13122  13121  13129     1  0.0000000  4.9162000  2
  13128  13122  13121  13129     1  0.0000000  0.6024960  3
  13129  13121  13118  13130     1  0.0000000  4.9162000  2
  13129  13121  13118  13130     1  0.0000000  0.6024960  3
  13130  13118  13117  13131     1  0.0000000  0.6508444  3
  13130  13118  13117  13139     1  0.0000000  4.9162000  2
  13130  13118  13117  13139     1  0.0000000  0.6024960  3
  13137  13131  13117  13139     1  0.0000000  4.9162000  2
  13137  13131  13117  13139     1  0.0000000  0.6024960  3
  13140  13141  13144  13145     1  180.0000771  0.8368000  1
  13140  13141  13144  13145     1  180.0000771  1.0460000  2
  13140  13141  13144  13145     1  0.0000000  0.7531200  3
  13140  13141  13144  13152     1  0.0000000  0.6508444  3
  13140  13162  13146  13145     1  180.0000771  0.4184000  2
  13140  13162  13146  13145     1  0.0000000  1.6024720  3
  13140  13162  13146  13150     1  180.0000771  5.6484000  1
  13140  13162  13146  13150     1  180.0000771  3.5564000  2
  13140  13162  13146  13150     1  0.0000000  0.4184000  3
  13141  13140  13154  13160     1  0.0000000  0.6508444  3
  13141  13140  13162  13146     1  180.0000771  0.4184000  2
  13141  13140  13162  13146     1  0.0000000  1.6024720  3
  13141  13144  13145  13146     1  180.0000771  0.8368000  1
  13141  13144  13145  13146     1  180.0000771  1.0460000  2
  13141  13144  13145  13146     1  0.0000000  0.7531200  3
  13141  13144  13145  13151     1  0.0000000  0.6508444  3
  13144  13141  13140  13154     1  180.0000771  0.8368000  1
  13144  13141  13140  13154     1  180.0000771  1.0460000  2
  13144  13141  13140  13154     1  0.0000000  0.7531200  3
  13144  13141  13140  13162     1  0.0000000  0.6508444  3
  13144  13145  13146  13150     1  0.0000000  0.6508444  3
  13144  13145  13146  13162     1  0.0000000  0.6508444  3
  13145  13144  13141  13153     1  0.0000000  0.6508444  3
  13146  13145  13144  13152     1  0.0000000  0.6508444  3
  13146  13162  13140  13154     1  180.0000771  0.4184000  2
  13146  13162  13140  13154     1  0.0000000  1.6024720  3
  13150  13146  13145  13151     1  0.0000000  4.9162000  2
  13150  13146  13145  13151     1  0.0000000  0.6024960  3
  13151  13145  13144  13152     1  0.0000000  4.9162000  2
  13151  13145  13144  13152     1  0.0000000  0.6024960  3
  13151  13145  13146  13162     1  0.0000000  4.9162000  2
  13151  13145  13146  13162     1  0.0000000  0.6024960  3
  13152  13144  13141  13153     1  0.0000000  4.9162000  2
  13152  13144  13141  13153     1  0.0000000  0.6024960  3
  13153  13141  13140  13154     1  0.0000000  0.6508444  3
  13153  13141  13140  13162     1  0.0000000  4.9162000  2
  13153  13141  13140  13162     1  0.0000000  0.6024960  3
  13160  13154  13140  13162     1  0.0000000  4.9162000  2
  13160  13154  13140  13162     1  0.0000000  0.6024960  3
  13163  13164  13167  13168     1  180.0000771  0.8368000  1
  13163  13164  13167  13168     1  180.0000771  1.0460000  2
  13163  13164  13167  13168     1  0.0000000  0.7531200  3
  13163  13164  13167  13175     1  0.0000000  0.6508444  3
  13163  13185  13169  13173     1  180.0000771  5.6484000  1
  13163  13185  13169  13173     1  180.0000771  3.5564000  2
  13163  13185  13169  13173     1  0.0000000  0.4184000  3
  13163  13185  13169  13168     1  180.0000771  0.4184000  2
  13163  13185  13169  13168     1  0.0000000  1.6024720  3
  13164  13167  13168  13169     1  180.0000771  0.8368000  1
  13164  13167  13168  13169     1  180.0000771  1.0460000  2
  13164  13167  13168  13169     1  0.0000000  0.7531200  3
  13164  13167  13168  13174     1  0.0000000  0.6508444  3
  13164  13163  13177  13183     1  0.0000000  0.6508444  3
  13164  13163  13185  13169     1  180.0000771  0.4184000  2
  13164  13163  13185  13169     1  0.0000000  1.6024720  3
  13167  13168  13169  13173     1  0.0000000  0.6508444  3
  13167  13168  13169  13185     1  0.0000000  0.6508444  3
  13167  13164  13163  13177     1  180.0000771  0.8368000  1
  13167  13164  13163  13177     1  180.0000771  1.0460000  2
  13167  13164  13163  13177     1  0.0000000  0.7531200  3
  13167  13164  13163  13185     1  0.0000000  0.6508444  3
  13168  13167  13164  13176     1  0.0000000  0.6508444  3
  13169  13185  13163  13177     1  180.0000771  0.4184000  2
  13169  13185  13163  13177     1  0.0000000  1.6024720  3
  13169  13168  13167  13175     1  0.0000000  0.6508444  3
  13173  13169  13168  13174     1  0.0000000  4.9162000  2
  13173  13169  13168  13174     1  0.0000000  0.6024960  3
  13174  13168  13169  13185     1  0.0000000  4.9162000  2
  13174  13168  13169  13185     1  0.0000000  0.6024960  3
  13174  13168  13167  13175     1  0.0000000  4.9162000  2
  13174  13168  13167  13175     1  0.0000000  0.6024960  3
  13175  13167  13164  13176     1  0.0000000  4.9162000  2
  13175  13167  13164  13176     1  0.0000000  0.6024960  3
  13176  13164  13163  13177     1  0.0000000  0.6508444  3
  13176  13164  13163  13185     1  0.0000000  4.9162000  2
  13176  13164  13163  13185     1  0.0000000  0.6024960  3
  13183  13177  13163  13185     1  0.0000000  4.9162000  2
  13183  13177  13163  13185     1  0.0000000  0.6024960  3
  13186  13187  13190  13191     1  180.0000771  0.8368000  1
  13186  13187  13190  13191     1  180.0000771  1.0460000  2
  13186  13187  13190  13191     1  0.0000000  0.7531200  3
  13186  13187  13190  13198     1  0.0000000  0.6508444  3
  13186  13208  13192  13191     1  180.0000771  0.4184000  2
  13186  13208  13192  13191     1  0.0000000  1.6024720  3
  13186  13208  13192  13196     1  180.0000771  5.6484000  1
  13186  13208  13192  13196     1  180.0000771  3.5564000  2
  13186  13208  13192  13196     1  0.0000000  0.4184000  3
  13187  13186  13200  13206     1  0.0000000  0.6508444  3
  13187  13186  13208  13192     1  180.0000771  0.4184000  2
  13187  13186  13208  13192     1  0.0000000  1.6024720  3
  13187  13190  13191  13192     1  180.0000771  0.8368000  1
  13187  13190  13191  13192     1  180.0000771  1.0460000  2
  13187  13190  13191  13192     1  0.0000000  0.7531200  3
  13187  13190  13191  13197     1  0.0000000  0.6508444  3
  13190  13187  13186  13200     1  180.0000771  0.8368000  1
  13190  13187  13186  13200     1  180.0000771  1.0460000  2
  13190  13187  13186  13200     1  0.0000000  0.7531200  3
  13190  13187  13186  13208     1  0.0000000  0.6508444  3
  13190  13191  13192  13196     1  0.0000000  0.6508444  3
  13190  13191  13192  13208     1  0.0000000  0.6508444  3
  13191  13190  13187  13199     1  0.0000000  0.6508444  3
  13192  13191  13190  13198     1  0.0000000  0.6508444  3
  13192  13208  13186  13200     1  180.0000771  0.4184000  2
  13192  13208  13186  13200     1  0.0000000  1.6024720  3
  13196  13192  13191  13197     1  0.0000000  4.9162000  2
  13196  13192  13191  13197     1  0.0000000  0.6024960  3
  13197  13191  13190  13198     1  0.0000000  4.9162000  2
  13197  13191  13190  13198     1  0.0000000  0.6024960  3
  13197  13191  13192  13208     1  0.0000000  4.9162000  2
  13197  13191  13192  13208     1  0.0000000  0.6024960  3
  13198  13190  13187  13199     1  0.0000000  4.9162000  2
  13198  13190  13187  13199     1  0.0000000  0.6024960  3
  13199  13187  13186  13200     1  0.0000000  0.6508444  3
  13199  13187  13186  13208     1  0.0000000  4.9162000  2
  13199  13187  13186  13208     1  0.0000000  0.6024960  3
  13206  13200  13186  13208     1  0.0000000  4.9162000  2
  13206  13200  13186  13208     1  0.0000000  0.6024960  3
  13209  13210  13213  13214     1  180.0000771  0.8368000  1
  13209  13210  13213  13214     1  180.0000771  1.0460000  2
  13209  13210  13213  13214     1  0.0000000  0.7531200  3
  13209  13210  13213  13221     1  0.0000000  0.6508444  3
  13209  13231  13215  13219     1  180.0000771  5.6484000  1
  13209  13231  13215  13219     1  180.0000771  3.5564000  2
  13209  13231  13215  13219     1  0.0000000  0.4184000  3
  13209  13231  13215  13214     1  180.0000771  0.4184000  2
  13209  13231  13215  13214     1  0.0000000  1.6024720  3
  13210  13213  13214  13215     1  180.0000771  0.8368000  1
  13210  13213  13214  13215     1  180.0000771  1.0460000  2
  13210  13213  13214  13215     1  0.0000000  0.7531200  3
  13210  13213  13214  13220     1  0.0000000  0.6508444  3
  13210  13209  13223  13229     1  0.0000000  0.6508444  3
  13210  13209  13231  13215     1  180.0000771  0.4184000  2
  13210  13209  13231  13215     1  0.0000000  1.6024720  3
  13213  13214  13215  13219     1  0.0000000  0.6508444  3
  13213  13214  13215  13231     1  0.0000000  0.6508444  3
  13213  13210  13209  13223     1  180.0000771  0.8368000  1
  13213  13210  13209  13223     1  180.0000771  1.0460000  2
  13213  13210  13209  13223     1  0.0000000  0.7531200  3
  13213  13210  13209  13231     1  0.0000000  0.6508444  3
  13214  13213  13210  13222     1  0.0000000  0.6508444  3
  13215  13231  13209  13223     1  180.0000771  0.4184000  2
  13215  13231  13209  13223     1  0.0000000  1.6024720  3
  13215  13214  13213  13221     1  0.0000000  0.6508444  3
  13219  13215  13214  13220     1  0.0000000  4.9162000  2
  13219  13215  13214  13220     1  0.0000000  0.6024960  3
  13220  13214  13215  13231     1  0.0000000  4.9162000  2
  13220  13214  13215  13231     1  0.0000000  0.6024960  3
  13220  13214  13213  13221     1  0.0000000  4.9162000  2
  13220  13214  13213  13221     1  0.0000000  0.6024960  3
  13221  13213  13210  13222     1  0.0000000  4.9162000  2
  13221  13213  13210  13222     1  0.0000000  0.6024960  3
  13222  13210  13209  13223     1  0.0000000  0.6508444  3
  13222  13210  13209  13231     1  0.0000000  4.9162000  2
  13222  13210  13209  13231     1  0.0000000  0.6024960  3
  13229  13223  13209  13231     1  0.0000000  4.9162000  2
  13229  13223  13209  13231     1  0.0000000  0.6024960  3
  13232  13233  13236  13237     1  180.0000771  0.8368000  1
  13232  13233  13236  13237     1  180.0000771  1.0460000  2
  13232  13233  13236  13237     1  0.0000000  0.7531200  3
  13232  13233  13236  13244     1  0.0000000  0.6508444  3
  13232  13254  13238  13237     1  180.0000771  0.4184000  2
  13232  13254  13238  13237     1  0.0000000  1.6024720  3
  13232  13254  13238  13242     1  180.0000771  5.6484000  1
  13232  13254  13238  13242     1  180.0000771  3.5564000  2
  13232  13254  13238  13242     1  0.0000000  0.4184000  3
  13233  13232  13246  13252     1  0.0000000  0.6508444  3
  13233  13232  13254  13238     1  180.0000771  0.4184000  2
  13233  13232  13254  13238     1  0.0000000  1.6024720  3
  13233  13236  13237  13238     1  180.0000771  0.8368000  1
  13233  13236  13237  13238     1  180.0000771  1.0460000  2
  13233  13236  13237  13238     1  0.0000000  0.7531200  3
  13233  13236  13237  13243     1  0.0000000  0.6508444  3
  13236  13233  13232  13246     1  180.0000771  0.8368000  1
  13236  13233  13232  13246     1  180.0000771  1.0460000  2
  13236  13233  13232  13246     1  0.0000000  0.7531200  3
  13236  13233  13232  13254     1  0.0000000  0.6508444  3
  13236  13237  13238  13242     1  0.0000000  0.6508444  3
  13236  13237  13238  13254     1  0.0000000  0.6508444  3
  13237  13236  13233  13245     1  0.0000000  0.6508444  3
  13238  13237  13236  13244     1  0.0000000  0.6508444  3
  13238  13254  13232  13246     1  180.0000771  0.4184000  2
  13238  13254  13232  13246     1  0.0000000  1.6024720  3
  13242  13238  13237  13243     1  0.0000000  4.9162000  2
  13242  13238  13237  13243     1  0.0000000  0.6024960  3
  13243  13237  13236  13244     1  0.0000000  4.9162000  2
  13243  13237  13236  13244     1  0.0000000  0.6024960  3
  13243  13237  13238  13254     1  0.0000000  4.9162000  2
  13243  13237  13238  13254     1  0.0000000  0.6024960  3
  13244  13236  13233  13245     1  0.0000000  4.9162000  2
  13244  13236  13233  13245     1  0.0000000  0.6024960  3
  13245  13233  13232  13246     1  0.0000000  0.6508444  3
  13245  13233  13232  13254     1  0.0000000  4.9162000  2
  13245  13233  13232  13254     1  0.0000000  0.6024960  3
  13252  13246  13232  13254     1  0.0000000  4.9162000  2
  13252  13246  13232  13254     1  0.0000000  0.6024960  3
  13255  13256  13259  13260     1  180.0000771  0.8368000  1
  13255  13256  13259  13260     1  180.0000771  1.0460000  2
  13255  13256  13259  13260     1  0.0000000  0.7531200  3
  13255  13256  13259  13267     1  0.0000000  0.6508444  3
  13255  13277  13261  13265     1  180.0000771  5.6484000  1
  13255  13277  13261  13265     1  180.0000771  3.5564000  2
  13255  13277  13261  13265     1  0.0000000  0.4184000  3
  13255  13277  13261  13260     1  180.0000771  0.4184000  2
  13255  13277  13261  13260     1  0.0000000  1.6024720  3
  13256  13259  13260  13261     1  180.0000771  0.8368000  1
  13256  13259  13260  13261     1  180.0000771  1.0460000  2
  13256  13259  13260  13261     1  0.0000000  0.7531200  3
  13256  13259  13260  13266     1  0.0000000  0.6508444  3
  13256  13255  13269  13275     1  0.0000000  0.6508444  3
  13256  13255  13277  13261     1  180.0000771  0.4184000  2
  13256  13255  13277  13261     1  0.0000000  1.6024720  3
  13259  13260  13261  13265     1  0.0000000  0.6508444  3
  13259  13260  13261  13277     1  0.0000000  0.6508444  3
  13259  13256  13255  13269     1  180.0000771  0.8368000  1
  13259  13256  13255  13269     1  180.0000771  1.0460000  2
  13259  13256  13255  13269     1  0.0000000  0.7531200  3
  13259  13256  13255  13277     1  0.0000000  0.6508444  3
  13260  13259  13256  13268     1  0.0000000  0.6508444  3
  13261  13277  13255  13269     1  180.0000771  0.4184000  2
  13261  13277  13255  13269     1  0.0000000  1.6024720  3
  13261  13260  13259  13267     1  0.0000000  0.6508444  3
  13265  13261  13260  13266     1  0.0000000  4.9162000  2
  13265  13261  13260  13266     1  0.0000000  0.6024960  3
  13266  13260  13261  13277     1  0.0000000  4.9162000  2
  13266  13260  13261  13277     1  0.0000000  0.6024960  3
  13266  13260  13259  13267     1  0.0000000  4.9162000  2
  13266  13260  13259  13267     1  0.0000000  0.6024960  3
  13267  13259  13256  13268     1  0.0000000  4.9162000  2
  13267  13259  13256  13268     1  0.0000000  0.6024960  3
  13268  13256  13255  13269     1  0.0000000  0.6508444  3
  13268  13256  13255  13277     1  0.0000000  4.9162000  2
  13268  13256  13255  13277     1  0.0000000  0.6024960  3
  13275  13269  13255  13277     1  0.0000000  4.9162000  2
  13275  13269  13255  13277     1  0.0000000  0.6024960  3
  13278  13279  13282  13283     1  180.0000771  0.8368000  1
  13278  13279  13282  13283     1  180.0000771  1.0460000  2
  13278  13279  13282  13283     1  0.0000000  0.7531200  3
  13278  13279  13282  13290     1  0.0000000  0.6508444  3
  13278  13300  13284  13283     1  180.0000771  0.4184000  2
  13278  13300  13284  13283     1  0.0000000  1.6024720  3
  13278  13300  13284  13288     1  180.0000771  5.6484000  1
  13278  13300  13284  13288     1  180.0000771  3.5564000  2
  13278  13300  13284  13288     1  0.0000000  0.4184000  3
  13279  13278  13292  13298     1  0.0000000  0.6508444  3
  13279  13278  13300  13284     1  180.0000771  0.4184000  2
  13279  13278  13300  13284     1  0.0000000  1.6024720  3
  13279  13282  13283  13284     1  180.0000771  0.8368000  1
  13279  13282  13283  13284     1  180.0000771  1.0460000  2
  13279  13282  13283  13284     1  0.0000000  0.7531200  3
  13279  13282  13283  13289     1  0.0000000  0.6508444  3
  13282  13279  13278  13292     1  180.0000771  0.8368000  1
  13282  13279  13278  13292     1  180.0000771  1.0460000  2
  13282  13279  13278  13292     1  0.0000000  0.7531200  3
  13282  13279  13278  13300     1  0.0000000  0.6508444  3
  13282  13283  13284  13288     1  0.0000000  0.6508444  3
  13282  13283  13284  13300     1  0.0000000  0.6508444  3
  13283  13282  13279  13291     1  0.0000000  0.6508444  3
  13284  13283  13282  13290     1  0.0000000  0.6508444  3
  13284  13300  13278  13292     1  180.0000771  0.4184000  2
  13284  13300  13278  13292     1  0.0000000  1.6024720  3
  13288  13284  13283  13289     1  0.0000000  4.9162000  2
  13288  13284  13283  13289     1  0.0000000  0.6024960  3
  13289  13283  13282  13290     1  0.0000000  4.9162000  2
  13289  13283  13282  13290     1  0.0000000  0.6024960  3
  13289  13283  13284  13300     1  0.0000000  4.9162000  2
  13289  13283  13284  13300     1  0.0000000  0.6024960  3
  13290  13282  13279  13291     1  0.0000000  4.9162000  2
  13290  13282  13279  13291     1  0.0000000  0.6024960  3
  13291  13279  13278  13292     1  0.0000000  0.6508444  3
  13291  13279  13278  13300     1  0.0000000  4.9162000  2
  13291  13279  13278  13300     1  0.0000000  0.6024960  3
  13298  13292  13278  13300     1  0.0000000  4.9162000  2
  13298  13292  13278  13300     1  0.0000000  0.6024960  3
  13301  13302  13305  13306     1  180.0000771  0.8368000  1
  13301  13302  13305  13306     1  180.0000771  1.0460000  2
  13301  13302  13305  13306     1  0.0000000  0.7531200  3
  13301  13302  13305  13313     1  0.0000000  0.6508444  3
  13301  13323  13307  13311     1  180.0000771  5.6484000  1
  13301  13323  13307  13311     1  180.0000771  3.5564000  2
  13301  13323  13307  13311     1  0.0000000  0.4184000  3
  13301  13323  13307  13306     1  180.0000771  0.4184000  2
  13301  13323  13307  13306     1  0.0000000  1.6024720  3
  13302  13305  13306  13307     1  180.0000771  0.8368000  1
  13302  13305  13306  13307     1  180.0000771  1.0460000  2
  13302  13305  13306  13307     1  0.0000000  0.7531200  3
  13302  13305  13306  13312     1  0.0000000  0.6508444  3
  13302  13301  13315  13321     1  0.0000000  0.6508444  3
  13302  13301  13323  13307     1  180.0000771  0.4184000  2
  13302  13301  13323  13307     1  0.0000000  1.6024720  3
  13305  13306  13307  13311     1  0.0000000  0.6508444  3
  13305  13306  13307  13323     1  0.0000000  0.6508444  3
  13305  13302  13301  13315     1  180.0000771  0.8368000  1
  13305  13302  13301  13315     1  180.0000771  1.0460000  2
  13305  13302  13301  13315     1  0.0000000  0.7531200  3
  13305  13302  13301  13323     1  0.0000000  0.6508444  3
  13306  13305  13302  13314     1  0.0000000  0.6508444  3
  13307  13323  13301  13315     1  180.0000771  0.4184000  2
  13307  13323  13301  13315     1  0.0000000  1.6024720  3
  13307  13306  13305  13313     1  0.0000000  0.6508444  3
  13311  13307  13306  13312     1  0.0000000  4.9162000  2
  13311  13307  13306  13312     1  0.0000000  0.6024960  3
  13312  13306  13307  13323     1  0.0000000  4.9162000  2
  13312  13306  13307  13323     1  0.0000000  0.6024960  3
  13312  13306  13305  13313     1  0.0000000  4.9162000  2
  13312  13306  13305  13313     1  0.0000000  0.6024960  3
  13313  13305  13302  13314     1  0.0000000  4.9162000  2
  13313  13305  13302  13314     1  0.0000000  0.6024960  3
  13314  13302  13301  13315     1  0.0000000  0.6508444  3
  13314  13302  13301  13323     1  0.0000000  4.9162000  2
  13314  13302  13301  13323     1  0.0000000  0.6024960  3
  13321  13315  13301  13323     1  0.0000000  4.9162000  2
  13321  13315  13301  13323     1  0.0000000  0.6024960  3
  13324  13325  13328  13329     1  180.0000771  0.8368000  1
  13324  13325  13328  13329     1  180.0000771  1.0460000  2
  13324  13325  13328  13329     1  0.0000000  0.7531200  3
  13324  13325  13328  13336     1  0.0000000  0.6508444  3
  13324  13346  13330  13329     1  180.0000771  0.4184000  2
  13324  13346  13330  13329     1  0.0000000  1.6024720  3
  13324  13346  13330  13334     1  180.0000771  5.6484000  1
  13324  13346  13330  13334     1  180.0000771  3.5564000  2
  13324  13346  13330  13334     1  0.0000000  0.4184000  3
  13325  13324  13338  13344     1  0.0000000  0.6508444  3
  13325  13324  13346  13330     1  180.0000771  0.4184000  2
  13325  13324  13346  13330     1  0.0000000  1.6024720  3
  13325  13328  13329  13330     1  180.0000771  0.8368000  1
  13325  13328  13329  13330     1  180.0000771  1.0460000  2
  13325  13328  13329  13330     1  0.0000000  0.7531200  3
  13325  13328  13329  13335     1  0.0000000  0.6508444  3
  13328  13325  13324  13338     1  180.0000771  0.8368000  1
  13328  13325  13324  13338     1  180.0000771  1.0460000  2
  13328  13325  13324  13338     1  0.0000000  0.7531200  3
  13328  13325  13324  13346     1  0.0000000  0.6508444  3
  13328  13329  13330  13334     1  0.0000000  0.6508444  3
  13328  13329  13330  13346     1  0.0000000  0.6508444  3
  13329  13328  13325  13337     1  0.0000000  0.6508444  3
  13330  13329  13328  13336     1  0.0000000  0.6508444  3
  13330  13346  13324  13338     1  180.0000771  0.4184000  2
  13330  13346  13324  13338     1  0.0000000  1.6024720  3
  13334  13330  13329  13335     1  0.0000000  4.9162000  2
  13334  13330  13329  13335     1  0.0000000  0.6024960  3
  13335  13329  13328  13336     1  0.0000000  4.9162000  2
  13335  13329  13328  13336     1  0.0000000  0.6024960  3
  13335  13329  13330  13346     1  0.0000000  4.9162000  2
  13335  13329  13330  13346     1  0.0000000  0.6024960  3
  13336  13328  13325  13337     1  0.0000000  4.9162000  2
  13336  13328  13325  13337     1  0.0000000  0.6024960  3
  13337  13325  13324  13338     1  0.0000000  0.6508444  3
  13337  13325  13324  13346     1  0.0000000  4.9162000  2
  13337  13325  13324  13346     1  0.0000000  0.6024960  3
  13344  13338  13324  13346     1  0.0000000  4.9162000  2
  13344  13338  13324  13346     1  0.0000000  0.6024960  3
  13347  13348  13351  13352     1  180.0000771  0.8368000  1
  13347  13348  13351  13352     1  180.0000771  1.0460000  2
  13347  13348  13351  13352     1  0.0000000  0.7531200  3
  13347  13348  13351  13359     1  0.0000000  0.6508444  3
  13347  13369  13353  13357     1  180.0000771  5.6484000  1
  13347  13369  13353  13357     1  180.0000771  3.5564000  2
  13347  13369  13353  13357     1  0.0000000  0.4184000  3
  13347  13369  13353  13352     1  180.0000771  0.4184000  2
  13347  13369  13353  13352     1  0.0000000  1.6024720  3
  13348  13351  13352  13353     1  180.0000771  0.8368000  1
  13348  13351  13352  13353     1  180.0000771  1.0460000  2
  13348  13351  13352  13353     1  0.0000000  0.7531200  3
  13348  13351  13352  13358     1  0.0000000  0.6508444  3
  13348  13347  13361  13367     1  0.0000000  0.6508444  3
  13348  13347  13369  13353     1  180.0000771  0.4184000  2
  13348  13347  13369  13353     1  0.0000000  1.6024720  3
  13351  13352  13353  13357     1  0.0000000  0.6508444  3
  13351  13352  13353  13369     1  0.0000000  0.6508444  3
  13351  13348  13347  13361     1  180.0000771  0.8368000  1
  13351  13348  13347  13361     1  180.0000771  1.0460000  2
  13351  13348  13347  13361     1  0.0000000  0.7531200  3
  13351  13348  13347  13369     1  0.0000000  0.6508444  3
  13352  13351  13348  13360     1  0.0000000  0.6508444  3
  13353  13369  13347  13361     1  180.0000771  0.4184000  2
  13353  13369  13347  13361     1  0.0000000  1.6024720  3
  13353  13352  13351  13359     1  0.0000000  0.6508444  3
  13357  13353  13352  13358     1  0.0000000  4.9162000  2
  13357  13353  13352  13358     1  0.0000000  0.6024960  3
  13358  13352  13353  13369     1  0.0000000  4.9162000  2
  13358  13352  13353  13369     1  0.0000000  0.6024960  3
  13358  13352  13351  13359     1  0.0000000  4.9162000  2
  13358  13352  13351  13359     1  0.0000000  0.6024960  3
  13359  13351  13348  13360     1  0.0000000  4.9162000  2
  13359  13351  13348  13360     1  0.0000000  0.6024960  3
  13360  13348  13347  13361     1  0.0000000  0.6508444  3
  13360  13348  13347  13369     1  0.0000000  4.9162000  2
  13360  13348  13347  13369     1  0.0000000  0.6024960  3
  13367  13361  13347  13369     1  0.0000000  4.9162000  2
  13367  13361  13347  13369     1  0.0000000  0.6024960  3
  13370  13371  13374  13375     1  180.0000771  0.8368000  1
  13370  13371  13374  13375     1  180.0000771  1.0460000  2
  13370  13371  13374  13375     1  0.0000000  0.7531200  3
  13370  13371  13374  13382     1  0.0000000  0.6508444  3
  13370  13392  13376  13375     1  180.0000771  0.4184000  2
  13370  13392  13376  13375     1  0.0000000  1.6024720  3
  13370  13392  13376  13380     1  180.0000771  5.6484000  1
  13370  13392  13376  13380     1  180.0000771  3.5564000  2
  13370  13392  13376  13380     1  0.0000000  0.4184000  3
  13371  13370  13384  13390     1  0.0000000  0.6508444  3
  13371  13370  13392  13376     1  180.0000771  0.4184000  2
  13371  13370  13392  13376     1  0.0000000  1.6024720  3
  13371  13374  13375  13376     1  180.0000771  0.8368000  1
  13371  13374  13375  13376     1  180.0000771  1.0460000  2
  13371  13374  13375  13376     1  0.0000000  0.7531200  3
  13371  13374  13375  13381     1  0.0000000  0.6508444  3
  13374  13371  13370  13384     1  180.0000771  0.8368000  1
  13374  13371  13370  13384     1  180.0000771  1.0460000  2
  13374  13371  13370  13384     1  0.0000000  0.7531200  3
  13374  13371  13370  13392     1  0.0000000  0.6508444  3
  13374  13375  13376  13380     1  0.0000000  0.6508444  3
  13374  13375  13376  13392     1  0.0000000  0.6508444  3
  13375  13374  13371  13383     1  0.0000000  0.6508444  3
  13376  13375  13374  13382     1  0.0000000  0.6508444  3
  13376  13392  13370  13384     1  180.0000771  0.4184000  2
  13376  13392  13370  13384     1  0.0000000  1.6024720  3
  13380  13376  13375  13381     1  0.0000000  4.9162000  2
  13380  13376  13375  13381     1  0.0000000  0.6024960  3
  13381  13375  13374  13382     1  0.0000000  4.9162000  2
  13381  13375  13374  13382     1  0.0000000  0.6024960  3
  13381  13375  13376  13392     1  0.0000000  4.9162000  2
  13381  13375  13376  13392     1  0.0000000  0.6024960  3
  13382  13374  13371  13383     1  0.0000000  4.9162000  2
  13382  13374  13371  13383     1  0.0000000  0.6024960  3
  13383  13371  13370  13384     1  0.0000000  0.6508444  3
  13383  13371  13370  13392     1  0.0000000  4.9162000  2
  13383  13371  13370  13392     1  0.0000000  0.6024960  3
  13390  13384  13370  13392     1  0.0000000  4.9162000  2
  13390  13384  13370  13392     1  0.0000000  0.6024960  3
  13393  13394  13397  13398     1  180.0000771  0.8368000  1
  13393  13394  13397  13398     1  180.0000771  1.0460000  2
  13393  13394  13397  13398     1  0.0000000  0.7531200  3
  13393  13394  13397  13405     1  0.0000000  0.6508444  3
  13393  13415  13399  13403     1  180.0000771  5.6484000  1
  13393  13415  13399  13403     1  180.0000771  3.5564000  2
  13393  13415  13399  13403     1  0.0000000  0.4184000  3
  13393  13415  13399  13398     1  180.0000771  0.4184000  2
  13393  13415  13399  13398     1  0.0000000  1.6024720  3
  13394  13397  13398  13399     1  180.0000771  0.8368000  1
  13394  13397  13398  13399     1  180.0000771  1.0460000  2
  13394  13397  13398  13399     1  0.0000000  0.7531200  3
  13394  13397  13398  13404     1  0.0000000  0.6508444  3
  13394  13393  13407  13413     1  0.0000000  0.6508444  3
  13394  13393  13415  13399     1  180.0000771  0.4184000  2
  13394  13393  13415  13399     1  0.0000000  1.6024720  3
  13397  13398  13399  13403     1  0.0000000  0.6508444  3
  13397  13398  13399  13415     1  0.0000000  0.6508444  3
  13397  13394  13393  13407     1  180.0000771  0.8368000  1
  13397  13394  13393  13407     1  180.0000771  1.0460000  2
  13397  13394  13393  13407     1  0.0000000  0.7531200  3
  13397  13394  13393  13415     1  0.0000000  0.6508444  3
  13398  13397  13394  13406     1  0.0000000  0.6508444  3
  13399  13415  13393  13407     1  180.0000771  0.4184000  2
  13399  13415  13393  13407     1  0.0000000  1.6024720  3
  13399  13398  13397  13405     1  0.0000000  0.6508444  3
  13403  13399  13398  13404     1  0.0000000  4.9162000  2
  13403  13399  13398  13404     1  0.0000000  0.6024960  3
  13404  13398  13399  13415     1  0.0000000  4.9162000  2
  13404  13398  13399  13415     1  0.0000000  0.6024960  3
  13404  13398  13397  13405     1  0.0000000  4.9162000  2
  13404  13398  13397  13405     1  0.0000000  0.6024960  3
  13405  13397  13394  13406     1  0.0000000  4.9162000  2
  13405  13397  13394  13406     1  0.0000000  0.6024960  3
  13406  13394  13393  13407     1  0.0000000  0.6508444  3
  13406  13394  13393  13415     1  0.0000000  4.9162000  2
  13406  13394  13393  13415     1  0.0000000  0.6024960  3
  13413  13407  13393  13415     1  0.0000000  4.9162000  2
  13413  13407  13393  13415     1  0.0000000  0.6024960  3
  13416  13417  13420  13421     1  180.0000771  0.8368000  1
  13416  13417  13420  13421     1  180.0000771  1.0460000  2
  13416  13417  13420  13421     1  0.0000000  0.7531200  3
  13416  13417  13420  13428     1  0.0000000  0.6508444  3
  13416  13438  13422  13421     1  180.0000771  0.4184000  2
  13416  13438  13422  13421     1  0.0000000  1.6024720  3
  13416  13438  13422  13426     1  180.0000771  5.6484000  1
  13416  13438  13422  13426     1  180.0000771  3.5564000  2
  13416  13438  13422  13426     1  0.0000000  0.4184000  3
  13417  13416  13430  13436     1  0.0000000  0.6508444  3
  13417  13416  13438  13422     1  180.0000771  0.4184000  2
  13417  13416  13438  13422     1  0.0000000  1.6024720  3
  13417  13420  13421  13422     1  180.0000771  0.8368000  1
  13417  13420  13421  13422     1  180.0000771  1.0460000  2
  13417  13420  13421  13422     1  0.0000000  0.7531200  3
  13417  13420  13421  13427     1  0.0000000  0.6508444  3
  13420  13417  13416  13430     1  180.0000771  0.8368000  1
  13420  13417  13416  13430     1  180.0000771  1.0460000  2
  13420  13417  13416  13430     1  0.0000000  0.7531200  3
  13420  13417  13416  13438     1  0.0000000  0.6508444  3
  13420  13421  13422  13426     1  0.0000000  0.6508444  3
  13420  13421  13422  13438     1  0.0000000  0.6508444  3
  13421  13420  13417  13429     1  0.0000000  0.6508444  3
  13422  13421  13420  13428     1  0.0000000  0.6508444  3
  13422  13438  13416  13430     1  180.0000771  0.4184000  2
  13422  13438  13416  13430     1  0.0000000  1.6024720  3
  13426  13422  13421  13427     1  0.0000000  4.9162000  2
  13426  13422  13421  13427     1  0.0000000  0.6024960  3
  13427  13421  13420  13428     1  0.0000000  4.9162000  2
  13427  13421  13420  13428     1  0.0000000  0.6024960  3
  13427  13421  13422  13438     1  0.0000000  4.9162000  2
  13427  13421  13422  13438     1  0.0000000  0.6024960  3
  13428  13420  13417  13429     1  0.0000000  4.9162000  2
  13428  13420  13417  13429     1  0.0000000  0.6024960  3
  13429  13417  13416  13430     1  0.0000000  0.6508444  3
  13429  13417  13416  13438     1  0.0000000  4.9162000  2
  13429  13417  13416  13438     1  0.0000000  0.6024960  3
  13436  13430  13416  13438     1  0.0000000  4.9162000  2
  13436  13430  13416  13438     1  0.0000000  0.6024960  3
  13439  13440  13443  13444     1  180.0000771  0.8368000  1
  13439  13440  13443  13444     1  180.0000771  1.0460000  2
  13439  13440  13443  13444     1  0.0000000  0.7531200  3
  13439  13440  13443  13451     1  0.0000000  0.6508444  3
  13439  13461  13445  13449     1  180.0000771  5.6484000  1
  13439  13461  13445  13449     1  180.0000771  3.5564000  2
  13439  13461  13445  13449     1  0.0000000  0.4184000  3
  13439  13461  13445  13444     1  180.0000771  0.4184000  2
  13439  13461  13445  13444     1  0.0000000  1.6024720  3
  13440  13443  13444  13445     1  180.0000771  0.8368000  1
  13440  13443  13444  13445     1  180.0000771  1.0460000  2
  13440  13443  13444  13445     1  0.0000000  0.7531200  3
  13440  13443  13444  13450     1  0.0000000  0.6508444  3
  13440  13439  13453  13459     1  0.0000000  0.6508444  3
  13440  13439  13461  13445     1  180.0000771  0.4184000  2
  13440  13439  13461  13445     1  0.0000000  1.6024720  3
  13443  13444  13445  13449     1  0.0000000  0.6508444  3
  13443  13444  13445  13461     1  0.0000000  0.6508444  3
  13443  13440  13439  13453     1  180.0000771  0.8368000  1
  13443  13440  13439  13453     1  180.0000771  1.0460000  2
  13443  13440  13439  13453     1  0.0000000  0.7531200  3
  13443  13440  13439  13461     1  0.0000000  0.6508444  3
  13444  13443  13440  13452     1  0.0000000  0.6508444  3
  13445  13461  13439  13453     1  180.0000771  0.4184000  2
  13445  13461  13439  13453     1  0.0000000  1.6024720  3
  13445  13444  13443  13451     1  0.0000000  0.6508444  3
  13449  13445  13444  13450     1  0.0000000  4.9162000  2
  13449  13445  13444  13450     1  0.0000000  0.6024960  3
  13450  13444  13445  13461     1  0.0000000  4.9162000  2
  13450  13444  13445  13461     1  0.0000000  0.6024960  3
  13450  13444  13443  13451     1  0.0000000  4.9162000  2
  13450  13444  13443  13451     1  0.0000000  0.6024960  3
  13451  13443  13440  13452     1  0.0000000  4.9162000  2
  13451  13443  13440  13452     1  0.0000000  0.6024960  3
  13452  13440  13439  13453     1  0.0000000  0.6508444  3
  13452  13440  13439  13461     1  0.0000000  4.9162000  2
  13452  13440  13439  13461     1  0.0000000  0.6024960  3
  13459  13453  13439  13461     1  0.0000000  4.9162000  2
  13459  13453  13439  13461     1  0.0000000  0.6024960  3
  13462  13463  13466  13467     1  180.0000771  0.8368000  1
  13462  13463  13466  13467     1  180.0000771  1.0460000  2
  13462  13463  13466  13467     1  0.0000000  0.7531200  3
  13462  13463  13466  13474     1  0.0000000  0.6508444  3
  13462  13484  13468  13467     1  180.0000771  0.4184000  2
  13462  13484  13468  13467     1  0.0000000  1.6024720  3
  13462  13484  13468  13472     1  180.0000771  5.6484000  1
  13462  13484  13468  13472     1  180.0000771  3.5564000  2
  13462  13484  13468  13472     1  0.0000000  0.4184000  3
  13463  13462  13476  13482     1  0.0000000  0.6508444  3
  13463  13462  13484  13468     1  180.0000771  0.4184000  2
  13463  13462  13484  13468     1  0.0000000  1.6024720  3
  13463  13466  13467  13468     1  180.0000771  0.8368000  1
  13463  13466  13467  13468     1  180.0000771  1.0460000  2
  13463  13466  13467  13468     1  0.0000000  0.7531200  3
  13463  13466  13467  13473     1  0.0000000  0.6508444  3
  13466  13463  13462  13476     1  180.0000771  0.8368000  1
  13466  13463  13462  13476     1  180.0000771  1.0460000  2
  13466  13463  13462  13476     1  0.0000000  0.7531200  3
  13466  13463  13462  13484     1  0.0000000  0.6508444  3
  13466  13467  13468  13472     1  0.0000000  0.6508444  3
  13466  13467  13468  13484     1  0.0000000  0.6508444  3
  13467  13466  13463  13475     1  0.0000000  0.6508444  3
  13468  13467  13466  13474     1  0.0000000  0.6508444  3
  13468  13484  13462  13476     1  180.0000771  0.4184000  2
  13468  13484  13462  13476     1  0.0000000  1.6024720  3
  13472  13468  13467  13473     1  0.0000000  4.9162000  2
  13472  13468  13467  13473     1  0.0000000  0.6024960  3
  13473  13467  13466  13474     1  0.0000000  4.9162000  2
  13473  13467  13466  13474     1  0.0000000  0.6024960  3
  13473  13467  13468  13484     1  0.0000000  4.9162000  2
  13473  13467  13468  13484     1  0.0000000  0.6024960  3
  13474  13466  13463  13475     1  0.0000000  4.9162000  2
  13474  13466  13463  13475     1  0.0000000  0.6024960  3
  13475  13463  13462  13476     1  0.0000000  0.6508444  3
  13475  13463  13462  13484     1  0.0000000  4.9162000  2
  13475  13463  13462  13484     1  0.0000000  0.6024960  3
  13482  13476  13462  13484     1  0.0000000  4.9162000  2
  13482  13476  13462  13484     1  0.0000000  0.6024960  3
  13485  13486  13489  13490     1  180.0000771  0.8368000  1
  13485  13486  13489  13490     1  180.0000771  1.0460000  2
  13485  13486  13489  13490     1  0.0000000  0.7531200  3
  13485  13486  13489  13497     1  0.0000000  0.6508444  3
  13485  13507  13491  13495     1  180.0000771  5.6484000  1
  13485  13507  13491  13495     1  180.0000771  3.5564000  2
  13485  13507  13491  13495     1  0.0000000  0.4184000  3
  13485  13507  13491  13490     1  180.0000771  0.4184000  2
  13485  13507  13491  13490     1  0.0000000  1.6024720  3
  13486  13489  13490  13491     1  180.0000771  0.8368000  1
  13486  13489  13490  13491     1  180.0000771  1.0460000  2
  13486  13489  13490  13491     1  0.0000000  0.7531200  3
  13486  13489  13490  13496     1  0.0000000  0.6508444  3
  13486  13485  13499  13505     1  0.0000000  0.6508444  3
  13486  13485  13507  13491     1  180.0000771  0.4184000  2
  13486  13485  13507  13491     1  0.0000000  1.6024720  3
  13489  13490  13491  13495     1  0.0000000  0.6508444  3
  13489  13490  13491  13507     1  0.0000000  0.6508444  3
  13489  13486  13485  13499     1  180.0000771  0.8368000  1
  13489  13486  13485  13499     1  180.0000771  1.0460000  2
  13489  13486  13485  13499     1  0.0000000  0.7531200  3
  13489  13486  13485  13507     1  0.0000000  0.6508444  3
  13490  13489  13486  13498     1  0.0000000  0.6508444  3
  13491  13507  13485  13499     1  180.0000771  0.4184000  2
  13491  13507  13485  13499     1  0.0000000  1.6024720  3
  13491  13490  13489  13497     1  0.0000000  0.6508444  3
  13495  13491  13490  13496     1  0.0000000  4.9162000  2
  13495  13491  13490  13496     1  0.0000000  0.6024960  3
  13496  13490  13491  13507     1  0.0000000  4.9162000  2
  13496  13490  13491  13507     1  0.0000000  0.6024960  3
  13496  13490  13489  13497     1  0.0000000  4.9162000  2
  13496  13490  13489  13497     1  0.0000000  0.6024960  3
  13497  13489  13486  13498     1  0.0000000  4.9162000  2
  13497  13489  13486  13498     1  0.0000000  0.6024960  3
  13498  13486  13485  13499     1  0.0000000  0.6508444  3
  13498  13486  13485  13507     1  0.0000000  4.9162000  2
  13498  13486  13485  13507     1  0.0000000  0.6024960  3
  13505  13499  13485  13507     1  0.0000000  4.9162000  2
  13505  13499  13485  13507     1  0.0000000  0.6024960  3
      1      2      8      9     1  0.0000000  1.0460000  1
      1      2      8      9     1  0.0000000  0.0000000  3
      1      2      8     10     1  0.0000000  1.0460000  1
      1      2      8     10     1  0.0000000  0.0000000  3
      1      5     11     12     1  0.0000000  1.0460000  1
      1      5     11     12     1  0.0000000  0.0000000  3
      1      5     11     13     1  0.0000000  1.0460000  1
      1      5     11     13     1  0.0000000  0.0000000  3
      2      1      5      6     1  0.0000000  1.6038667  3
      2      1      5      7     1  0.0000000  1.6038667  3
      2      8     14     15     1  0.0000000  0.6508444  3
      2      8     14     16     1  0.0000000  0.6508444  3
      5      1      2      3     1  0.0000000  1.6038667  3
      3      2      8     14     1  0.0000000  0.6508444  3
      3      2      8      9     1  0.0000000  0.6508444  3
      3      2      8     10     1  0.0000000  0.6508444  3
      5      1      2      4     1  0.0000000  1.6038667  3
      4      2      8     14     1  0.0000000  0.6508444  3
      4      2      8      9     1  0.0000000  0.6508444  3
      4      2      8     10     1  0.0000000  0.6508444  3
      5     11     17     18     1  0.0000000  0.6508444  3
      5     11     17     19     1  0.0000000  0.6508444  3
      6      5     11     17     1  0.0000000  0.6508444  3
      6      5     11     12     1  0.0000000  0.6508444  3
      6      5     11     13     1  0.0000000  0.6508444  3
      7      5     11     17     1  0.0000000  0.6508444  3
      7      5     11     12     1  0.0000000  0.6508444  3
      7      5     11     13     1  0.0000000  0.6508444  3
      8     14     20     58     1  0.0000000  0.6508444  3
      9      8     14     20     1  0.0000000  0.6508444  3
      9      8     14     15     1  0.0000000  0.6508444  3
      9      8     14     16     1  0.0000000  0.6508444  3
     10      8     14     20     1  0.0000000  0.6508444  3
     10      8     14     15     1  0.0000000  0.6508444  3
     10      8     14     16     1  0.0000000  0.6508444  3
     11     17     21     59     1  0.0000000  0.6508444  3
     12     11     17     21     1  0.0000000  0.6508444  3
     12     11     17     18     1  0.0000000  0.6508444  3
     12     11     17     19     1  0.0000000  0.6508444  3
     13     11     17     21     1  0.0000000  0.6508444  3
     13     11     17     18     1  0.0000000  0.6508444  3
     13     11     17     19     1  0.0000000  0.6508444  3
     14     20     28     29     1  0.0000000  0.6508444  3
     14     20     28     30     1  0.0000000  0.6508444  3
     14     20     31     32     1  0.0000000  0.6508444  3
     14     20     31     33     1  0.0000000  0.6508444  3
     15     14     20     28     1  0.0000000  0.6508444  3
     15     14     20     31     1  0.0000000  0.6508444  3
     15     14     20     58     1  0.0000000  0.6508444  3
     16     14     20     28     1  0.0000000  0.6508444  3
     16     14     20     31     1  0.0000000  0.6508444  3
     16     14     20     58     1  0.0000000  0.6508444  3
     17     21     22     23     1  0.0000000  0.6508444  3
     17     21     22     24     1  0.0000000  0.6508444  3
     17     21     25     26     1  0.0000000  0.6508444  3
     17     21     25     27     1  0.0000000  0.6508444  3
     18     17     21     22     1  0.0000000  0.6508444  3
     18     17     21     25     1  0.0000000  0.6508444  3
     18     17     21     59     1  0.0000000  0.6508444  3
     19     17     21     22     1  0.0000000  0.6508444  3
     19     17     21     25     1  0.0000000  0.6508444  3
     19     17     21     59     1  0.0000000  0.6508444  3
     20     28     40     41     1  0.0000000  0.6508444  3
     20     28     40     42     1  0.0000000  0.6508444  3
     20     31     43     44     1  0.0000000  0.6508444  3
     20     31     43     45     1  0.0000000  0.6508444  3
     21     22     34     35     1  0.0000000  0.6508444  3
     21     22     34     36     1  0.0000000  0.6508444  3
     21     25     37     38     1  0.0000000  0.6508444  3
     21     25     37     39     1  0.0000000  0.6508444  3
     22     21     25     26     1  0.0000000  0.6508444  3
     22     21     25     27     1  0.0000000  0.6508444  3
     22     34     55     56     1  0.0000000  0.6694400  3
     22     34     55     57     1  0.0000000  0.6694400  3
     23     22     21     25     1  0.0000000  0.6508444  3
     23     22     21     59     1  0.0000000  0.6508444  3
     23     22     34     55     1  0.0000000  0.6508444  3
     23     22     34     35     1  0.0000000  0.6508444  3
     23     22     34     36     1  0.0000000  0.6508444  3
     24     22     21     25     1  0.0000000  0.6508444  3
     24     22     21     59     1  0.0000000  0.6508444  3
     24     22     34     55     1  0.0000000  0.6508444  3
     24     22     34     35     1  0.0000000  0.6508444  3
     24     22     34     36     1  0.0000000  0.6508444  3
     25     37     52     53     1  0.0000000  0.6694400  3
     25     37     52     54     1  0.0000000  0.6694400  3
     26     25     21     59     1  0.0000000  0.6508444  3
     26     25     37     52     1  0.0000000  0.6508444  3
     26     25     37     38     1  0.0000000  0.6508444  3
     26     25     37     39     1  0.0000000  0.6508444  3
     27     25     21     59     1  0.0000000  0.6508444  3
     27     25     37     52     1  0.0000000  0.6508444  3
     27     25     37     38     1  0.0000000  0.6508444  3
     27     25     37     39     1  0.0000000  0.6508444  3
     28     20     31     32     1  0.0000000  0.6508444  3
     28     20     31     33     1  0.0000000  0.6508444  3
     28     40     49     50     1  0.0000000  0.6694400  3
     28     40     49     51     1  0.0000000  0.6694400  3
     29     28     20     31     1  0.0000000  0.6508444  3
     29     28     20     58     1  0.0000000  0.6508444  3
     29     28     40     49     1  0.0000000  0.6508444  3
     29     28     40     41     1  0.0000000  0.6508444  3
     29     28     40     42     1  0.0000000  0.6508444  3
     30     28     20     31     1  0.0000000  0.6508444  3
     30     28     20     58     1  0.0000000  0.6508444  3
     30     28     40     49     1  0.0000000  0.6508444  3
     30     28     40     41     1  0.0000000  0.6508444  3
     30     28     40     42     1  0.0000000  0.6508444  3
     31     43     46     47     1  0.0000000  0.6694400  3
     31     43     46     48     1  0.0000000  0.6694400  3
     32     31     20     58     1  0.0000000  0.6508444  3
     32     31     43     46     1  0.0000000  0.6508444  3
     32     31     43     44     1  0.0000000  0.6508444  3
     32     31     43     45     1  0.0000000  0.6508444  3
     33     31     20     58     1  0.0000000  0.6508444  3
     33     31     43     46     1  0.0000000  0.6508444  3
     33     31     43     44     1  0.0000000  0.6508444  3
     33     31     43     45     1  0.0000000  0.6508444  3
     34     22     21     59     1  0.0000000  0.6508444  3
     35     34     55    178     1  0.0000000  1.0460000  1
     35     34     55    178     1  0.0000000  0.0000000  3
     35     34     55     56     1  0.0000000  0.6276000  3
     35     34     55     57     1  0.0000000  0.6276000  3
     36     34     55    178     1  0.0000000  1.0460000  1
     36     34     55    178     1  0.0000000  0.0000000  3
     36     34     55     56     1  0.0000000  0.6276000  3
     36     34     55     57     1  0.0000000  0.6276000  3
     37     25     21     59     1  0.0000000  0.6508444  3
     38     37     52    148     1  0.0000000  1.0460000  1
     38     37     52    148     1  0.0000000  0.0000000  3
     38     37     52     53     1  0.0000000  0.6276000  3
     38     37     52     54     1  0.0000000  0.6276000  3
     39     37     52    148     1  0.0000000  1.0460000  1
     39     37     52    148     1  0.0000000  0.0000000  3
     39     37     52     53     1  0.0000000  0.6276000  3
     39     37     52     54     1  0.0000000  0.6276000  3
     40     28     20     58     1  0.0000000  0.6508444  3
     41     40     49    118     1  0.0000000  1.0460000  1
     41     40     49    118     1  0.0000000  0.0000000  3
     41     40     49     50     1  0.0000000  0.6276000  3
     41     40     49     51     1  0.0000000  0.6276000  3
     42     40     49    118     1  0.0000000  1.0460000  1
     42     40     49    118     1  0.0000000  0.0000000  3
     42     40     49     50     1  0.0000000  0.6276000  3
     42     40     49     51     1  0.0000000  0.6276000  3
     43     31     20     58     1  0.0000000  0.6508444  3
     44     43     46     88     1  0.0000000  1.0460000  1
     44     43     46     88     1  0.0000000  0.0000000  3
     44     43     46     47     1  0.0000000  0.6276000  3
     44     43     46     48     1  0.0000000  0.6276000  3
     45     43     46     88     1  0.0000000  1.0460000  1
     45     43     46     88     1  0.0000000  0.0000000  3
     45     43     46     47     1  0.0000000  0.6276000  3
     45     43     46     48     1  0.0000000  0.6276000  3
     46     88     79     80     1  0.0000000  1.6038667  3
     46     88     79     81     1  0.0000000  1.6038667  3
     47     46     88     79     1  0.0000000  1.6038667  3
     48     46     88     79     1  0.0000000  1.6038667  3
     49    118    109    110     1  0.0000000  1.6038667  3
     49    118    109    111     1  0.0000000  1.6038667  3
     50     49    118    109     1  0.0000000  1.6038667  3
     51     49    118    109     1  0.0000000  1.6038667  3
     52    148    139    140     1  0.0000000  1.6038667  3
     52    148    139    141     1  0.0000000  1.6038667  3
     53     52    148    139     1  0.0000000  1.6038667  3
     54     52    148    139     1  0.0000000  1.6038667  3
     55    178    169    170     1  0.0000000  1.6038667  3
     55    178    169    171     1  0.0000000  1.6038667  3
     56     55    178    169     1  0.0000000  1.6038667  3
     57     55    178    169     1  0.0000000  1.6038667  3
     60     61     73     74     1  0.0000000  0.6508444  3
     60     61     73     75     1  0.0000000  0.6508444  3
     60     64     76     77     1  0.0000000  0.6508444  3
     60     64     76     78     1  0.0000000  0.6508444  3
     60     67     70     71     1  0.0000000  0.6508444  3
     60     67     70     72     1  0.0000000  0.6508444  3
     61     60     64     65     1  0.0000000  0.6508444  3
     61     60     64     66     1  0.0000000  0.6508444  3
     61     60     67     68     1  0.0000000  0.6508444  3
     61     60     67     69     1  0.0000000  0.6508444  3
     61     73     85     86     1  0.0000000  0.6508444  3
     61     73     85     87     1  0.0000000  0.6508444  3
     62     61     60     64     1  0.0000000  0.6508444  3
     62     61     60     67     1  0.0000000  0.6508444  3
     62     61     60     89     1  0.0000000  0.6508444  3
     62     61     73     85     1  0.0000000  0.6508444  3
     62     61     73     74     1  0.0000000  0.6508444  3
     62     61     73     75     1  0.0000000  0.6508444  3
     63     61     60     64     1  0.0000000  0.6508444  3
     63     61     60     67     1  0.0000000  0.6508444  3
     63     61     60     89     1  0.0000000  0.6508444  3
     63     61     73     85     1  0.0000000  0.6508444  3
     63     61     73     74     1  0.0000000  0.6508444  3
     63     61     73     75     1  0.0000000  0.6508444  3
     64     60     67     68     1  0.0000000  0.6508444  3
     64     60     67     69     1  0.0000000  0.6508444  3
     64     76     82     83     1  0.0000000  0.6508444  3
     64     76     82     84     1  0.0000000  0.6508444  3
     65     64     60     67     1  0.0000000  0.6508444  3
     65     64     60     89     1  0.0000000  0.6508444  3
     65     64     76     82     1  0.0000000  0.6508444  3
     65     64     76     77     1  0.0000000  0.6508444  3
     65     64     76     78     1  0.0000000  0.6508444  3
     66     64     60     67     1  0.0000000  0.6508444  3
     66     64     60     89     1  0.0000000  0.6508444  3
     66     64     76     82     1  0.0000000  0.6508444  3
     66     64     76     77     1  0.0000000  0.6508444  3
     66     64     76     78     1  0.0000000  0.6508444  3
     67     70     79     80     1  0.0000000  0.6508444  3
     67     70     79     81     1  0.0000000  0.6508444  3
     68     67     60     89     1  0.0000000  0.6508444  3
     68     67     70     79     1  0.0000000  0.6508444  3
     68     67     70     71     1  0.0000000  0.6508444  3
     68     67     70     72     1  0.0000000  0.6508444  3
     69     67     60     89     1  0.0000000  0.6508444  3
     69     67     70     79     1  0.0000000  0.6508444  3
     69     67     70     71     1  0.0000000  0.6508444  3
     69     67     70     72     1  0.0000000  0.6508444  3
     70     67     60     89     1  0.0000000  0.6508444  3
     71     70     79     88     1  0.0000000  1.0460000  1
     71     70     79     88     1  0.0000000  0.0000000  3
     71     70     79     80     1  0.0000000  0.6508444  3
     71     70     79     81     1  0.0000000  0.6508444  3
     72     70     79     88     1  0.0000000  1.0460000  1
     72     70     79     88     1  0.0000000  0.0000000  3
     72     70     79     80     1  0.0000000  0.6508444  3
     72     70     79     81     1  0.0000000  0.6508444  3
     73     61     60     89     1  0.0000000  0.6508444  3
     74     73     85    238     1  0.0000000  1.0460000  1
     74     73     85    238     1  0.0000000  0.0000000  3
     74     73     85     86     1  0.0000000  0.6508444  3
     74     73     85     87     1  0.0000000  0.6508444  3
     75     73     85    238     1  0.0000000  1.0460000  1
     75     73     85    238     1  0.0000000  0.0000000  3
     75     73     85     86     1  0.0000000  0.6508444  3
     75     73     85     87     1  0.0000000  0.6508444  3
     76     64     60     89     1  0.0000000  0.6508444  3
     77     76     82    208     1  0.0000000  1.0460000  1
     77     76     82    208     1  0.0000000  0.0000000  3
     77     76     82     83     1  0.0000000  0.6508444  3
     77     76     82     84     1  0.0000000  0.6508444  3
     78     76     82    208     1  0.0000000  1.0460000  1
     78     76     82    208     1  0.0000000  0.0000000  3
     78     76     82     83     1  0.0000000  0.6508444  3
     78     76     82     84     1  0.0000000  0.6508444  3
     82    208    199    200     1  0.0000000  1.6038667  3
     82    208    199    201     1  0.0000000  1.6038667  3
     83     82    208    199     1  0.0000000  1.6038667  3
     84     82    208    199     1  0.0000000  1.6038667  3
     85    238    229    230     1  0.0000000  1.6038667  3
     85    238    229    231     1  0.0000000  1.6038667  3
     86     85    238    229     1  0.0000000  1.6038667  3
     87     85    238    229     1  0.0000000  1.6038667  3
     90     91    103    104     1  0.0000000  0.6508444  3
     90     91    103    105     1  0.0000000  0.6508444  3
     90     94    106    107     1  0.0000000  0.6508444  3
     90     94    106    108     1  0.0000000  0.6508444  3
     90     97    100    101     1  0.0000000  0.6508444  3
     90     97    100    102     1  0.0000000  0.6508444  3
     91     90     94     95     1  0.0000000  0.6508444  3
     91     90     94     96     1  0.0000000  0.6508444  3
     91     90     97     98     1  0.0000000  0.6508444  3
     91     90     97     99     1  0.0000000  0.6508444  3
     91    103    115    116     1  0.0000000  0.6508444  3
     91    103    115    117     1  0.0000000  0.6508444  3
     92     91     90     94     1  0.0000000  0.6508444  3
     92     91     90     97     1  0.0000000  0.6508444  3
     92     91     90    119     1  0.0000000  0.6508444  3
     92     91    103    115     1  0.0000000  0.6508444  3
     92     91    103    104     1  0.0000000  0.6508444  3
     92     91    103    105     1  0.0000000  0.6508444  3
     93     91     90     94     1  0.0000000  0.6508444  3
     93     91     90     97     1  0.0000000  0.6508444  3
     93     91     90    119     1  0.0000000  0.6508444  3
     93     91    103    115     1  0.0000000  0.6508444  3
     93     91    103    104     1  0.0000000  0.6508444  3
     93     91    103    105     1  0.0000000  0.6508444  3
     94     90     97     98     1  0.0000000  0.6508444  3
     94     90     97     99     1  0.0000000  0.6508444  3
     94    106    112    113     1  0.0000000  0.6508444  3
     94    106    112    114     1  0.0000000  0.6508444  3
     95     94     90     97     1  0.0000000  0.6508444  3
     95     94     90    119     1  0.0000000  0.6508444  3
     95     94    106    112     1  0.0000000  0.6508444  3
     95     94    106    107     1  0.0000000  0.6508444  3
     95     94    106    108     1  0.0000000  0.6508444  3
     96     94     90     97     1  0.0000000  0.6508444  3
     96     94     90    119     1  0.0000000  0.6508444  3
     96     94    106    112     1  0.0000000  0.6508444  3
     96     94    106    107     1  0.0000000  0.6508444  3
     96     94    106    108     1  0.0000000  0.6508444  3
     97    100    109    110     1  0.0000000  0.6508444  3
     97    100    109    111     1  0.0000000  0.6508444  3
     98     97     90    119     1  0.0000000  0.6508444  3
     98     97    100    109     1  0.0000000  0.6508444  3
     98     97    100    101     1  0.0000000  0.6508444  3
     98     97    100    102     1  0.0000000  0.6508444  3
     99     97     90    119     1  0.0000000  0.6508444  3
     99     97    100    109     1  0.0000000  0.6508444  3
     99     97    100    101     1  0.0000000  0.6508444  3
     99     97    100    102     1  0.0000000  0.6508444  3
    100     97     90    119     1  0.0000000  0.6508444  3
    101    100    109    118     1  0.0000000  1.0460000  1
    101    100    109    118     1  0.0000000  0.0000000  3
    101    100    109    110     1  0.0000000  0.6508444  3
    101    100    109    111     1  0.0000000  0.6508444  3
    102    100    109    118     1  0.0000000  1.0460000  1
    102    100    109    118     1  0.0000000  0.0000000  3
    102    100    109    110     1  0.0000000  0.6508444  3
    102    100    109    111     1  0.0000000  0.6508444  3
    103     91     90    119     1  0.0000000  0.6508444  3
    104    103    115    298     1  0.0000000  1.0460000  1
    104    103    115    298     1  0.0000000  0.0000000  3
    104    103    115    116     1  0.0000000  0.6508444  3
    104    103    115    117     1  0.0000000  0.6508444  3
    105    103    115    298     1  0.0000000  1.0460000  1
    105    103    115    298     1  0.0000000  0.0000000  3
    105    103    115    116     1  0.0000000  0.6508444  3
    105    103    115    117     1  0.0000000  0.6508444  3
    106     94     90    119     1  0.0000000  0.6508444  3
    107    106    112    268     1  0.0000000  1.0460000  1
    107    106    112    268     1  0.0000000  0.0000000  3
    107    106    112    113     1  0.0000000  0.6508444  3
    107    106    112    114     1  0.0000000  0.6508444  3
    108    106    112    268     1  0.0000000  1.0460000  1
    108    106    112    268     1  0.0000000  0.0000000  3
    108    106    112    113     1  0.0000000  0.6508444  3
    108    106    112    114     1  0.0000000  0.6508444  3
    112    268    259    260     1  0.0000000  1.6038667  3
    112    268    259    261     1  0.0000000  1.6038667  3
    113    112    268    259     1  0.0000000  1.6038667  3
    114    112    268    259     1  0.0000000  1.6038667  3
    115    298    289    290     1  0.0000000  1.6038667  3
    115    298    289    291     1  0.0000000  1.6038667  3
    116    115    298    289     1  0.0000000  1.6038667  3
    117    115    298    289     1  0.0000000  1.6038667  3
    120    121    133    134     1  0.0000000  0.6508444  3
    120    121    133    135     1  0.0000000  0.6508444  3
    120    124    136    137     1  0.0000000  0.6508444  3
    120    124    136    138     1  0.0000000  0.6508444  3
    120    127    130    131     1  0.0000000  0.6508444  3
    120    127    130    132     1  0.0000000  0.6508444  3
    121    120    124    125     1  0.0000000  0.6508444  3
    121    120    124    126     1  0.0000000  0.6508444  3
    121    120    127    128     1  0.0000000  0.6508444  3
    121    120    127    129     1  0.0000000  0.6508444  3
    121    133    145    146     1  0.0000000  0.6508444  3
    121    133    145    147     1  0.0000000  0.6508444  3
    122    121    120    124     1  0.0000000  0.6508444  3
    122    121    120    127     1  0.0000000  0.6508444  3
    122    121    120    149     1  0.0000000  0.6508444  3
    122    121    133    145     1  0.0000000  0.6508444  3
    122    121    133    134     1  0.0000000  0.6508444  3
    122    121    133    135     1  0.0000000  0.6508444  3
    123    121    120    124     1  0.0000000  0.6508444  3
    123    121    120    127     1  0.0000000  0.6508444  3
    123    121    120    149     1  0.0000000  0.6508444  3
    123    121    133    145     1  0.0000000  0.6508444  3
    123    121    133    134     1  0.0000000  0.6508444  3
    123    121    133    135     1  0.0000000  0.6508444  3
    124    120    127    128     1  0.0000000  0.6508444  3
    124    120    127    129     1  0.0000000  0.6508444  3
    124    136    142    143     1  0.0000000  0.6508444  3
    124    136    142    144     1  0.0000000  0.6508444  3
    125    124    120    127     1  0.0000000  0.6508444  3
    125    124    120    149     1  0.0000000  0.6508444  3
    125    124    136    142     1  0.0000000  0.6508444  3
    125    124    136    137     1  0.0000000  0.6508444  3
    125    124    136    138     1  0.0000000  0.6508444  3
    126    124    120    127     1  0.0000000  0.6508444  3
    126    124    120    149     1  0.0000000  0.6508444  3
    126    124    136    142     1  0.0000000  0.6508444  3
    126    124    136    137     1  0.0000000  0.6508444  3
    126    124    136    138     1  0.0000000  0.6508444  3
    127    130    139    140     1  0.0000000  0.6508444  3
    127    130    139    141     1  0.0000000  0.6508444  3
    128    127    120    149     1  0.0000000  0.6508444  3
    128    127    130    139     1  0.0000000  0.6508444  3
    128    127    130    131     1  0.0000000  0.6508444  3
    128    127    130    132     1  0.0000000  0.6508444  3
    129    127    120    149     1  0.0000000  0.6508444  3
    129    127    130    139     1  0.0000000  0.6508444  3
    129    127    130    131     1  0.0000000  0.6508444  3
    129    127    130    132     1  0.0000000  0.6508444  3
    130    127    120    149     1  0.0000000  0.6508444  3
    131    130    139    148     1  0.0000000  1.0460000  1
    131    130    139    148     1  0.0000000  0.0000000  3
    131    130    139    140     1  0.0000000  0.6508444  3
    131    130    139    141     1  0.0000000  0.6508444  3
    132    130    139    148     1  0.0000000  1.0460000  1
    132    130    139    148     1  0.0000000  0.0000000  3
    132    130    139    140     1  0.0000000  0.6508444  3
    132    130    139    141     1  0.0000000  0.6508444  3
    133    121    120    149     1  0.0000000  0.6508444  3
    134    133    145    358     1  0.0000000  1.0460000  1
    134    133    145    358     1  0.0000000  0.0000000  3
    134    133    145    146     1  0.0000000  0.6508444  3
    134    133    145    147     1  0.0000000  0.6508444  3
    135    133    145    358     1  0.0000000  1.0460000  1
    135    133    145    358     1  0.0000000  0.0000000  3
    135    133    145    146     1  0.0000000  0.6508444  3
    135    133    145    147     1  0.0000000  0.6508444  3
    136    124    120    149     1  0.0000000  0.6508444  3
    137    136    142    328     1  0.0000000  1.0460000  1
    137    136    142    328     1  0.0000000  0.0000000  3
    137    136    142    143     1  0.0000000  0.6508444  3
    137    136    142    144     1  0.0000000  0.6508444  3
    138    136    142    328     1  0.0000000  1.0460000  1
    138    136    142    328     1  0.0000000  0.0000000  3
    138    136    142    143     1  0.0000000  0.6508444  3
    138    136    142    144     1  0.0000000  0.6508444  3
    142    328    319    320     1  0.0000000  1.6038667  3
    142    328    319    321     1  0.0000000  1.6038667  3
    143    142    328    319     1  0.0000000  1.6038667  3
    144    142    328    319     1  0.0000000  1.6038667  3
    145    358    349    350     1  0.0000000  1.6038667  3
    145    358    349    351     1  0.0000000  1.6038667  3
    146    145    358    349     1  0.0000000  1.6038667  3
    147    145    358    349     1  0.0000000  1.6038667  3
    150    151    163    164     1  0.0000000  0.6508444  3
    150    151    163    165     1  0.0000000  0.6508444  3
    150    154    166    167     1  0.0000000  0.6508444  3
    150    154    166    168     1  0.0000000  0.6508444  3
    150    157    160    161     1  0.0000000  0.6508444  3
    150    157    160    162     1  0.0000000  0.6508444  3
    151    150    154    155     1  0.0000000  0.6508444  3
    151    150    154    156     1  0.0000000  0.6508444  3
    151    150    157    158     1  0.0000000  0.6508444  3
    151    150    157    159     1  0.0000000  0.6508444  3
    151    163    175    176     1  0.0000000  0.6508444  3
    151    163    175    177     1  0.0000000  0.6508444  3
    152    151    150    154     1  0.0000000  0.6508444  3
    152    151    150    157     1  0.0000000  0.6508444  3
    152    151    150    179     1  0.0000000  0.6508444  3
    152    151    163    175     1  0.0000000  0.6508444  3
    152    151    163    164     1  0.0000000  0.6508444  3
    152    151    163    165     1  0.0000000  0.6508444  3
    153    151    150    154     1  0.0000000  0.6508444  3
    153    151    150    157     1  0.0000000  0.6508444  3
    153    151    150    179     1  0.0000000  0.6508444  3
    153    151    163    175     1  0.0000000  0.6508444  3
    153    151    163    164     1  0.0000000  0.6508444  3
    153    151    163    165     1  0.0000000  0.6508444  3
    154    150    157    158     1  0.0000000  0.6508444  3
    154    150    157    159     1  0.0000000  0.6508444  3
    154    166    172    173     1  0.0000000  0.6508444  3
    154    166    172    174     1  0.0000000  0.6508444  3
    155    154    150    157     1  0.0000000  0.6508444  3
    155    154    150    179     1  0.0000000  0.6508444  3
    155    154    166    172     1  0.0000000  0.6508444  3
    155    154    166    167     1  0.0000000  0.6508444  3
    155    154    166    168     1  0.0000000  0.6508444  3
    156    154    150    157     1  0.0000000  0.6508444  3
    156    154    150    179     1  0.0000000  0.6508444  3
    156    154    166    172     1  0.0000000  0.6508444  3
    156    154    166    167     1  0.0000000  0.6508444  3
    156    154    166    168     1  0.0000000  0.6508444  3
    157    160    169    170     1  0.0000000  0.6508444  3
    157    160    169    171     1  0.0000000  0.6508444  3
    158    157    150    179     1  0.0000000  0.6508444  3
    158    157    160    169     1  0.0000000  0.6508444  3
    158    157    160    161     1  0.0000000  0.6508444  3
    158    157    160    162     1  0.0000000  0.6508444  3
    159    157    150    179     1  0.0000000  0.6508444  3
    159    157    160    169     1  0.0000000  0.6508444  3
    159    157    160    161     1  0.0000000  0.6508444  3
    159    157    160    162     1  0.0000000  0.6508444  3
    160    157    150    179     1  0.0000000  0.6508444  3
    161    160    169    178     1  0.0000000  1.0460000  1
    161    160    169    178     1  0.0000000  0.0000000  3
    161    160    169    170     1  0.0000000  0.6508444  3
    161    160    169    171     1  0.0000000  0.6508444  3
    162    160    169    178     1  0.0000000  1.0460000  1
    162    160    169    178     1  0.0000000  0.0000000  3
    162    160    169    170     1  0.0000000  0.6508444  3
    162    160    169    171     1  0.0000000  0.6508444  3
    163    151    150    179     1  0.0000000  0.6508444  3
    164    163    175    418     1  0.0000000  1.0460000  1
    164    163    175    418     1  0.0000000  0.0000000  3
    164    163    175    176     1  0.0000000  0.6508444  3
    164    163    175    177     1  0.0000000  0.6508444  3
    165    163    175    418     1  0.0000000  1.0460000  1
    165    163    175    418     1  0.0000000  0.0000000  3
    165    163    175    176     1  0.0000000  0.6508444  3
    165    163    175    177     1  0.0000000  0.6508444  3
    166    154    150    179     1  0.0000000  0.6508444  3
    167    166    172    388     1  0.0000000  1.0460000  1
    167    166    172    388     1  0.0000000  0.0000000  3
    167    166    172    173     1  0.0000000  0.6508444  3
    167    166    172    174     1  0.0000000  0.6508444  3
    168    166    172    388     1  0.0000000  1.0460000  1
    168    166    172    388     1  0.0000000  0.0000000  3
    168    166    172    173     1  0.0000000  0.6508444  3
    168    166    172    174     1  0.0000000  0.6508444  3
    172    388    379    380     1  0.0000000  1.6038667  3
    172    388    379    381     1  0.0000000  1.6038667  3
    173    172    388    379     1  0.0000000  1.6038667  3
    174    172    388    379     1  0.0000000  1.6038667  3
    175    418    409    410     1  0.0000000  1.6038667  3
    175    418    409    411     1  0.0000000  1.6038667  3
    176    175    418    409     1  0.0000000  1.6038667  3
    177    175    418    409     1  0.0000000  1.6038667  3
    180    181    193    194     1  0.0000000  0.6508444  3
    180    181    193    195     1  0.0000000  0.6508444  3
    180    184    196    197     1  0.0000000  0.6508444  3
    180    184    196    198     1  0.0000000  0.6508444  3
    180    187    190    191     1  0.0000000  0.6508444  3
    180    187    190    192     1  0.0000000  0.6508444  3
    181    180    184    185     1  0.0000000  0.6508444  3
    181    180    184    186     1  0.0000000  0.6508444  3
    181    180    187    188     1  0.0000000  0.6508444  3
    181    180    187    189     1  0.0000000  0.6508444  3
    181    193    205    206     1  0.0000000  0.6508444  3
    181    193    205    207     1  0.0000000  0.6508444  3
    182    181    180    184     1  0.0000000  0.6508444  3
    182    181    180    187     1  0.0000000  0.6508444  3
    182    181    180    209     1  0.0000000  0.6508444  3
    182    181    193    205     1  0.0000000  0.6508444  3
    182    181    193    194     1  0.0000000  0.6508444  3
    182    181    193    195     1  0.0000000  0.6508444  3
    183    181    180    184     1  0.0000000  0.6508444  3
    183    181    180    187     1  0.0000000  0.6508444  3
    183    181    180    209     1  0.0000000  0.6508444  3
    183    181    193    205     1  0.0000000  0.6508444  3
    183    181    193    194     1  0.0000000  0.6508444  3
    183    181    193    195     1  0.0000000  0.6508444  3
    184    180    187    188     1  0.0000000  0.6508444  3
    184    180    187    189     1  0.0000000  0.6508444  3
    184    196    202    203     1  0.0000000  0.6508444  3
    184    196    202    204     1  0.0000000  0.6508444  3
    185    184    180    187     1  0.0000000  0.6508444  3
    185    184    180    209     1  0.0000000  0.6508444  3
    185    184    196    202     1  0.0000000  0.6508444  3
    185    184    196    197     1  0.0000000  0.6508444  3
    185    184    196    198     1  0.0000000  0.6508444  3
    186    184    180    187     1  0.0000000  0.6508444  3
    186    184    180    209     1  0.0000000  0.6508444  3
    186    184    196    202     1  0.0000000  0.6508444  3
    186    184    196    197     1  0.0000000  0.6508444  3
    186    184    196    198     1  0.0000000  0.6508444  3
    187    190    199    200     1  0.0000000  0.6508444  3
    187    190    199    201     1  0.0000000  0.6508444  3
    188    187    180    209     1  0.0000000  0.6508444  3
    188    187    190    199     1  0.0000000  0.6508444  3
    188    187    190    191     1  0.0000000  0.6508444  3
    188    187    190    192     1  0.0000000  0.6508444  3
    189    187    180    209     1  0.0000000  0.6508444  3
    189    187    190    199     1  0.0000000  0.6508444  3
    189    187    190    191     1  0.0000000  0.6508444  3
    189    187    190    192     1  0.0000000  0.6508444  3
    190    187    180    209     1  0.0000000  0.6508444  3
    191    190    199    208     1  0.0000000  1.0460000  1
    191    190    199    208     1  0.0000000  0.0000000  3
    191    190    199    200     1  0.0000000  0.6508444  3
    191    190    199    201     1  0.0000000  0.6508444  3
    192    190    199    208     1  0.0000000  1.0460000  1
    192    190    199    208     1  0.0000000  0.0000000  3
    192    190    199    200     1  0.0000000  0.6508444  3
    192    190    199    201     1  0.0000000  0.6508444  3
    193    181    180    209     1  0.0000000  0.6508444  3
    194    193    205    478     1  0.0000000  1.0460000  1
    194    193    205    478     1  0.0000000  0.0000000  3
    194    193    205    206     1  0.0000000  0.6508444  3
    194    193    205    207     1  0.0000000  0.6508444  3
    195    193    205    478     1  0.0000000  1.0460000  1
    195    193    205    478     1  0.0000000  0.0000000  3
    195    193    205    206     1  0.0000000  0.6508444  3
    195    193    205    207     1  0.0000000  0.6508444  3
    196    184    180    209     1  0.0000000  0.6508444  3
    197    196    202    448     1  0.0000000  1.0460000  1
    197    196    202    448     1  0.0000000  0.0000000  3
    197    196    202    203     1  0.0000000  0.6508444  3
    197    196    202    204     1  0.0000000  0.6508444  3
    198    196    202    448     1  0.0000000  1.0460000  1
    198    196    202    448     1  0.0000000  0.0000000  3
    198    196    202    203     1  0.0000000  0.6508444  3
    198    196    202    204     1  0.0000000  0.6508444  3
    202    448    439    440     1  0.0000000  1.6038667  3
    202    448    439    441     1  0.0000000  1.6038667  3
    203    202    448    439     1  0.0000000  1.6038667  3
    204    202    448    439     1  0.0000000  1.6038667  3
    205    478    469    470     1  0.0000000  1.6038667  3
    205    478    469    471     1  0.0000000  1.6038667  3
    206    205    478    469     1  0.0000000  1.6038667  3
    207    205    478    469     1  0.0000000  1.6038667  3
    210    211    223    224     1  0.0000000  0.6508444  3
    210    211    223    225     1  0.0000000  0.6508444  3
    210    214    226    227     1  0.0000000  0.6508444  3
    210    214    226    228     1  0.0000000  0.6508444  3
    210    217    220    221     1  0.0000000  0.6508444  3
    210    217    220    222     1  0.0000000  0.6508444  3
    211    210    214    215     1  0.0000000  0.6508444  3
    211    210    214    216     1  0.0000000  0.6508444  3
    211    210    217    218     1  0.0000000  0.6508444  3
    211    210    217    219     1  0.0000000  0.6508444  3
    211    223    235    236     1  0.0000000  0.6508444  3
    211    223    235    237     1  0.0000000  0.6508444  3
    212    211    210    214     1  0.0000000  0.6508444  3
    212    211    210    217     1  0.0000000  0.6508444  3
    212    211    210    239     1  0.0000000  0.6508444  3
    212    211    223    235     1  0.0000000  0.6508444  3
    212    211    223    224     1  0.0000000  0.6508444  3
    212    211    223    225     1  0.0000000  0.6508444  3
    213    211    210    214     1  0.0000000  0.6508444  3
    213    211    210    217     1  0.0000000  0.6508444  3
    213    211    210    239     1  0.0000000  0.6508444  3
    213    211    223    235     1  0.0000000  0.6508444  3
    213    211    223    224     1  0.0000000  0.6508444  3
    213    211    223    225     1  0.0000000  0.6508444  3
    214    210    217    218     1  0.0000000  0.6508444  3
    214    210    217    219     1  0.0000000  0.6508444  3
    214    226    232    233     1  0.0000000  0.6508444  3
    214    226    232    234     1  0.0000000  0.6508444  3
    215    214    210    217     1  0.0000000  0.6508444  3
    215    214    210    239     1  0.0000000  0.6508444  3
    215    214    226    232     1  0.0000000  0.6508444  3
    215    214    226    227     1  0.0000000  0.6508444  3
    215    214    226    228     1  0.0000000  0.6508444  3
    216    214    210    217     1  0.0000000  0.6508444  3
    216    214    210    239     1  0.0000000  0.6508444  3
    216    214    226    232     1  0.0000000  0.6508444  3
    216    214    226    227     1  0.0000000  0.6508444  3
    216    214    226    228     1  0.0000000  0.6508444  3
    217    220    229    230     1  0.0000000  0.6508444  3
    217    220    229    231     1  0.0000000  0.6508444  3
    218    217    210    239     1  0.0000000  0.6508444  3
    218    217    220    229     1  0.0000000  0.6508444  3
    218    217    220    221     1  0.0000000  0.6508444  3
    218    217    220    222     1  0.0000000  0.6508444  3
    219    217    210    239     1  0.0000000  0.6508444  3
    219    217    220    229     1  0.0000000  0.6508444  3
    219    217    220    221     1  0.0000000  0.6508444  3
    219    217    220    222     1  0.0000000  0.6508444  3
    220    217    210    239     1  0.0000000  0.6508444  3
    221    220    229    238     1  0.0000000  1.0460000  1
    221    220    229    238     1  0.0000000  0.0000000  3
    221    220    229    230     1  0.0000000  0.6508444  3
    221    220    229    231     1  0.0000000  0.6508444  3
    222    220    229    238     1  0.0000000  1.0460000  1
    222    220    229    238     1  0.0000000  0.0000000  3
    222    220    229    230     1  0.0000000  0.6508444  3
    222    220    229    231     1  0.0000000  0.6508444  3
    223    211    210    239     1  0.0000000  0.6508444  3
    224    223    235    538     1  0.0000000  1.0460000  1
    224    223    235    538     1  0.0000000  0.0000000  3
    224    223    235    236     1  0.0000000  0.6508444  3
    224    223    235    237     1  0.0000000  0.6508444  3
    225    223    235    538     1  0.0000000  1.0460000  1
    225    223    235    538     1  0.0000000  0.0000000  3
    225    223    235    236     1  0.0000000  0.6508444  3
    225    223    235    237     1  0.0000000  0.6508444  3
    226    214    210    239     1  0.0000000  0.6508444  3
    227    226    232    508     1  0.0000000  1.0460000  1
    227    226    232    508     1  0.0000000  0.0000000  3
    227    226    232    233     1  0.0000000  0.6508444  3
    227    226    232    234     1  0.0000000  0.6508444  3
    228    226    232    508     1  0.0000000  1.0460000  1
    228    226    232    508     1  0.0000000  0.0000000  3
    228    226    232    233     1  0.0000000  0.6508444  3
    228    226    232    234     1  0.0000000  0.6508444  3
    232    508    499    500     1  0.0000000  1.6038667  3
    232    508    499    501     1  0.0000000  1.6038667  3
    233    232    508    499     1  0.0000000  1.6038667  3
    234    232    508    499     1  0.0000000  1.6038667  3
    235    538    529    530     1  0.0000000  1.6038667  3
    235    538    529    531     1  0.0000000  1.6038667  3
    236    235    538    529     1  0.0000000  1.6038667  3
    237    235    538    529     1  0.0000000  1.6038667  3
    240    241    253    254     1  0.0000000  0.6508444  3
    240    241    253    255     1  0.0000000  0.6508444  3
    240    244    256    257     1  0.0000000  0.6508444  3
    240    244    256    258     1  0.0000000  0.6508444  3
    240    247    250    251     1  0.0000000  0.6508444  3
    240    247    250    252     1  0.0000000  0.6508444  3
    241    240    244    245     1  0.0000000  0.6508444  3
    241    240    244    246     1  0.0000000  0.6508444  3
    241    240    247    248     1  0.0000000  0.6508444  3
    241    240    247    249     1  0.0000000  0.6508444  3
    241    253    265    266     1  0.0000000  0.6508444  3
    241    253    265    267     1  0.0000000  0.6508444  3
    242    241    240    244     1  0.0000000  0.6508444  3
    242    241    240    247     1  0.0000000  0.6508444  3
    242    241    240    269     1  0.0000000  0.6508444  3
    242    241    253    265     1  0.0000000  0.6508444  3
    242    241    253    254     1  0.0000000  0.6508444  3
    242    241    253    255     1  0.0000000  0.6508444  3
    243    241    240    244     1  0.0000000  0.6508444  3
    243    241    240    247     1  0.0000000  0.6508444  3
    243    241    240    269     1  0.0000000  0.6508444  3
    243    241    253    265     1  0.0000000  0.6508444  3
    243    241    253    254     1  0.0000000  0.6508444  3
    243    241    253    255     1  0.0000000  0.6508444  3
    244    240    247    248     1  0.0000000  0.6508444  3
    244    240    247    249     1  0.0000000  0.6508444  3
    244    256    262    263     1  0.0000000  0.6508444  3
    244    256    262    264     1  0.0000000  0.6508444  3
    245    244    240    247     1  0.0000000  0.6508444  3
    245    244    240    269     1  0.0000000  0.6508444  3
    245    244    256    262     1  0.0000000  0.6508444  3
    245    244    256    257     1  0.0000000  0.6508444  3
    245    244    256    258     1  0.0000000  0.6508444  3
    246    244    240    247     1  0.0000000  0.6508444  3
    246    244    240    269     1  0.0000000  0.6508444  3
    246    244    256    262     1  0.0000000  0.6508444  3
    246    244    256    257     1  0.0000000  0.6508444  3
    246    244    256    258     1  0.0000000  0.6508444  3
    247    250    259    260     1  0.0000000  0.6508444  3
    247    250    259    261     1  0.0000000  0.6508444  3
    248    247    240    269     1  0.0000000  0.6508444  3
    248    247    250    259     1  0.0000000  0.6508444  3
    248    247    250    251     1  0.0000000  0.6508444  3
    248    247    250    252     1  0.0000000  0.6508444  3
    249    247    240    269     1  0.0000000  0.6508444  3
    249    247    250    259     1  0.0000000  0.6508444  3
    249    247    250    251     1  0.0000000  0.6508444  3
    249    247    250    252     1  0.0000000  0.6508444  3
    250    247    240    269     1  0.0000000  0.6508444  3
    251    250    259    268     1  0.0000000  1.0460000  1
    251    250    259    268     1  0.0000000  0.0000000  3
    251    250    259    260     1  0.0000000  0.6508444  3
    251    250    259    261     1  0.0000000  0.6508444  3
    252    250    259    268     1  0.0000000  1.0460000  1
    252    250    259    268     1  0.0000000  0.0000000  3
    252    250    259    260     1  0.0000000  0.6508444  3
    252    250    259    261     1  0.0000000  0.6508444  3
    253    241    240    269     1  0.0000000  0.6508444  3
    254    253    265    598     1  0.0000000  1.0460000  1
    254    253    265    598     1  0.0000000  0.0000000  3
    254    253    265    266     1  0.0000000  0.6508444  3
    254    253    265    267     1  0.0000000  0.6508444  3
    255    253    265    598     1  0.0000000  1.0460000  1
    255    253    265    598     1  0.0000000  0.0000000  3
    255    253    265    266     1  0.0000000  0.6508444  3
    255    253    265    267     1  0.0000000  0.6508444  3
    256    244    240    269     1  0.0000000  0.6508444  3
    257    256    262    568     1  0.0000000  1.0460000  1
    257    256    262    568     1  0.0000000  0.0000000  3
    257    256    262    263     1  0.0000000  0.6508444  3
    257    256    262    264     1  0.0000000  0.6508444  3
    258    256    262    568     1  0.0000000  1.0460000  1
    258    256    262    568     1  0.0000000  0.0000000  3
    258    256    262    263     1  0.0000000  0.6508444  3
    258    256    262    264     1  0.0000000  0.6508444  3
    262    568    559    560     1  0.0000000  1.6038667  3
    262    568    559    561     1  0.0000000  1.6038667  3
    263    262    568    559     1  0.0000000  1.6038667  3
    264    262    568    559     1  0.0000000  1.6038667  3
    265    598    589    590     1  0.0000000  1.6038667  3
    265    598    589    591     1  0.0000000  1.6038667  3
    266    265    598    589     1  0.0000000  1.6038667  3
    267    265    598    589     1  0.0000000  1.6038667  3
    270    271    283    284     1  0.0000000  0.6508444  3
    270    271    283    285     1  0.0000000  0.6508444  3
    270    274    286    287     1  0.0000000  0.6508444  3
    270    274    286    288     1  0.0000000  0.6508444  3
    270    277    280    281     1  0.0000000  0.6508444  3
    270    277    280    282     1  0.0000000  0.6508444  3
    271    270    274    275     1  0.0000000  0.6508444  3
    271    270    274    276     1  0.0000000  0.6508444  3
    271    270    277    278     1  0.0000000  0.6508444  3
    271    270    277    279     1  0.0000000  0.6508444  3
    271    283    295    296     1  0.0000000  0.6508444  3
    271    283    295    297     1  0.0000000  0.6508444  3
    272    271    270    274     1  0.0000000  0.6508444  3
    272    271    270    277     1  0.0000000  0.6508444  3
    272    271    270    299     1  0.0000000  0.6508444  3
    272    271    283    295     1  0.0000000  0.6508444  3
    272    271    283    284     1  0.0000000  0.6508444  3
    272    271    283    285     1  0.0000000  0.6508444  3
    273    271    270    274     1  0.0000000  0.6508444  3
    273    271    270    277     1  0.0000000  0.6508444  3
    273    271    270    299     1  0.0000000  0.6508444  3
    273    271    283    295     1  0.0000000  0.6508444  3
    273    271    283    284     1  0.0000000  0.6508444  3
    273    271    283    285     1  0.0000000  0.6508444  3
    274    270    277    278     1  0.0000000  0.6508444  3
    274    270    277    279     1  0.0000000  0.6508444  3
    274    286    292    293     1  0.0000000  0.6508444  3
    274    286    292    294     1  0.0000000  0.6508444  3
    275    274    270    277     1  0.0000000  0.6508444  3
    275    274    270    299     1  0.0000000  0.6508444  3
    275    274    286    292     1  0.0000000  0.6508444  3
    275    274    286    287     1  0.0000000  0.6508444  3
    275    274    286    288     1  0.0000000  0.6508444  3
    276    274    270    277     1  0.0000000  0.6508444  3
    276    274    270    299     1  0.0000000  0.6508444  3
    276    274    286    292     1  0.0000000  0.6508444  3
    276    274    286    287     1  0.0000000  0.6508444  3
    276    274    286    288     1  0.0000000  0.6508444  3
    277    280    289    290     1  0.0000000  0.6508444  3
    277    280    289    291     1  0.0000000  0.6508444  3
    278    277    270    299     1  0.0000000  0.6508444  3
    278    277    280    289     1  0.0000000  0.6508444  3
    278    277    280    281     1  0.0000000  0.6508444  3
    278    277    280    282     1  0.0000000  0.6508444  3
    279    277    270    299     1  0.0000000  0.6508444  3
    279    277    280    289     1  0.0000000  0.6508444  3
    279    277    280    281     1  0.0000000  0.6508444  3
    279    277    280    282     1  0.0000000  0.6508444  3
    280    277    270    299     1  0.0000000  0.6508444  3
    281    280    289    298     1  0.0000000  1.0460000  1
    281    280    289    298     1  0.0000000  0.0000000  3
    281    280    289    290     1  0.0000000  0.6508444  3
    281    280    289    291     1  0.0000000  0.6508444  3
    282    280    289    298     1  0.0000000  1.0460000  1
    282    280    289    298     1  0.0000000  0.0000000  3
    282    280    289    290     1  0.0000000  0.6508444  3
    282    280    289    291     1  0.0000000  0.6508444  3
    283    271    270    299     1  0.0000000  0.6508444  3
    284    283    295    658     1  0.0000000  1.0460000  1
    284    283    295    658     1  0.0000000  0.0000000  3
    284    283    295    296     1  0.0000000  0.6508444  3
    284    283    295    297     1  0.0000000  0.6508444  3
    285    283    295    658     1  0.0000000  1.0460000  1
    285    283    295    658     1  0.0000000  0.0000000  3
    285    283    295    296     1  0.0000000  0.6508444  3
    285    283    295    297     1  0.0000000  0.6508444  3
    286    274    270    299     1  0.0000000  0.6508444  3
    287    286    292    628     1  0.0000000  1.0460000  1
    287    286    292    628     1  0.0000000  0.0000000  3
    287    286    292    293     1  0.0000000  0.6508444  3
    287    286    292    294     1  0.0000000  0.6508444  3
    288    286    292    628     1  0.0000000  1.0460000  1
    288    286    292    628     1  0.0000000  0.0000000  3
    288    286    292    293     1  0.0000000  0.6508444  3
    288    286    292    294     1  0.0000000  0.6508444  3
    292    628    619    620     1  0.0000000  1.6038667  3
    292    628    619    621     1  0.0000000  1.6038667  3
    293    292    628    619     1  0.0000000  1.6038667  3
    294    292    628    619     1  0.0000000  1.6038667  3
    295    658    649    650     1  0.0000000  1.6038667  3
    295    658    649    651     1  0.0000000  1.6038667  3
    296    295    658    649     1  0.0000000  1.6038667  3
    297    295    658    649     1  0.0000000  1.6038667  3
    300    301    313    314     1  0.0000000  0.6508444  3
    300    301    313    315     1  0.0000000  0.6508444  3
    300    304    316    317     1  0.0000000  0.6508444  3
    300    304    316    318     1  0.0000000  0.6508444  3
    300    307    310    311     1  0.0000000  0.6508444  3
    300    307    310    312     1  0.0000000  0.6508444  3
    301    300    304    305     1  0.0000000  0.6508444  3
    301    300    304    306     1  0.0000000  0.6508444  3
    301    300    307    308     1  0.0000000  0.6508444  3
    301    300    307    309     1  0.0000000  0.6508444  3
    301    313    325    326     1  0.0000000  0.6508444  3
    301    313    325    327     1  0.0000000  0.6508444  3
    302    301    300    304     1  0.0000000  0.6508444  3
    302    301    300    307     1  0.0000000  0.6508444  3
    302    301    300    329     1  0.0000000  0.6508444  3
    302    301    313    325     1  0.0000000  0.6508444  3
    302    301    313    314     1  0.0000000  0.6508444  3
    302    301    313    315     1  0.0000000  0.6508444  3
    303    301    300    304     1  0.0000000  0.6508444  3
    303    301    300    307     1  0.0000000  0.6508444  3
    303    301    300    329     1  0.0000000  0.6508444  3
    303    301    313    325     1  0.0000000  0.6508444  3
    303    301    313    314     1  0.0000000  0.6508444  3
    303    301    313    315     1  0.0000000  0.6508444  3
    304    300    307    308     1  0.0000000  0.6508444  3
    304    300    307    309     1  0.0000000  0.6508444  3
    304    316    322    323     1  0.0000000  0.6508444  3
    304    316    322    324     1  0.0000000  0.6508444  3
    305    304    300    307     1  0.0000000  0.6508444  3
    305    304    300    329     1  0.0000000  0.6508444  3
    305    304    316    322     1  0.0000000  0.6508444  3
    305    304    316    317     1  0.0000000  0.6508444  3
    305    304    316    318     1  0.0000000  0.6508444  3
    306    304    300    307     1  0.0000000  0.6508444  3
    306    304    300    329     1  0.0000000  0.6508444  3
    306    304    316    322     1  0.0000000  0.6508444  3
    306    304    316    317     1  0.0000000  0.6508444  3
    306    304    316    318     1  0.0000000  0.6508444  3
    307    310    319    320     1  0.0000000  0.6508444  3
    307    310    319    321     1  0.0000000  0.6508444  3
    308    307    300    329     1  0.0000000  0.6508444  3
    308    307    310    319     1  0.0000000  0.6508444  3
    308    307    310    311     1  0.0000000  0.6508444  3
    308    307    310    312     1  0.0000000  0.6508444  3
    309    307    300    329     1  0.0000000  0.6508444  3
    309    307    310    319     1  0.0000000  0.6508444  3
    309    307    310    311     1  0.0000000  0.6508444  3
    309    307    310    312     1  0.0000000  0.6508444  3
    310    307    300    329     1  0.0000000  0.6508444  3
    311    310    319    328     1  0.0000000  1.0460000  1
    311    310    319    328     1  0.0000000  0.0000000  3
    311    310    319    320     1  0.0000000  0.6508444  3
    311    310    319    321     1  0.0000000  0.6508444  3
    312    310    319    328     1  0.0000000  1.0460000  1
    312    310    319    328     1  0.0000000  0.0000000  3
    312    310    319    320     1  0.0000000  0.6508444  3
    312    310    319    321     1  0.0000000  0.6508444  3
    313    301    300    329     1  0.0000000  0.6508444  3
    314    313    325    718     1  0.0000000  1.0460000  1
    314    313    325    718     1  0.0000000  0.0000000  3
    314    313    325    326     1  0.0000000  0.6508444  3
    314    313    325    327     1  0.0000000  0.6508444  3
    315    313    325    718     1  0.0000000  1.0460000  1
    315    313    325    718     1  0.0000000  0.0000000  3
    315    313    325    326     1  0.0000000  0.6508444  3
    315    313    325    327     1  0.0000000  0.6508444  3
    316    304    300    329     1  0.0000000  0.6508444  3
    317    316    322    688     1  0.0000000  1.0460000  1
    317    316    322    688     1  0.0000000  0.0000000  3
    317    316    322    323     1  0.0000000  0.6508444  3
    317    316    322    324     1  0.0000000  0.6508444  3
    318    316    322    688     1  0.0000000  1.0460000  1
    318    316    322    688     1  0.0000000  0.0000000  3
    318    316    322    323     1  0.0000000  0.6508444  3
    318    316    322    324     1  0.0000000  0.6508444  3
    322    688    679    680     1  0.0000000  1.6038667  3
    322    688    679    681     1  0.0000000  1.6038667  3
    323    322    688    679     1  0.0000000  1.6038667  3
    324    322    688    679     1  0.0000000  1.6038667  3
    325    718    709    710     1  0.0000000  1.6038667  3
    325    718    709    711     1  0.0000000  1.6038667  3
    326    325    718    709     1  0.0000000  1.6038667  3
    327    325    718    709     1  0.0000000  1.6038667  3
    330    331    343    344     1  0.0000000  0.6508444  3
    330    331    343    345     1  0.0000000  0.6508444  3
    330    334    346    347     1  0.0000000  0.6508444  3
    330    334    346    348     1  0.0000000  0.6508444  3
    330    337    340    341     1  0.0000000  0.6508444  3
    330    337    340    342     1  0.0000000  0.6508444  3
    331    330    334    335     1  0.0000000  0.6508444  3
    331    330    334    336     1  0.0000000  0.6508444  3
    331    330    337    338     1  0.0000000  0.6508444  3
    331    330    337    339     1  0.0000000  0.6508444  3
    331    343    355    356     1  0.0000000  0.6508444  3
    331    343    355    357     1  0.0000000  0.6508444  3
    332    331    330    334     1  0.0000000  0.6508444  3
    332    331    330    337     1  0.0000000  0.6508444  3
    332    331    330    359     1  0.0000000  0.6508444  3
    332    331    343    355     1  0.0000000  0.6508444  3
    332    331    343    344     1  0.0000000  0.6508444  3
    332    331    343    345     1  0.0000000  0.6508444  3
    333    331    330    334     1  0.0000000  0.6508444  3
    333    331    330    337     1  0.0000000  0.6508444  3
    333    331    330    359     1  0.0000000  0.6508444  3
    333    331    343    355     1  0.0000000  0.6508444  3
    333    331    343    344     1  0.0000000  0.6508444  3
    333    331    343    345     1  0.0000000  0.6508444  3
    334    330    337    338     1  0.0000000  0.6508444  3
    334    330    337    339     1  0.0000000  0.6508444  3
    334    346    352    353     1  0.0000000  0.6508444  3
    334    346    352    354     1  0.0000000  0.6508444  3
    335    334    330    337     1  0.0000000  0.6508444  3
    335    334    330    359     1  0.0000000  0.6508444  3
    335    334    346    352     1  0.0000000  0.6508444  3
    335    334    346    347     1  0.0000000  0.6508444  3
    335    334    346    348     1  0.0000000  0.6508444  3
    336    334    330    337     1  0.0000000  0.6508444  3
    336    334    330    359     1  0.0000000  0.6508444  3
    336    334    346    352     1  0.0000000  0.6508444  3
    336    334    346    347     1  0.0000000  0.6508444  3
    336    334    346    348     1  0.0000000  0.6508444  3
    337    340    349    350     1  0.0000000  0.6508444  3
    337    340    349    351     1  0.0000000  0.6508444  3
    338    337    330    359     1  0.0000000  0.6508444  3
    338    337    340    349     1  0.0000000  0.6508444  3
    338    337    340    341     1  0.0000000  0.6508444  3
    338    337    340    342     1  0.0000000  0.6508444  3
    339    337    330    359     1  0.0000000  0.6508444  3
    339    337    340    349     1  0.0000000  0.6508444  3
    339    337    340    341     1  0.0000000  0.6508444  3
    339    337    340    342     1  0.0000000  0.6508444  3
    340    337    330    359     1  0.0000000  0.6508444  3
    341    340    349    358     1  0.0000000  1.0460000  1
    341    340    349    358     1  0.0000000  0.0000000  3
    341    340    349    350     1  0.0000000  0.6508444  3
    341    340    349    351     1  0.0000000  0.6508444  3
    342    340    349    358     1  0.0000000  1.0460000  1
    342    340    349    358     1  0.0000000  0.0000000  3
    342    340    349    350     1  0.0000000  0.6508444  3
    342    340    349    351     1  0.0000000  0.6508444  3
    343    331    330    359     1  0.0000000  0.6508444  3
    344    343    355    778     1  0.0000000  1.0460000  1
    344    343    355    778     1  0.0000000  0.0000000  3
    344    343    355    356     1  0.0000000  0.6508444  3
    344    343    355    357     1  0.0000000  0.6508444  3
    345    343    355    778     1  0.0000000  1.0460000  1
    345    343    355    778     1  0.0000000  0.0000000  3
    345    343    355    356     1  0.0000000  0.6508444  3
    345    343    355    357     1  0.0000000  0.6508444  3
    346    334    330    359     1  0.0000000  0.6508444  3
    347    346    352    748     1  0.0000000  1.0460000  1
    347    346    352    748     1  0.0000000  0.0000000  3
    347    346    352    353     1  0.0000000  0.6508444  3
    347    346    352    354     1  0.0000000  0.6508444  3
    348    346    352    748     1  0.0000000  1.0460000  1
    348    346    352    748     1  0.0000000  0.0000000  3
    348    346    352    353     1  0.0000000  0.6508444  3
    348    346    352    354     1  0.0000000  0.6508444  3
    352    748    739    740     1  0.0000000  1.6038667  3
    352    748    739    741     1  0.0000000  1.6038667  3
    353    352    748    739     1  0.0000000  1.6038667  3
    354    352    748    739     1  0.0000000  1.6038667  3
    355    778    769    770     1  0.0000000  1.6038667  3
    355    778    769    771     1  0.0000000  1.6038667  3
    356    355    778    769     1  0.0000000  1.6038667  3
    357    355    778    769     1  0.0000000  1.6038667  3
    360    361    373    374     1  0.0000000  0.6508444  3
    360    361    373    375     1  0.0000000  0.6508444  3
    360    364    376    377     1  0.0000000  0.6508444  3
    360    364    376    378     1  0.0000000  0.6508444  3
    360    367    370    371     1  0.0000000  0.6508444  3
    360    367    370    372     1  0.0000000  0.6508444  3
    361    360    364    365     1  0.0000000  0.6508444  3
    361    360    364    366     1  0.0000000  0.6508444  3
    361    360    367    368     1  0.0000000  0.6508444  3
    361    360    367    369     1  0.0000000  0.6508444  3
    361    373    385    386     1  0.0000000  0.6508444  3
    361    373    385    387     1  0.0000000  0.6508444  3
    362    361    360    364     1  0.0000000  0.6508444  3
    362    361    360    367     1  0.0000000  0.6508444  3
    362    361    360    389     1  0.0000000  0.6508444  3
    362    361    373    385     1  0.0000000  0.6508444  3
    362    361    373    374     1  0.0000000  0.6508444  3
    362    361    373    375     1  0.0000000  0.6508444  3
    363    361    360    364     1  0.0000000  0.6508444  3
    363    361    360    367     1  0.0000000  0.6508444  3
    363    361    360    389     1  0.0000000  0.6508444  3
    363    361    373    385     1  0.0000000  0.6508444  3
    363    361    373    374     1  0.0000000  0.6508444  3
    363    361    373    375     1  0.0000000  0.6508444  3
    364    360    367    368     1  0.0000000  0.6508444  3
    364    360    367    369     1  0.0000000  0.6508444  3
    364    376    382    383     1  0.0000000  0.6508444  3
    364    376    382    384     1  0.0000000  0.6508444  3
    365    364    360    367     1  0.0000000  0.6508444  3
    365    364    360    389     1  0.0000000  0.6508444  3
    365    364    376    382     1  0.0000000  0.6508444  3
    365    364    376    377     1  0.0000000  0.6508444  3
    365    364    376    378     1  0.0000000  0.6508444  3
    366    364    360    367     1  0.0000000  0.6508444  3
    366    364    360    389     1  0.0000000  0.6508444  3
    366    364    376    382     1  0.0000000  0.6508444  3
    366    364    376    377     1  0.0000000  0.6508444  3
    366    364    376    378     1  0.0000000  0.6508444  3
    367    370    379    380     1  0.0000000  0.6508444  3
    367    370    379    381     1  0.0000000  0.6508444  3
    368    367    360    389     1  0.0000000  0.6508444  3
    368    367    370    379     1  0.0000000  0.6508444  3
    368    367    370    371     1  0.0000000  0.6508444  3
    368    367    370    372     1  0.0000000  0.6508444  3
    369    367    360    389     1  0.0000000  0.6508444  3
    369    367    370    379     1  0.0000000  0.6508444  3
    369    367    370    371     1  0.0000000  0.6508444  3
    369    367    370    372     1  0.0000000  0.6508444  3
    370    367    360    389     1  0.0000000  0.6508444  3
    371    370    379    388     1  0.0000000  1.0460000  1
    371    370    379    388     1  0.0000000  0.0000000  3
    371    370    379    380     1  0.0000000  0.6508444  3
    371    370    379    381     1  0.0000000  0.6508444  3
    372    370    379    388     1  0.0000000  1.0460000  1
    372    370    379    388     1  0.0000000  0.0000000  3
    372    370    379    380     1  0.0000000  0.6508444  3
    372    370    379    381     1  0.0000000  0.6508444  3
    373    361    360    389     1  0.0000000  0.6508444  3
    374    373    385    838     1  0.0000000  1.0460000  1
    374    373    385    838     1  0.0000000  0.0000000  3
    374    373    385    386     1  0.0000000  0.6508444  3
    374    373    385    387     1  0.0000000  0.6508444  3
    375    373    385    838     1  0.0000000  1.0460000  1
    375    373    385    838     1  0.0000000  0.0000000  3
    375    373    385    386     1  0.0000000  0.6508444  3
    375    373    385    387     1  0.0000000  0.6508444  3
    376    364    360    389     1  0.0000000  0.6508444  3
    377    376    382    808     1  0.0000000  1.0460000  1
    377    376    382    808     1  0.0000000  0.0000000  3
    377    376    382    383     1  0.0000000  0.6508444  3
    377    376    382    384     1  0.0000000  0.6508444  3
    378    376    382    808     1  0.0000000  1.0460000  1
    378    376    382    808     1  0.0000000  0.0000000  3
    378    376    382    383     1  0.0000000  0.6508444  3
    378    376    382    384     1  0.0000000  0.6508444  3
    382    808    799    800     1  0.0000000  1.6038667  3
    382    808    799    801     1  0.0000000  1.6038667  3
    383    382    808    799     1  0.0000000  1.6038667  3
    384    382    808    799     1  0.0000000  1.6038667  3
    385    838    829    830     1  0.0000000  1.6038667  3
    385    838    829    831     1  0.0000000  1.6038667  3
    386    385    838    829     1  0.0000000  1.6038667  3
    387    385    838    829     1  0.0000000  1.6038667  3
    390    391    403    404     1  0.0000000  0.6508444  3
    390    391    403    405     1  0.0000000  0.6508444  3
    390    394    406    407     1  0.0000000  0.6508444  3
    390    394    406    408     1  0.0000000  0.6508444  3
    390    397    400    401     1  0.0000000  0.6508444  3
    390    397    400    402     1  0.0000000  0.6508444  3
    391    390    394    395     1  0.0000000  0.6508444  3
    391    390    394    396     1  0.0000000  0.6508444  3
    391    390    397    398     1  0.0000000  0.6508444  3
    391    390    397    399     1  0.0000000  0.6508444  3
    391    403    415    416     1  0.0000000  0.6508444  3
    391    403    415    417     1  0.0000000  0.6508444  3
    392    391    390    394     1  0.0000000  0.6508444  3
    392    391    390    397     1  0.0000000  0.6508444  3
    392    391    390    419     1  0.0000000  0.6508444  3
    392    391    403    415     1  0.0000000  0.6508444  3
    392    391    403    404     1  0.0000000  0.6508444  3
    392    391    403    405     1  0.0000000  0.6508444  3
    393    391    390    394     1  0.0000000  0.6508444  3
    393    391    390    397     1  0.0000000  0.6508444  3
    393    391    390    419     1  0.0000000  0.6508444  3
    393    391    403    415     1  0.0000000  0.6508444  3
    393    391    403    404     1  0.0000000  0.6508444  3
    393    391    403    405     1  0.0000000  0.6508444  3
    394    390    397    398     1  0.0000000  0.6508444  3
    394    390    397    399     1  0.0000000  0.6508444  3
    394    406    412    413     1  0.0000000  0.6508444  3
    394    406    412    414     1  0.0000000  0.6508444  3
    395    394    390    397     1  0.0000000  0.6508444  3
    395    394    390    419     1  0.0000000  0.6508444  3
    395    394    406    412     1  0.0000000  0.6508444  3
    395    394    406    407     1  0.0000000  0.6508444  3
    395    394    406    408     1  0.0000000  0.6508444  3
    396    394    390    397     1  0.0000000  0.6508444  3
    396    394    390    419     1  0.0000000  0.6508444  3
    396    394    406    412     1  0.0000000  0.6508444  3
    396    394    406    407     1  0.0000000  0.6508444  3
    396    394    406    408     1  0.0000000  0.6508444  3
    397    400    409    410     1  0.0000000  0.6508444  3
    397    400    409    411     1  0.0000000  0.6508444  3
    398    397    390    419     1  0.0000000  0.6508444  3
    398    397    400    409     1  0.0000000  0.6508444  3
    398    397    400    401     1  0.0000000  0.6508444  3
    398    397    400    402     1  0.0000000  0.6508444  3
    399    397    390    419     1  0.0000000  0.6508444  3
    399    397    400    409     1  0.0000000  0.6508444  3
    399    397    400    401     1  0.0000000  0.6508444  3
    399    397    400    402     1  0.0000000  0.6508444  3
    400    397    390    419     1  0.0000000  0.6508444  3
    401    400    409    418     1  0.0000000  1.0460000  1
    401    400    409    418     1  0.0000000  0.0000000  3
    401    400    409    410     1  0.0000000  0.6508444  3
    401    400    409    411     1  0.0000000  0.6508444  3
    402    400    409    418     1  0.0000000  1.0460000  1
    402    400    409    418     1  0.0000000  0.0000000  3
    402    400    409    410     1  0.0000000  0.6508444  3
    402    400    409    411     1  0.0000000  0.6508444  3
    403    391    390    419     1  0.0000000  0.6508444  3
    404    403    415    898     1  0.0000000  1.0460000  1
    404    403    415    898     1  0.0000000  0.0000000  3
    404    403    415    416     1  0.0000000  0.6508444  3
    404    403    415    417     1  0.0000000  0.6508444  3
    405    403    415    898     1  0.0000000  1.0460000  1
    405    403    415    898     1  0.0000000  0.0000000  3
    405    403    415    416     1  0.0000000  0.6508444  3
    405    403    415    417     1  0.0000000  0.6508444  3
    406    394    390    419     1  0.0000000  0.6508444  3
    407    406    412    868     1  0.0000000  1.0460000  1
    407    406    412    868     1  0.0000000  0.0000000  3
    407    406    412    413     1  0.0000000  0.6508444  3
    407    406    412    414     1  0.0000000  0.6508444  3
    408    406    412    868     1  0.0000000  1.0460000  1
    408    406    412    868     1  0.0000000  0.0000000  3
    408    406    412    413     1  0.0000000  0.6508444  3
    408    406    412    414     1  0.0000000  0.6508444  3
    412    868    859    860     1  0.0000000  1.6038667  3
    412    868    859    861     1  0.0000000  1.6038667  3
    413    412    868    859     1  0.0000000  1.6038667  3
    414    412    868    859     1  0.0000000  1.6038667  3
    415    898    889    890     1  0.0000000  1.6038667  3
    415    898    889    891     1  0.0000000  1.6038667  3
    416    415    898    889     1  0.0000000  1.6038667  3
    417    415    898    889     1  0.0000000  1.6038667  3
    420    421    433    434     1  0.0000000  0.6508444  3
    420    421    433    435     1  0.0000000  0.6508444  3
    420    424    436    437     1  0.0000000  0.6508444  3
    420    424    436    438     1  0.0000000  0.6508444  3
    420    427    430    431     1  0.0000000  0.6508444  3
    420    427    430    432     1  0.0000000  0.6508444  3
    421    420    424    425     1  0.0000000  0.6508444  3
    421    420    424    426     1  0.0000000  0.6508444  3
    421    420    427    428     1  0.0000000  0.6508444  3
    421    420    427    429     1  0.0000000  0.6508444  3
    421    433    445    446     1  0.0000000  0.6508444  3
    421    433    445    447     1  0.0000000  0.6508444  3
    422    421    420    424     1  0.0000000  0.6508444  3
    422    421    420    427     1  0.0000000  0.6508444  3
    422    421    420    449     1  0.0000000  0.6508444  3
    422    421    433    445     1  0.0000000  0.6508444  3
    422    421    433    434     1  0.0000000  0.6508444  3
    422    421    433    435     1  0.0000000  0.6508444  3
    423    421    420    424     1  0.0000000  0.6508444  3
    423    421    420    427     1  0.0000000  0.6508444  3
    423    421    420    449     1  0.0000000  0.6508444  3
    423    421    433    445     1  0.0000000  0.6508444  3
    423    421    433    434     1  0.0000000  0.6508444  3
    423    421    433    435     1  0.0000000  0.6508444  3
    424    420    427    428     1  0.0000000  0.6508444  3
    424    420    427    429     1  0.0000000  0.6508444  3
    424    436    442    443     1  0.0000000  0.6508444  3
    424    436    442    444     1  0.0000000  0.6508444  3
    425    424    420    427     1  0.0000000  0.6508444  3
    425    424    420    449     1  0.0000000  0.6508444  3
    425    424    436    442     1  0.0000000  0.6508444  3
    425    424    436    437     1  0.0000000  0.6508444  3
    425    424    436    438     1  0.0000000  0.6508444  3
    426    424    420    427     1  0.0000000  0.6508444  3
    426    424    420    449     1  0.0000000  0.6508444  3
    426    424    436    442     1  0.0000000  0.6508444  3
    426    424    436    437     1  0.0000000  0.6508444  3
    426    424    436    438     1  0.0000000  0.6508444  3
    427    430    439    440     1  0.0000000  0.6508444  3
    427    430    439    441     1  0.0000000  0.6508444  3
    428    427    420    449     1  0.0000000  0.6508444  3
    428    427    430    439     1  0.0000000  0.6508444  3
    428    427    430    431     1  0.0000000  0.6508444  3
    428    427    430    432     1  0.0000000  0.6508444  3
    429    427    420    449     1  0.0000000  0.6508444  3
    429    427    430    439     1  0.0000000  0.6508444  3
    429    427    430    431     1  0.0000000  0.6508444  3
    429    427    430    432     1  0.0000000  0.6508444  3
    430    427    420    449     1  0.0000000  0.6508444  3
    431    430    439    448     1  0.0000000  1.0460000  1
    431    430    439    448     1  0.0000000  0.0000000  3
    431    430    439    440     1  0.0000000  0.6508444  3
    431    430    439    441     1  0.0000000  0.6508444  3
    432    430    439    448     1  0.0000000  1.0460000  1
    432    430    439    448     1  0.0000000  0.0000000  3
    432    430    439    440     1  0.0000000  0.6508444  3
    432    430    439    441     1  0.0000000  0.6508444  3
    433    421    420    449     1  0.0000000  0.6508444  3
    434    433    445    958     1  0.0000000  1.0460000  1
    434    433    445    958     1  0.0000000  0.0000000  3
    434    433    445    446     1  0.0000000  0.6508444  3
    434    433    445    447     1  0.0000000  0.6508444  3
    435    433    445    958     1  0.0000000  1.0460000  1
    435    433    445    958     1  0.0000000  0.0000000  3
    435    433    445    446     1  0.0000000  0.6508444  3
    435    433    445    447     1  0.0000000  0.6508444  3
    436    424    420    449     1  0.0000000  0.6508444  3
    437    436    442    928     1  0.0000000  1.0460000  1
    437    436    442    928     1  0.0000000  0.0000000  3
    437    436    442    443     1  0.0000000  0.6508444  3
    437    436    442    444     1  0.0000000  0.6508444  3
    438    436    442    928     1  0.0000000  1.0460000  1
    438    436    442    928     1  0.0000000  0.0000000  3
    438    436    442    443     1  0.0000000  0.6508444  3
    438    436    442    444     1  0.0000000  0.6508444  3
    442    928    919    920     1  0.0000000  1.6038667  3
    442    928    919    921     1  0.0000000  1.6038667  3
    443    442    928    919     1  0.0000000  1.6038667  3
    444    442    928    919     1  0.0000000  1.6038667  3
    445    958    949    950     1  0.0000000  1.6038667  3
    445    958    949    951     1  0.0000000  1.6038667  3
    446    445    958    949     1  0.0000000  1.6038667  3
    447    445    958    949     1  0.0000000  1.6038667  3
    450    451    463    464     1  0.0000000  0.6508444  3
    450    451    463    465     1  0.0000000  0.6508444  3
    450    454    466    467     1  0.0000000  0.6508444  3
    450    454    466    468     1  0.0000000  0.6508444  3
    450    457    460    461     1  0.0000000  0.6508444  3
    450    457    460    462     1  0.0000000  0.6508444  3
    451    450    454    455     1  0.0000000  0.6508444  3
    451    450    454    456     1  0.0000000  0.6508444  3
    451    450    457    458     1  0.0000000  0.6508444  3
    451    450    457    459     1  0.0000000  0.6508444  3
    451    463    475    476     1  0.0000000  0.6508444  3
    451    463    475    477     1  0.0000000  0.6508444  3
    452    451    450    454     1  0.0000000  0.6508444  3
    452    451    450    457     1  0.0000000  0.6508444  3
    452    451    450    479     1  0.0000000  0.6508444  3
    452    451    463    475     1  0.0000000  0.6508444  3
    452    451    463    464     1  0.0000000  0.6508444  3
    452    451    463    465     1  0.0000000  0.6508444  3
    453    451    450    454     1  0.0000000  0.6508444  3
    453    451    450    457     1  0.0000000  0.6508444  3
    453    451    450    479     1  0.0000000  0.6508444  3
    453    451    463    475     1  0.0000000  0.6508444  3
    453    451    463    464     1  0.0000000  0.6508444  3
    453    451    463    465     1  0.0000000  0.6508444  3
    454    450    457    458     1  0.0000000  0.6508444  3
    454    450    457    459     1  0.0000000  0.6508444  3
    454    466    472    473     1  0.0000000  0.6508444  3
    454    466    472    474     1  0.0000000  0.6508444  3
    455    454    450    457     1  0.0000000  0.6508444  3
    455    454    450    479     1  0.0000000  0.6508444  3
    455    454    466    472     1  0.0000000  0.6508444  3
    455    454    466    467     1  0.0000000  0.6508444  3
    455    454    466    468     1  0.0000000  0.6508444  3
    456    454    450    457     1  0.0000000  0.6508444  3
    456    454    450    479     1  0.0000000  0.6508444  3
    456    454    466    472     1  0.0000000  0.6508444  3
    456    454    466    467     1  0.0000000  0.6508444  3
    456    454    466    468     1  0.0000000  0.6508444  3
    457    460    469    470     1  0.0000000  0.6508444  3
    457    460    469    471     1  0.0000000  0.6508444  3
    458    457    450    479     1  0.0000000  0.6508444  3
    458    457    460    469     1  0.0000000  0.6508444  3
    458    457    460    461     1  0.0000000  0.6508444  3
    458    457    460    462     1  0.0000000  0.6508444  3
    459    457    450    479     1  0.0000000  0.6508444  3
    459    457    460    469     1  0.0000000  0.6508444  3
    459    457    460    461     1  0.0000000  0.6508444  3
    459    457    460    462     1  0.0000000  0.6508444  3
    460    457    450    479     1  0.0000000  0.6508444  3
    461    460    469    478     1  0.0000000  1.0460000  1
    461    460    469    478     1  0.0000000  0.0000000  3
    461    460    469    470     1  0.0000000  0.6508444  3
    461    460    469    471     1  0.0000000  0.6508444  3
    462    460    469    478     1  0.0000000  1.0460000  1
    462    460    469    478     1  0.0000000  0.0000000  3
    462    460    469    470     1  0.0000000  0.6508444  3
    462    460    469    471     1  0.0000000  0.6508444  3
    463    451    450    479     1  0.0000000  0.6508444  3
    464    463    475   1018     1  0.0000000  1.0460000  1
    464    463    475   1018     1  0.0000000  0.0000000  3
    464    463    475    476     1  0.0000000  0.6508444  3
    464    463    475    477     1  0.0000000  0.6508444  3
    465    463    475   1018     1  0.0000000  1.0460000  1
    465    463    475   1018     1  0.0000000  0.0000000  3
    465    463    475    476     1  0.0000000  0.6508444  3
    465    463    475    477     1  0.0000000  0.6508444  3
    466    454    450    479     1  0.0000000  0.6508444  3
    467    466    472    988     1  0.0000000  1.0460000  1
    467    466    472    988     1  0.0000000  0.0000000  3
    467    466    472    473     1  0.0000000  0.6508444  3
    467    466    472    474     1  0.0000000  0.6508444  3
    468    466    472    988     1  0.0000000  1.0460000  1
    468    466    472    988     1  0.0000000  0.0000000  3
    468    466    472    473     1  0.0000000  0.6508444  3
    468    466    472    474     1  0.0000000  0.6508444  3
    472    988    979    980     1  0.0000000  1.6038667  3
    472    988    979    981     1  0.0000000  1.6038667  3
    473    472    988    979     1  0.0000000  1.6038667  3
    474    472    988    979     1  0.0000000  1.6038667  3
    475   1018   1009   1010     1  0.0000000  1.6038667  3
    475   1018   1009   1011     1  0.0000000  1.6038667  3
    476    475   1018   1009     1  0.0000000  1.6038667  3
    477    475   1018   1009     1  0.0000000  1.6038667  3
    480    481    493    494     1  0.0000000  0.6508444  3
    480    481    493    495     1  0.0000000  0.6508444  3
    480    484    496    497     1  0.0000000  0.6508444  3
    480    484    496    498     1  0.0000000  0.6508444  3
    480    487    490    491     1  0.0000000  0.6508444  3
    480    487    490    492     1  0.0000000  0.6508444  3
    481    480    484    485     1  0.0000000  0.6508444  3
    481    480    484    486     1  0.0000000  0.6508444  3
    481    480    487    488     1  0.0000000  0.6508444  3
    481    480    487    489     1  0.0000000  0.6508444  3
    481    493    505    506     1  0.0000000  0.6508444  3
    481    493    505    507     1  0.0000000  0.6508444  3
    482    481    480    484     1  0.0000000  0.6508444  3
    482    481    480    487     1  0.0000000  0.6508444  3
    482    481    480    509     1  0.0000000  0.6508444  3
    482    481    493    505     1  0.0000000  0.6508444  3
    482    481    493    494     1  0.0000000  0.6508444  3
    482    481    493    495     1  0.0000000  0.6508444  3
    483    481    480    484     1  0.0000000  0.6508444  3
    483    481    480    487     1  0.0000000  0.6508444  3
    483    481    480    509     1  0.0000000  0.6508444  3
    483    481    493    505     1  0.0000000  0.6508444  3
    483    481    493    494     1  0.0000000  0.6508444  3
    483    481    493    495     1  0.0000000  0.6508444  3
    484    480    487    488     1  0.0000000  0.6508444  3
    484    480    487    489     1  0.0000000  0.6508444  3
    484    496    502    503     1  0.0000000  0.6508444  3
    484    496    502    504     1  0.0000000  0.6508444  3
    485    484    480    487     1  0.0000000  0.6508444  3
    485    484    480    509     1  0.0000000  0.6508444  3
    485    484    496    502     1  0.0000000  0.6508444  3
    485    484    496    497     1  0.0000000  0.6508444  3
    485    484    496    498     1  0.0000000  0.6508444  3
    486    484    480    487     1  0.0000000  0.6508444  3
    486    484    480    509     1  0.0000000  0.6508444  3
    486    484    496    502     1  0.0000000  0.6508444  3
    486    484    496    497     1  0.0000000  0.6508444  3
    486    484    496    498     1  0.0000000  0.6508444  3
    487    490    499    500     1  0.0000000  0.6508444  3
    487    490    499    501     1  0.0000000  0.6508444  3
    488    487    480    509     1  0.0000000  0.6508444  3
    488    487    490    499     1  0.0000000  0.6508444  3
    488    487    490    491     1  0.0000000  0.6508444  3
    488    487    490    492     1  0.0000000  0.6508444  3
    489    487    480    509     1  0.0000000  0.6508444  3
    489    487    490    499     1  0.0000000  0.6508444  3
    489    487    490    491     1  0.0000000  0.6508444  3
    489    487    490    492     1  0.0000000  0.6508444  3
    490    487    480    509     1  0.0000000  0.6508444  3
    491    490    499    508     1  0.0000000  1.0460000  1
    491    490    499    508     1  0.0000000  0.0000000  3
    491    490    499    500     1  0.0000000  0.6508444  3
    491    490    499    501     1  0.0000000  0.6508444  3
    492    490    499    508     1  0.0000000  1.0460000  1
    492    490    499    508     1  0.0000000  0.0000000  3
    492    490    499    500     1  0.0000000  0.6508444  3
    492    490    499    501     1  0.0000000  0.6508444  3
    493    481    480    509     1  0.0000000  0.6508444  3
    494    493    505   1078     1  0.0000000  1.0460000  1
    494    493    505   1078     1  0.0000000  0.0000000  3
    494    493    505    506     1  0.0000000  0.6508444  3
    494    493    505    507     1  0.0000000  0.6508444  3
    495    493    505   1078     1  0.0000000  1.0460000  1
    495    493    505   1078     1  0.0000000  0.0000000  3
    495    493    505    506     1  0.0000000  0.6508444  3
    495    493    505    507     1  0.0000000  0.6508444  3
    496    484    480    509     1  0.0000000  0.6508444  3
    497    496    502   1048     1  0.0000000  1.0460000  1
    497    496    502   1048     1  0.0000000  0.0000000  3
    497    496    502    503     1  0.0000000  0.6508444  3
    497    496    502    504     1  0.0000000  0.6508444  3
    498    496    502   1048     1  0.0000000  1.0460000  1
    498    496    502   1048     1  0.0000000  0.0000000  3
    498    496    502    503     1  0.0000000  0.6508444  3
    498    496    502    504     1  0.0000000  0.6508444  3
    502   1048   1039   1040     1  0.0000000  1.6038667  3
    502   1048   1039   1041     1  0.0000000  1.6038667  3
    503    502   1048   1039     1  0.0000000  1.6038667  3
    504    502   1048   1039     1  0.0000000  1.6038667  3
    505   1078   1069   1070     1  0.0000000  1.6038667  3
    505   1078   1069   1071     1  0.0000000  1.6038667  3
    506    505   1078   1069     1  0.0000000  1.6038667  3
    507    505   1078   1069     1  0.0000000  1.6038667  3
    510    511    523    524     1  0.0000000  0.6508444  3
    510    511    523    525     1  0.0000000  0.6508444  3
    510    514    526    527     1  0.0000000  0.6508444  3
    510    514    526    528     1  0.0000000  0.6508444  3
    510    517    520    521     1  0.0000000  0.6508444  3
    510    517    520    522     1  0.0000000  0.6508444  3
    511    510    514    515     1  0.0000000  0.6508444  3
    511    510    514    516     1  0.0000000  0.6508444  3
    511    510    517    518     1  0.0000000  0.6508444  3
    511    510    517    519     1  0.0000000  0.6508444  3
    511    523    535    536     1  0.0000000  0.6508444  3
    511    523    535    537     1  0.0000000  0.6508444  3
    512    511    510    514     1  0.0000000  0.6508444  3
    512    511    510    517     1  0.0000000  0.6508444  3
    512    511    510    539     1  0.0000000  0.6508444  3
    512    511    523    535     1  0.0000000  0.6508444  3
    512    511    523    524     1  0.0000000  0.6508444  3
    512    511    523    525     1  0.0000000  0.6508444  3
    513    511    510    514     1  0.0000000  0.6508444  3
    513    511    510    517     1  0.0000000  0.6508444  3
    513    511    510    539     1  0.0000000  0.6508444  3
    513    511    523    535     1  0.0000000  0.6508444  3
    513    511    523    524     1  0.0000000  0.6508444  3
    513    511    523    525     1  0.0000000  0.6508444  3
    514    510    517    518     1  0.0000000  0.6508444  3
    514    510    517    519     1  0.0000000  0.6508444  3
    514    526    532    533     1  0.0000000  0.6508444  3
    514    526    532    534     1  0.0000000  0.6508444  3
    515    514    510    517     1  0.0000000  0.6508444  3
    515    514    510    539     1  0.0000000  0.6508444  3
    515    514    526    532     1  0.0000000  0.6508444  3
    515    514    526    527     1  0.0000000  0.6508444  3
    515    514    526    528     1  0.0000000  0.6508444  3
    516    514    510    517     1  0.0000000  0.6508444  3
    516    514    510    539     1  0.0000000  0.6508444  3
    516    514    526    532     1  0.0000000  0.6508444  3
    516    514    526    527     1  0.0000000  0.6508444  3
    516    514    526    528     1  0.0000000  0.6508444  3
    517    520    529    530     1  0.0000000  0.6508444  3
    517    520    529    531     1  0.0000000  0.6508444  3
    518    517    510    539     1  0.0000000  0.6508444  3
    518    517    520    529     1  0.0000000  0.6508444  3
    518    517    520    521     1  0.0000000  0.6508444  3
    518    517    520    522     1  0.0000000  0.6508444  3
    519    517    510    539     1  0.0000000  0.6508444  3
    519    517    520    529     1  0.0000000  0.6508444  3
    519    517    520    521     1  0.0000000  0.6508444  3
    519    517    520    522     1  0.0000000  0.6508444  3
    520    517    510    539     1  0.0000000  0.6508444  3
    521    520    529    538     1  0.0000000  1.0460000  1
    521    520    529    538     1  0.0000000  0.0000000  3
    521    520    529    530     1  0.0000000  0.6508444  3
    521    520    529    531     1  0.0000000  0.6508444  3
    522    520    529    538     1  0.0000000  1.0460000  1
    522    520    529    538     1  0.0000000  0.0000000  3
    522    520    529    530     1  0.0000000  0.6508444  3
    522    520    529    531     1  0.0000000  0.6508444  3
    523    511    510    539     1  0.0000000  0.6508444  3
    524    523    535   1138     1  0.0000000  1.0460000  1
    524    523    535   1138     1  0.0000000  0.0000000  3
    524    523    535    536     1  0.0000000  0.6508444  3
    524    523    535    537     1  0.0000000  0.6508444  3
    525    523    535   1138     1  0.0000000  1.0460000  1
    525    523    535   1138     1  0.0000000  0.0000000  3
    525    523    535    536     1  0.0000000  0.6508444  3
    525    523    535    537     1  0.0000000  0.6508444  3
    526    514    510    539     1  0.0000000  0.6508444  3
    527    526    532   1108     1  0.0000000  1.0460000  1
    527    526    532   1108     1  0.0000000  0.0000000  3
    527    526    532    533     1  0.0000000  0.6508444  3
    527    526    532    534     1  0.0000000  0.6508444  3
    528    526    532   1108     1  0.0000000  1.0460000  1
    528    526    532   1108     1  0.0000000  0.0000000  3
    528    526    532    533     1  0.0000000  0.6508444  3
    528    526    532    534     1  0.0000000  0.6508444  3
    532   1108   1099   1100     1  0.0000000  1.6038667  3
    532   1108   1099   1101     1  0.0000000  1.6038667  3
    533    532   1108   1099     1  0.0000000  1.6038667  3
    534    532   1108   1099     1  0.0000000  1.6038667  3
    535   1138   1129   1130     1  0.0000000  1.6038667  3
    535   1138   1129   1131     1  0.0000000  1.6038667  3
    536    535   1138   1129     1  0.0000000  1.6038667  3
    537    535   1138   1129     1  0.0000000  1.6038667  3
    540    541    553    554     1  0.0000000  0.6508444  3
    540    541    553    555     1  0.0000000  0.6508444  3
    540    544    556    557     1  0.0000000  0.6508444  3
    540    544    556    558     1  0.0000000  0.6508444  3
    540    547    550    551     1  0.0000000  0.6508444  3
    540    547    550    552     1  0.0000000  0.6508444  3
    541    540    544    545     1  0.0000000  0.6508444  3
    541    540    544    546     1  0.0000000  0.6508444  3
    541    540    547    548     1  0.0000000  0.6508444  3
    541    540    547    549     1  0.0000000  0.6508444  3
    541    553    565    566     1  0.0000000  0.6508444  3
    541    553    565    567     1  0.0000000  0.6508444  3
    542    541    540    544     1  0.0000000  0.6508444  3
    542    541    540    547     1  0.0000000  0.6508444  3
    542    541    540    569     1  0.0000000  0.6508444  3
    542    541    553    565     1  0.0000000  0.6508444  3
    542    541    553    554     1  0.0000000  0.6508444  3
    542    541    553    555     1  0.0000000  0.6508444  3
    543    541    540    544     1  0.0000000  0.6508444  3
    543    541    540    547     1  0.0000000  0.6508444  3
    543    541    540    569     1  0.0000000  0.6508444  3
    543    541    553    565     1  0.0000000  0.6508444  3
    543    541    553    554     1  0.0000000  0.6508444  3
    543    541    553    555     1  0.0000000  0.6508444  3
    544    540    547    548     1  0.0000000  0.6508444  3
    544    540    547    549     1  0.0000000  0.6508444  3
    544    556    562    563     1  0.0000000  0.6508444  3
    544    556    562    564     1  0.0000000  0.6508444  3
    545    544    540    547     1  0.0000000  0.6508444  3
    545    544    540    569     1  0.0000000  0.6508444  3
    545    544    556    562     1  0.0000000  0.6508444  3
    545    544    556    557     1  0.0000000  0.6508444  3
    545    544    556    558     1  0.0000000  0.6508444  3
    546    544    540    547     1  0.0000000  0.6508444  3
    546    544    540    569     1  0.0000000  0.6508444  3
    546    544    556    562     1  0.0000000  0.6508444  3
    546    544    556    557     1  0.0000000  0.6508444  3
    546    544    556    558     1  0.0000000  0.6508444  3
    547    550    559    560     1  0.0000000  0.6508444  3
    547    550    559    561     1  0.0000000  0.6508444  3
    548    547    540    569     1  0.0000000  0.6508444  3
    548    547    550    559     1  0.0000000  0.6508444  3
    548    547    550    551     1  0.0000000  0.6508444  3
    548    547    550    552     1  0.0000000  0.6508444  3
    549    547    540    569     1  0.0000000  0.6508444  3
    549    547    550    559     1  0.0000000  0.6508444  3
    549    547    550    551     1  0.0000000  0.6508444  3
    549    547    550    552     1  0.0000000  0.6508444  3
    550    547    540    569     1  0.0000000  0.6508444  3
    551    550    559    568     1  0.0000000  1.0460000  1
    551    550    559    568     1  0.0000000  0.0000000  3
    551    550    559    560     1  0.0000000  0.6508444  3
    551    550    559    561     1  0.0000000  0.6508444  3
    552    550    559    568     1  0.0000000  1.0460000  1
    552    550    559    568     1  0.0000000  0.0000000  3
    552    550    559    560     1  0.0000000  0.6508444  3
    552    550    559    561     1  0.0000000  0.6508444  3
    553    541    540    569     1  0.0000000  0.6508444  3
    554    553    565   1198     1  0.0000000  1.0460000  1
    554    553    565   1198     1  0.0000000  0.0000000  3
    554    553    565    566     1  0.0000000  0.6508444  3
    554    553    565    567     1  0.0000000  0.6508444  3
    555    553    565   1198     1  0.0000000  1.0460000  1
    555    553    565   1198     1  0.0000000  0.0000000  3
    555    553    565    566     1  0.0000000  0.6508444  3
    555    553    565    567     1  0.0000000  0.6508444  3
    556    544    540    569     1  0.0000000  0.6508444  3
    557    556    562   1168     1  0.0000000  1.0460000  1
    557    556    562   1168     1  0.0000000  0.0000000  3
    557    556    562    563     1  0.0000000  0.6508444  3
    557    556    562    564     1  0.0000000  0.6508444  3
    558    556    562   1168     1  0.0000000  1.0460000  1
    558    556    562   1168     1  0.0000000  0.0000000  3
    558    556    562    563     1  0.0000000  0.6508444  3
    558    556    562    564     1  0.0000000  0.6508444  3
    562   1168   1159   1160     1  0.0000000  1.6038667  3
    562   1168   1159   1161     1  0.0000000  1.6038667  3
    563    562   1168   1159     1  0.0000000  1.6038667  3
    564    562   1168   1159     1  0.0000000  1.6038667  3
    565   1198   1189   1190     1  0.0000000  1.6038667  3
    565   1198   1189   1191     1  0.0000000  1.6038667  3
    566    565   1198   1189     1  0.0000000  1.6038667  3
    567    565   1198   1189     1  0.0000000  1.6038667  3
    570    571    583    584     1  0.0000000  0.6508444  3
    570    571    583    585     1  0.0000000  0.6508444  3
    570    574    586    587     1  0.0000000  0.6508444  3
    570    574    586    588     1  0.0000000  0.6508444  3
    570    577    580    581     1  0.0000000  0.6508444  3
    570    577    580    582     1  0.0000000  0.6508444  3
    571    570    574    575     1  0.0000000  0.6508444  3
    571    570    574    576     1  0.0000000  0.6508444  3
    571    570    577    578     1  0.0000000  0.6508444  3
    571    570    577    579     1  0.0000000  0.6508444  3
    571    583    595    596     1  0.0000000  0.6508444  3
    571    583    595    597     1  0.0000000  0.6508444  3
    572    571    570    574     1  0.0000000  0.6508444  3
    572    571    570    577     1  0.0000000  0.6508444  3
    572    571    570    599     1  0.0000000  0.6508444  3
    572    571    583    595     1  0.0000000  0.6508444  3
    572    571    583    584     1  0.0000000  0.6508444  3
    572    571    583    585     1  0.0000000  0.6508444  3
    573    571    570    574     1  0.0000000  0.6508444  3
    573    571    570    577     1  0.0000000  0.6508444  3
    573    571    570    599     1  0.0000000  0.6508444  3
    573    571    583    595     1  0.0000000  0.6508444  3
    573    571    583    584     1  0.0000000  0.6508444  3
    573    571    583    585     1  0.0000000  0.6508444  3
    574    570    577    578     1  0.0000000  0.6508444  3
    574    570    577    579     1  0.0000000  0.6508444  3
    574    586    592    593     1  0.0000000  0.6508444  3
    574    586    592    594     1  0.0000000  0.6508444  3
    575    574    570    577     1  0.0000000  0.6508444  3
    575    574    570    599     1  0.0000000  0.6508444  3
    575    574    586    592     1  0.0000000  0.6508444  3
    575    574    586    587     1  0.0000000  0.6508444  3
    575    574    586    588     1  0.0000000  0.6508444  3
    576    574    570    577     1  0.0000000  0.6508444  3
    576    574    570    599     1  0.0000000  0.6508444  3
    576    574    586    592     1  0.0000000  0.6508444  3
    576    574    586    587     1  0.0000000  0.6508444  3
    576    574    586    588     1  0.0000000  0.6508444  3
    577    580    589    590     1  0.0000000  0.6508444  3
    577    580    589    591     1  0.0000000  0.6508444  3
    578    577    570    599     1  0.0000000  0.6508444  3
    578    577    580    589     1  0.0000000  0.6508444  3
    578    577    580    581     1  0.0000000  0.6508444  3
    578    577    580    582     1  0.0000000  0.6508444  3
    579    577    570    599     1  0.0000000  0.6508444  3
    579    577    580    589     1  0.0000000  0.6508444  3
    579    577    580    581     1  0.0000000  0.6508444  3
    579    577    580    582     1  0.0000000  0.6508444  3
    580    577    570    599     1  0.0000000  0.6508444  3
    581    580    589    598     1  0.0000000  1.0460000  1
    581    580    589    598     1  0.0000000  0.0000000  3
    581    580    589    590     1  0.0000000  0.6508444  3
    581    580    589    591     1  0.0000000  0.6508444  3
    582    580    589    598     1  0.0000000  1.0460000  1
    582    580    589    598     1  0.0000000  0.0000000  3
    582    580    589    590     1  0.0000000  0.6508444  3
    582    580    589    591     1  0.0000000  0.6508444  3
    583    571    570    599     1  0.0000000  0.6508444  3
    584    583    595   1258     1  0.0000000  1.0460000  1
    584    583    595   1258     1  0.0000000  0.0000000  3
    584    583    595    596     1  0.0000000  0.6508444  3
    584    583    595    597     1  0.0000000  0.6508444  3
    585    583    595   1258     1  0.0000000  1.0460000  1
    585    583    595   1258     1  0.0000000  0.0000000  3
    585    583    595    596     1  0.0000000  0.6508444  3
    585    583    595    597     1  0.0000000  0.6508444  3
    586    574    570    599     1  0.0000000  0.6508444  3
    587    586    592   1228     1  0.0000000  1.0460000  1
    587    586    592   1228     1  0.0000000  0.0000000  3
    587    586    592    593     1  0.0000000  0.6508444  3
    587    586    592    594     1  0.0000000  0.6508444  3
    588    586    592   1228     1  0.0000000  1.0460000  1
    588    586    592   1228     1  0.0000000  0.0000000  3
    588    586    592    593     1  0.0000000  0.6508444  3
    588    586    592    594     1  0.0000000  0.6508444  3
    592   1228   1219   1220     1  0.0000000  1.6038667  3
    592   1228   1219   1221     1  0.0000000  1.6038667  3
    593    592   1228   1219     1  0.0000000  1.6038667  3
    594    592   1228   1219     1  0.0000000  1.6038667  3
    595   1258   1249   1250     1  0.0000000  1.6038667  3
    595   1258   1249   1251     1  0.0000000  1.6038667  3
    596    595   1258   1249     1  0.0000000  1.6038667  3
    597    595   1258   1249     1  0.0000000  1.6038667  3
    600    601    613    614     1  0.0000000  0.6508444  3
    600    601    613    615     1  0.0000000  0.6508444  3
    600    604    616    617     1  0.0000000  0.6508444  3
    600    604    616    618     1  0.0000000  0.6508444  3
    600    607    610    611     1  0.0000000  0.6508444  3
    600    607    610    612     1  0.0000000  0.6508444  3
    601    600    604    605     1  0.0000000  0.6508444  3
    601    600    604    606     1  0.0000000  0.6508444  3
    601    600    607    608     1  0.0000000  0.6508444  3
    601    600    607    609     1  0.0000000  0.6508444  3
    601    613    625    626     1  0.0000000  0.6508444  3
    601    613    625    627     1  0.0000000  0.6508444  3
    602    601    600    604     1  0.0000000  0.6508444  3
    602    601    600    607     1  0.0000000  0.6508444  3
    602    601    600    629     1  0.0000000  0.6508444  3
    602    601    613    625     1  0.0000000  0.6508444  3
    602    601    613    614     1  0.0000000  0.6508444  3
    602    601    613    615     1  0.0000000  0.6508444  3
    603    601    600    604     1  0.0000000  0.6508444  3
    603    601    600    607     1  0.0000000  0.6508444  3
    603    601    600    629     1  0.0000000  0.6508444  3
    603    601    613    625     1  0.0000000  0.6508444  3
    603    601    613    614     1  0.0000000  0.6508444  3
    603    601    613    615     1  0.0000000  0.6508444  3
    604    600    607    608     1  0.0000000  0.6508444  3
    604    600    607    609     1  0.0000000  0.6508444  3
    604    616    622    623     1  0.0000000  0.6508444  3
    604    616    622    624     1  0.0000000  0.6508444  3
    605    604    600    607     1  0.0000000  0.6508444  3
    605    604    600    629     1  0.0000000  0.6508444  3
    605    604    616    622     1  0.0000000  0.6508444  3
    605    604    616    617     1  0.0000000  0.6508444  3
    605    604    616    618     1  0.0000000  0.6508444  3
    606    604    600    607     1  0.0000000  0.6508444  3
    606    604    600    629     1  0.0000000  0.6508444  3
    606    604    616    622     1  0.0000000  0.6508444  3
    606    604    616    617     1  0.0000000  0.6508444  3
    606    604    616    618     1  0.0000000  0.6508444  3
    607    610    619    620     1  0.0000000  0.6508444  3
    607    610    619    621     1  0.0000000  0.6508444  3
    608    607    600    629     1  0.0000000  0.6508444  3
    608    607    610    619     1  0.0000000  0.6508444  3
    608    607    610    611     1  0.0000000  0.6508444  3
    608    607    610    612     1  0.0000000  0.6508444  3
    609    607    600    629     1  0.0000000  0.6508444  3
    609    607    610    619     1  0.0000000  0.6508444  3
    609    607    610    611     1  0.0000000  0.6508444  3
    609    607    610    612     1  0.0000000  0.6508444  3
    610    607    600    629     1  0.0000000  0.6508444  3
    611    610    619    628     1  0.0000000  1.0460000  1
    611    610    619    628     1  0.0000000  0.0000000  3
    611    610    619    620     1  0.0000000  0.6508444  3
    611    610    619    621     1  0.0000000  0.6508444  3
    612    610    619    628     1  0.0000000  1.0460000  1
    612    610    619    628     1  0.0000000  0.0000000  3
    612    610    619    620     1  0.0000000  0.6508444  3
    612    610    619    621     1  0.0000000  0.6508444  3
    613    601    600    629     1  0.0000000  0.6508444  3
    614    613    625   1318     1  0.0000000  1.0460000  1
    614    613    625   1318     1  0.0000000  0.0000000  3
    614    613    625    626     1  0.0000000  0.6508444  3
    614    613    625    627     1  0.0000000  0.6508444  3
    615    613    625   1318     1  0.0000000  1.0460000  1
    615    613    625   1318     1  0.0000000  0.0000000  3
    615    613    625    626     1  0.0000000  0.6508444  3
    615    613    625    627     1  0.0000000  0.6508444  3
    616    604    600    629     1  0.0000000  0.6508444  3
    617    616    622   1288     1  0.0000000  1.0460000  1
    617    616    622   1288     1  0.0000000  0.0000000  3
    617    616    622    623     1  0.0000000  0.6508444  3
    617    616    622    624     1  0.0000000  0.6508444  3
    618    616    622   1288     1  0.0000000  1.0460000  1
    618    616    622   1288     1  0.0000000  0.0000000  3
    618    616    622    623     1  0.0000000  0.6508444  3
    618    616    622    624     1  0.0000000  0.6508444  3
    622   1288   1279   1280     1  0.0000000  1.6038667  3
    622   1288   1279   1281     1  0.0000000  1.6038667  3
    623    622   1288   1279     1  0.0000000  1.6038667  3
    624    622   1288   1279     1  0.0000000  1.6038667  3
    625   1318   1309   1310     1  0.0000000  1.6038667  3
    625   1318   1309   1311     1  0.0000000  1.6038667  3
    626    625   1318   1309     1  0.0000000  1.6038667  3
    627    625   1318   1309     1  0.0000000  1.6038667  3
    630    631    643    644     1  0.0000000  0.6508444  3
    630    631    643    645     1  0.0000000  0.6508444  3
    630    634    646    647     1  0.0000000  0.6508444  3
    630    634    646    648     1  0.0000000  0.6508444  3
    630    637    640    641     1  0.0000000  0.6508444  3
    630    637    640    642     1  0.0000000  0.6508444  3
    631    630    634    635     1  0.0000000  0.6508444  3
    631    630    634    636     1  0.0000000  0.6508444  3
    631    630    637    638     1  0.0000000  0.6508444  3
    631    630    637    639     1  0.0000000  0.6508444  3
    631    643    655    656     1  0.0000000  0.6508444  3
    631    643    655    657     1  0.0000000  0.6508444  3
    632    631    630    634     1  0.0000000  0.6508444  3
    632    631    630    637     1  0.0000000  0.6508444  3
    632    631    630    659     1  0.0000000  0.6508444  3
    632    631    643    655     1  0.0000000  0.6508444  3
    632    631    643    644     1  0.0000000  0.6508444  3
    632    631    643    645     1  0.0000000  0.6508444  3
    633    631    630    634     1  0.0000000  0.6508444  3
    633    631    630    637     1  0.0000000  0.6508444  3
    633    631    630    659     1  0.0000000  0.6508444  3
    633    631    643    655     1  0.0000000  0.6508444  3
    633    631    643    644     1  0.0000000  0.6508444  3
    633    631    643    645     1  0.0000000  0.6508444  3
    634    630    637    638     1  0.0000000  0.6508444  3
    634    630    637    639     1  0.0000000  0.6508444  3
    634    646    652    653     1  0.0000000  0.6508444  3
    634    646    652    654     1  0.0000000  0.6508444  3
    635    634    630    637     1  0.0000000  0.6508444  3
    635    634    630    659     1  0.0000000  0.6508444  3
    635    634    646    652     1  0.0000000  0.6508444  3
    635    634    646    647     1  0.0000000  0.6508444  3
    635    634    646    648     1  0.0000000  0.6508444  3
    636    634    630    637     1  0.0000000  0.6508444  3
    636    634    630    659     1  0.0000000  0.6508444  3
    636    634    646    652     1  0.0000000  0.6508444  3
    636    634    646    647     1  0.0000000  0.6508444  3
    636    634    646    648     1  0.0000000  0.6508444  3
    637    640    649    650     1  0.0000000  0.6508444  3
    637    640    649    651     1  0.0000000  0.6508444  3
    638    637    630    659     1  0.0000000  0.6508444  3
    638    637    640    649     1  0.0000000  0.6508444  3
    638    637    640    641     1  0.0000000  0.6508444  3
    638    637    640    642     1  0.0000000  0.6508444  3
    639    637    630    659     1  0.0000000  0.6508444  3
    639    637    640    649     1  0.0000000  0.6508444  3
    639    637    640    641     1  0.0000000  0.6508444  3
    639    637    640    642     1  0.0000000  0.6508444  3
    640    637    630    659     1  0.0000000  0.6508444  3
    641    640    649    658     1  0.0000000  1.0460000  1
    641    640    649    658     1  0.0000000  0.0000000  3
    641    640    649    650     1  0.0000000  0.6508444  3
    641    640    649    651     1  0.0000000  0.6508444  3
    642    640    649    658     1  0.0000000  1.0460000  1
    642    640    649    658     1  0.0000000  0.0000000  3
    642    640    649    650     1  0.0000000  0.6508444  3
    642    640    649    651     1  0.0000000  0.6508444  3
    643    631    630    659     1  0.0000000  0.6508444  3
    644    643    655   1378     1  0.0000000  1.0460000  1
    644    643    655   1378     1  0.0000000  0.0000000  3
    644    643    655    656     1  0.0000000  0.6508444  3
    644    643    655    657     1  0.0000000  0.6508444  3
    645    643    655   1378     1  0.0000000  1.0460000  1
    645    643    655   1378     1  0.0000000  0.0000000  3
    645    643    655    656     1  0.0000000  0.6508444  3
    645    643    655    657     1  0.0000000  0.6508444  3
    646    634    630    659     1  0.0000000  0.6508444  3
    647    646    652   1348     1  0.0000000  1.0460000  1
    647    646    652   1348     1  0.0000000  0.0000000  3
    647    646    652    653     1  0.0000000  0.6508444  3
    647    646    652    654     1  0.0000000  0.6508444  3
    648    646    652   1348     1  0.0000000  1.0460000  1
    648    646    652   1348     1  0.0000000  0.0000000  3
    648    646    652    653     1  0.0000000  0.6508444  3
    648    646    652    654     1  0.0000000  0.6508444  3
    652   1348   1339   1340     1  0.0000000  1.6038667  3
    652   1348   1339   1341     1  0.0000000  1.6038667  3
    653    652   1348   1339     1  0.0000000  1.6038667  3
    654    652   1348   1339     1  0.0000000  1.6038667  3
    655   1378   1369   1370     1  0.0000000  1.6038667  3
    655   1378   1369   1371     1  0.0000000  1.6038667  3
    656    655   1378   1369     1  0.0000000  1.6038667  3
    657    655   1378   1369     1  0.0000000  1.6038667  3
    660    661    673    674     1  0.0000000  0.6508444  3
    660    661    673    675     1  0.0000000  0.6508444  3
    660    664    676    677     1  0.0000000  0.6508444  3
    660    664    676    678     1  0.0000000  0.6508444  3
    660    667    670    671     1  0.0000000  0.6508444  3
    660    667    670    672     1  0.0000000  0.6508444  3
    661    660    664    665     1  0.0000000  0.6508444  3
    661    660    664    666     1  0.0000000  0.6508444  3
    661    660    667    668     1  0.0000000  0.6508444  3
    661    660    667    669     1  0.0000000  0.6508444  3
    661    673    685    686     1  0.0000000  0.6508444  3
    661    673    685    687     1  0.0000000  0.6508444  3
    662    661    660    664     1  0.0000000  0.6508444  3
    662    661    660    667     1  0.0000000  0.6508444  3
    662    661    660    689     1  0.0000000  0.6508444  3
    662    661    673    685     1  0.0000000  0.6508444  3
    662    661    673    674     1  0.0000000  0.6508444  3
    662    661    673    675     1  0.0000000  0.6508444  3
    663    661    660    664     1  0.0000000  0.6508444  3
    663    661    660    667     1  0.0000000  0.6508444  3
    663    661    660    689     1  0.0000000  0.6508444  3
    663    661    673    685     1  0.0000000  0.6508444  3
    663    661    673    674     1  0.0000000  0.6508444  3
    663    661    673    675     1  0.0000000  0.6508444  3
    664    660    667    668     1  0.0000000  0.6508444  3
    664    660    667    669     1  0.0000000  0.6508444  3
    664    676    682    683     1  0.0000000  0.6508444  3
    664    676    682    684     1  0.0000000  0.6508444  3
    665    664    660    667     1  0.0000000  0.6508444  3
    665    664    660    689     1  0.0000000  0.6508444  3
    665    664    676    682     1  0.0000000  0.6508444  3
    665    664    676    677     1  0.0000000  0.6508444  3
    665    664    676    678     1  0.0000000  0.6508444  3
    666    664    660    667     1  0.0000000  0.6508444  3
    666    664    660    689     1  0.0000000  0.6508444  3
    666    664    676    682     1  0.0000000  0.6508444  3
    666    664    676    677     1  0.0000000  0.6508444  3
    666    664    676    678     1  0.0000000  0.6508444  3
    667    670    679    680     1  0.0000000  0.6508444  3
    667    670    679    681     1  0.0000000  0.6508444  3
    668    667    660    689     1  0.0000000  0.6508444  3
    668    667    670    679     1  0.0000000  0.6508444  3
    668    667    670    671     1  0.0000000  0.6508444  3
    668    667    670    672     1  0.0000000  0.6508444  3
    669    667    660    689     1  0.0000000  0.6508444  3
    669    667    670    679     1  0.0000000  0.6508444  3
    669    667    670    671     1  0.0000000  0.6508444  3
    669    667    670    672     1  0.0000000  0.6508444  3
    670    667    660    689     1  0.0000000  0.6508444  3
    671    670    679    688     1  0.0000000  1.0460000  1
    671    670    679    688     1  0.0000000  0.0000000  3
    671    670    679    680     1  0.0000000  0.6508444  3
    671    670    679    681     1  0.0000000  0.6508444  3
    672    670    679    688     1  0.0000000  1.0460000  1
    672    670    679    688     1  0.0000000  0.0000000  3
    672    670    679    680     1  0.0000000  0.6508444  3
    672    670    679    681     1  0.0000000  0.6508444  3
    673    661    660    689     1  0.0000000  0.6508444  3
    674    673    685   1438     1  0.0000000  1.0460000  1
    674    673    685   1438     1  0.0000000  0.0000000  3
    674    673    685    686     1  0.0000000  0.6508444  3
    674    673    685    687     1  0.0000000  0.6508444  3
    675    673    685   1438     1  0.0000000  1.0460000  1
    675    673    685   1438     1  0.0000000  0.0000000  3
    675    673    685    686     1  0.0000000  0.6508444  3
    675    673    685    687     1  0.0000000  0.6508444  3
    676    664    660    689     1  0.0000000  0.6508444  3
    677    676    682   1408     1  0.0000000  1.0460000  1
    677    676    682   1408     1  0.0000000  0.0000000  3
    677    676    682    683     1  0.0000000  0.6508444  3
    677    676    682    684     1  0.0000000  0.6508444  3
    678    676    682   1408     1  0.0000000  1.0460000  1
    678    676    682   1408     1  0.0000000  0.0000000  3
    678    676    682    683     1  0.0000000  0.6508444  3
    678    676    682    684     1  0.0000000  0.6508444  3
    682   1408   1399   1400     1  0.0000000  1.6038667  3
    682   1408   1399   1401     1  0.0000000  1.6038667  3
    683    682   1408   1399     1  0.0000000  1.6038667  3
    684    682   1408   1399     1  0.0000000  1.6038667  3
    685   1438   1429   1430     1  0.0000000  1.6038667  3
    685   1438   1429   1431     1  0.0000000  1.6038667  3
    686    685   1438   1429     1  0.0000000  1.6038667  3
    687    685   1438   1429     1  0.0000000  1.6038667  3
    690    691    703    704     1  0.0000000  0.6508444  3
    690    691    703    705     1  0.0000000  0.6508444  3
    690    694    706    707     1  0.0000000  0.6508444  3
    690    694    706    708     1  0.0000000  0.6508444  3
    690    697    700    701     1  0.0000000  0.6508444  3
    690    697    700    702     1  0.0000000  0.6508444  3
    691    690    694    695     1  0.0000000  0.6508444  3
    691    690    694    696     1  0.0000000  0.6508444  3
    691    690    697    698     1  0.0000000  0.6508444  3
    691    690    697    699     1  0.0000000  0.6508444  3
    691    703    715    716     1  0.0000000  0.6508444  3
    691    703    715    717     1  0.0000000  0.6508444  3
    692    691    690    694     1  0.0000000  0.6508444  3
    692    691    690    697     1  0.0000000  0.6508444  3
    692    691    690    719     1  0.0000000  0.6508444  3
    692    691    703    715     1  0.0000000  0.6508444  3
    692    691    703    704     1  0.0000000  0.6508444  3
    692    691    703    705     1  0.0000000  0.6508444  3
    693    691    690    694     1  0.0000000  0.6508444  3
    693    691    690    697     1  0.0000000  0.6508444  3
    693    691    690    719     1  0.0000000  0.6508444  3
    693    691    703    715     1  0.0000000  0.6508444  3
    693    691    703    704     1  0.0000000  0.6508444  3
    693    691    703    705     1  0.0000000  0.6508444  3
    694    690    697    698     1  0.0000000  0.6508444  3
    694    690    697    699     1  0.0000000  0.6508444  3
    694    706    712    713     1  0.0000000  0.6508444  3
    694    706    712    714     1  0.0000000  0.6508444  3
    695    694    690    697     1  0.0000000  0.6508444  3
    695    694    690    719     1  0.0000000  0.6508444  3
    695    694    706    712     1  0.0000000  0.6508444  3
    695    694    706    707     1  0.0000000  0.6508444  3
    695    694    706    708     1  0.0000000  0.6508444  3
    696    694    690    697     1  0.0000000  0.6508444  3
    696    694    690    719     1  0.0000000  0.6508444  3
    696    694    706    712     1  0.0000000  0.6508444  3
    696    694    706    707     1  0.0000000  0.6508444  3
    696    694    706    708     1  0.0000000  0.6508444  3
    697    700    709    710     1  0.0000000  0.6508444  3
    697    700    709    711     1  0.0000000  0.6508444  3
    698    697    690    719     1  0.0000000  0.6508444  3
    698    697    700    709     1  0.0000000  0.6508444  3
    698    697    700    701     1  0.0000000  0.6508444  3
    698    697    700    702     1  0.0000000  0.6508444  3
    699    697    690    719     1  0.0000000  0.6508444  3
    699    697    700    709     1  0.0000000  0.6508444  3
    699    697    700    701     1  0.0000000  0.6508444  3
    699    697    700    702     1  0.0000000  0.6508444  3
    700    697    690    719     1  0.0000000  0.6508444  3
    701    700    709    718     1  0.0000000  1.0460000  1
    701    700    709    718     1  0.0000000  0.0000000  3
    701    700    709    710     1  0.0000000  0.6508444  3
    701    700    709    711     1  0.0000000  0.6508444  3
    702    700    709    718     1  0.0000000  1.0460000  1
    702    700    709    718     1  0.0000000  0.0000000  3
    702    700    709    710     1  0.0000000  0.6508444  3
    702    700    709    711     1  0.0000000  0.6508444  3
    703    691    690    719     1  0.0000000  0.6508444  3
    704    703    715   1498     1  0.0000000  1.0460000  1
    704    703    715   1498     1  0.0000000  0.0000000  3
    704    703    715    716     1  0.0000000  0.6508444  3
    704    703    715    717     1  0.0000000  0.6508444  3
    705    703    715   1498     1  0.0000000  1.0460000  1
    705    703    715   1498     1  0.0000000  0.0000000  3
    705    703    715    716     1  0.0000000  0.6508444  3
    705    703    715    717     1  0.0000000  0.6508444  3
    706    694    690    719     1  0.0000000  0.6508444  3
    707    706    712   1468     1  0.0000000  1.0460000  1
    707    706    712   1468     1  0.0000000  0.0000000  3
    707    706    712    713     1  0.0000000  0.6508444  3
    707    706    712    714     1  0.0000000  0.6508444  3
    708    706    712   1468     1  0.0000000  1.0460000  1
    708    706    712   1468     1  0.0000000  0.0000000  3
    708    706    712    713     1  0.0000000  0.6508444  3
    708    706    712    714     1  0.0000000  0.6508444  3
    712   1468   1459   1460     1  0.0000000  1.6038667  3
    712   1468   1459   1461     1  0.0000000  1.6038667  3
    713    712   1468   1459     1  0.0000000  1.6038667  3
    714    712   1468   1459     1  0.0000000  1.6038667  3
    715   1498   1489   1490     1  0.0000000  1.6038667  3
    715   1498   1489   1491     1  0.0000000  1.6038667  3
    716    715   1498   1489     1  0.0000000  1.6038667  3
    717    715   1498   1489     1  0.0000000  1.6038667  3
    720    721    733    734     1  0.0000000  0.6508444  3
    720    721    733    735     1  0.0000000  0.6508444  3
    720    724    736    737     1  0.0000000  0.6508444  3
    720    724    736    738     1  0.0000000  0.6508444  3
    720    727    730    731     1  0.0000000  0.6508444  3
    720    727    730    732     1  0.0000000  0.6508444  3
    721    720    724    725     1  0.0000000  0.6508444  3
    721    720    724    726     1  0.0000000  0.6508444  3
    721    720    727    728     1  0.0000000  0.6508444  3
    721    720    727    729     1  0.0000000  0.6508444  3
    721    733    745    746     1  0.0000000  0.6508444  3
    721    733    745    747     1  0.0000000  0.6508444  3
    722    721    720    724     1  0.0000000  0.6508444  3
    722    721    720    727     1  0.0000000  0.6508444  3
    722    721    720    749     1  0.0000000  0.6508444  3
    722    721    733    745     1  0.0000000  0.6508444  3
    722    721    733    734     1  0.0000000  0.6508444  3
    722    721    733    735     1  0.0000000  0.6508444  3
    723    721    720    724     1  0.0000000  0.6508444  3
    723    721    720    727     1  0.0000000  0.6508444  3
    723    721    720    749     1  0.0000000  0.6508444  3
    723    721    733    745     1  0.0000000  0.6508444  3
    723    721    733    734     1  0.0000000  0.6508444  3
    723    721    733    735     1  0.0000000  0.6508444  3
    724    720    727    728     1  0.0000000  0.6508444  3
    724    720    727    729     1  0.0000000  0.6508444  3
    724    736    742    743     1  0.0000000  0.6508444  3
    724    736    742    744     1  0.0000000  0.6508444  3
    725    724    720    727     1  0.0000000  0.6508444  3
    725    724    720    749     1  0.0000000  0.6508444  3
    725    724    736    742     1  0.0000000  0.6508444  3
    725    724    736    737     1  0.0000000  0.6508444  3
    725    724    736    738     1  0.0000000  0.6508444  3
    726    724    720    727     1  0.0000000  0.6508444  3
    726    724    720    749     1  0.0000000  0.6508444  3
    726    724    736    742     1  0.0000000  0.6508444  3
    726    724    736    737     1  0.0000000  0.6508444  3
    726    724    736    738     1  0.0000000  0.6508444  3
    727    730    739    740     1  0.0000000  0.6508444  3
    727    730    739    741     1  0.0000000  0.6508444  3
    728    727    720    749     1  0.0000000  0.6508444  3
    728    727    730    739     1  0.0000000  0.6508444  3
    728    727    730    731     1  0.0000000  0.6508444  3
    728    727    730    732     1  0.0000000  0.6508444  3
    729    727    720    749     1  0.0000000  0.6508444  3
    729    727    730    739     1  0.0000000  0.6508444  3
    729    727    730    731     1  0.0000000  0.6508444  3
    729    727    730    732     1  0.0000000  0.6508444  3
    730    727    720    749     1  0.0000000  0.6508444  3
    731    730    739    748     1  0.0000000  1.0460000  1
    731    730    739    748     1  0.0000000  0.0000000  3
    731    730    739    740     1  0.0000000  0.6508444  3
    731    730    739    741     1  0.0000000  0.6508444  3
    732    730    739    748     1  0.0000000  1.0460000  1
    732    730    739    748     1  0.0000000  0.0000000  3
    732    730    739    740     1  0.0000000  0.6508444  3
    732    730    739    741     1  0.0000000  0.6508444  3
    733    721    720    749     1  0.0000000  0.6508444  3
    734    733    745   1558     1  0.0000000  1.0460000  1
    734    733    745   1558     1  0.0000000  0.0000000  3
    734    733    745    746     1  0.0000000  0.6508444  3
    734    733    745    747     1  0.0000000  0.6508444  3
    735    733    745   1558     1  0.0000000  1.0460000  1
    735    733    745   1558     1  0.0000000  0.0000000  3
    735    733    745    746     1  0.0000000  0.6508444  3
    735    733    745    747     1  0.0000000  0.6508444  3
    736    724    720    749     1  0.0000000  0.6508444  3
    737    736    742   1528     1  0.0000000  1.0460000  1
    737    736    742   1528     1  0.0000000  0.0000000  3
    737    736    742    743     1  0.0000000  0.6508444  3
    737    736    742    744     1  0.0000000  0.6508444  3
    738    736    742   1528     1  0.0000000  1.0460000  1
    738    736    742   1528     1  0.0000000  0.0000000  3
    738    736    742    743     1  0.0000000  0.6508444  3
    738    736    742    744     1  0.0000000  0.6508444  3
    742   1528   1519   1520     1  0.0000000  1.6038667  3
    742   1528   1519   1521     1  0.0000000  1.6038667  3
    743    742   1528   1519     1  0.0000000  1.6038667  3
    744    742   1528   1519     1  0.0000000  1.6038667  3
    745   1558   1549   1550     1  0.0000000  1.6038667  3
    745   1558   1549   1551     1  0.0000000  1.6038667  3
    746    745   1558   1549     1  0.0000000  1.6038667  3
    747    745   1558   1549     1  0.0000000  1.6038667  3
    750    751    763    764     1  0.0000000  0.6508444  3
    750    751    763    765     1  0.0000000  0.6508444  3
    750    754    766    767     1  0.0000000  0.6508444  3
    750    754    766    768     1  0.0000000  0.6508444  3
    750    757    760    761     1  0.0000000  0.6508444  3
    750    757    760    762     1  0.0000000  0.6508444  3
    751    750    754    755     1  0.0000000  0.6508444  3
    751    750    754    756     1  0.0000000  0.6508444  3
    751    750    757    758     1  0.0000000  0.6508444  3
    751    750    757    759     1  0.0000000  0.6508444  3
    751    763    775    776     1  0.0000000  0.6508444  3
    751    763    775    777     1  0.0000000  0.6508444  3
    752    751    750    754     1  0.0000000  0.6508444  3
    752    751    750    757     1  0.0000000  0.6508444  3
    752    751    750    779     1  0.0000000  0.6508444  3
    752    751    763    775     1  0.0000000  0.6508444  3
    752    751    763    764     1  0.0000000  0.6508444  3
    752    751    763    765     1  0.0000000  0.6508444  3
    753    751    750    754     1  0.0000000  0.6508444  3
    753    751    750    757     1  0.0000000  0.6508444  3
    753    751    750    779     1  0.0000000  0.6508444  3
    753    751    763    775     1  0.0000000  0.6508444  3
    753    751    763    764     1  0.0000000  0.6508444  3
    753    751    763    765     1  0.0000000  0.6508444  3
    754    750    757    758     1  0.0000000  0.6508444  3
    754    750    757    759     1  0.0000000  0.6508444  3
    754    766    772    773     1  0.0000000  0.6508444  3
    754    766    772    774     1  0.0000000  0.6508444  3
    755    754    750    757     1  0.0000000  0.6508444  3
    755    754    750    779     1  0.0000000  0.6508444  3
    755    754    766    772     1  0.0000000  0.6508444  3
    755    754    766    767     1  0.0000000  0.6508444  3
    755    754    766    768     1  0.0000000  0.6508444  3
    756    754    750    757     1  0.0000000  0.6508444  3
    756    754    750    779     1  0.0000000  0.6508444  3
    756    754    766    772     1  0.0000000  0.6508444  3
    756    754    766    767     1  0.0000000  0.6508444  3
    756    754    766    768     1  0.0000000  0.6508444  3
    757    760    769    770     1  0.0000000  0.6508444  3
    757    760    769    771     1  0.0000000  0.6508444  3
    758    757    750    779     1  0.0000000  0.6508444  3
    758    757    760    769     1  0.0000000  0.6508444  3
    758    757    760    761     1  0.0000000  0.6508444  3
    758    757    760    762     1  0.0000000  0.6508444  3
    759    757    750    779     1  0.0000000  0.6508444  3
    759    757    760    769     1  0.0000000  0.6508444  3
    759    757    760    761     1  0.0000000  0.6508444  3
    759    757    760    762     1  0.0000000  0.6508444  3
    760    757    750    779     1  0.0000000  0.6508444  3
    761    760    769    778     1  0.0000000  1.0460000  1
    761    760    769    778     1  0.0000000  0.0000000  3
    761    760    769    770     1  0.0000000  0.6508444  3
    761    760    769    771     1  0.0000000  0.6508444  3
    762    760    769    778     1  0.0000000  1.0460000  1
    762    760    769    778     1  0.0000000  0.0000000  3
    762    760    769    770     1  0.0000000  0.6508444  3
    762    760    769    771     1  0.0000000  0.6508444  3
    763    751    750    779     1  0.0000000  0.6508444  3
    764    763    775   1618     1  0.0000000  1.0460000  1
    764    763    775   1618     1  0.0000000  0.0000000  3
    764    763    775    776     1  0.0000000  0.6508444  3
    764    763    775    777     1  0.0000000  0.6508444  3
    765    763    775   1618     1  0.0000000  1.0460000  1
    765    763    775   1618     1  0.0000000  0.0000000  3
    765    763    775    776     1  0.0000000  0.6508444  3
    765    763    775    777     1  0.0000000  0.6508444  3
    766    754    750    779     1  0.0000000  0.6508444  3
    767    766    772   1588     1  0.0000000  1.0460000  1
    767    766    772   1588     1  0.0000000  0.0000000  3
    767    766    772    773     1  0.0000000  0.6508444  3
    767    766    772    774     1  0.0000000  0.6508444  3
    768    766    772   1588     1  0.0000000  1.0460000  1
    768    766    772   1588     1  0.0000000  0.0000000  3
    768    766    772    773     1  0.0000000  0.6508444  3
    768    766    772    774     1  0.0000000  0.6508444  3
    772   1588   1579   1580     1  0.0000000  1.6038667  3
    772   1588   1579   1581     1  0.0000000  1.6038667  3
    773    772   1588   1579     1  0.0000000  1.6038667  3
    774    772   1588   1579     1  0.0000000  1.6038667  3
    775   1618   1609   1610     1  0.0000000  1.6038667  3
    775   1618   1609   1611     1  0.0000000  1.6038667  3
    776    775   1618   1609     1  0.0000000  1.6038667  3
    777    775   1618   1609     1  0.0000000  1.6038667  3
    780    781    793    794     1  0.0000000  0.6508444  3
    780    781    793    795     1  0.0000000  0.6508444  3
    780    784    796    797     1  0.0000000  0.6508444  3
    780    784    796    798     1  0.0000000  0.6508444  3
    780    787    790    791     1  0.0000000  0.6508444  3
    780    787    790    792     1  0.0000000  0.6508444  3
    781    780    784    785     1  0.0000000  0.6508444  3
    781    780    784    786     1  0.0000000  0.6508444  3
    781    780    787    788     1  0.0000000  0.6508444  3
    781    780    787    789     1  0.0000000  0.6508444  3
    781    793    805    806     1  0.0000000  0.6508444  3
    781    793    805    807     1  0.0000000  0.6508444  3
    782    781    780    784     1  0.0000000  0.6508444  3
    782    781    780    787     1  0.0000000  0.6508444  3
    782    781    780    809     1  0.0000000  0.6508444  3
    782    781    793    805     1  0.0000000  0.6508444  3
    782    781    793    794     1  0.0000000  0.6508444  3
    782    781    793    795     1  0.0000000  0.6508444  3
    783    781    780    784     1  0.0000000  0.6508444  3
    783    781    780    787     1  0.0000000  0.6508444  3
    783    781    780    809     1  0.0000000  0.6508444  3
    783    781    793    805     1  0.0000000  0.6508444  3
    783    781    793    794     1  0.0000000  0.6508444  3
    783    781    793    795     1  0.0000000  0.6508444  3
    784    780    787    788     1  0.0000000  0.6508444  3
    784    780    787    789     1  0.0000000  0.6508444  3
    784    796    802    803     1  0.0000000  0.6508444  3
    784    796    802    804     1  0.0000000  0.6508444  3
    785    784    780    787     1  0.0000000  0.6508444  3
    785    784    780    809     1  0.0000000  0.6508444  3
    785    784    796    802     1  0.0000000  0.6508444  3
    785    784    796    797     1  0.0000000  0.6508444  3
    785    784    796    798     1  0.0000000  0.6508444  3
    786    784    780    787     1  0.0000000  0.6508444  3
    786    784    780    809     1  0.0000000  0.6508444  3
    786    784    796    802     1  0.0000000  0.6508444  3
    786    784    796    797     1  0.0000000  0.6508444  3
    786    784    796    798     1  0.0000000  0.6508444  3
    787    790    799    800     1  0.0000000  0.6508444  3
    787    790    799    801     1  0.0000000  0.6508444  3
    788    787    780    809     1  0.0000000  0.6508444  3
    788    787    790    799     1  0.0000000  0.6508444  3
    788    787    790    791     1  0.0000000  0.6508444  3
    788    787    790    792     1  0.0000000  0.6508444  3
    789    787    780    809     1  0.0000000  0.6508444  3
    789    787    790    799     1  0.0000000  0.6508444  3
    789    787    790    791     1  0.0000000  0.6508444  3
    789    787    790    792     1  0.0000000  0.6508444  3
    790    787    780    809     1  0.0000000  0.6508444  3
    791    790    799    808     1  0.0000000  1.0460000  1
    791    790    799    808     1  0.0000000  0.0000000  3
    791    790    799    800     1  0.0000000  0.6508444  3
    791    790    799    801     1  0.0000000  0.6508444  3
    792    790    799    808     1  0.0000000  1.0460000  1
    792    790    799    808     1  0.0000000  0.0000000  3
    792    790    799    800     1  0.0000000  0.6508444  3
    792    790    799    801     1  0.0000000  0.6508444  3
    793    781    780    809     1  0.0000000  0.6508444  3
    794    793    805   1678     1  0.0000000  1.0460000  1
    794    793    805   1678     1  0.0000000  0.0000000  3
    794    793    805    806     1  0.0000000  0.6508444  3
    794    793    805    807     1  0.0000000  0.6508444  3
    795    793    805   1678     1  0.0000000  1.0460000  1
    795    793    805   1678     1  0.0000000  0.0000000  3
    795    793    805    806     1  0.0000000  0.6508444  3
    795    793    805    807     1  0.0000000  0.6508444  3
    796    784    780    809     1  0.0000000  0.6508444  3
    797    796    802   1648     1  0.0000000  1.0460000  1
    797    796    802   1648     1  0.0000000  0.0000000  3
    797    796    802    803     1  0.0000000  0.6508444  3
    797    796    802    804     1  0.0000000  0.6508444  3
    798    796    802   1648     1  0.0000000  1.0460000  1
    798    796    802   1648     1  0.0000000  0.0000000  3
    798    796    802    803     1  0.0000000  0.6508444  3
    798    796    802    804     1  0.0000000  0.6508444  3
    802   1648   1639   1640     1  0.0000000  1.6038667  3
    802   1648   1639   1641     1  0.0000000  1.6038667  3
    803    802   1648   1639     1  0.0000000  1.6038667  3
    804    802   1648   1639     1  0.0000000  1.6038667  3
    805   1678   1669   1670     1  0.0000000  1.6038667  3
    805   1678   1669   1671     1  0.0000000  1.6038667  3
    806    805   1678   1669     1  0.0000000  1.6038667  3
    807    805   1678   1669     1  0.0000000  1.6038667  3
    810    811    823    824     1  0.0000000  0.6508444  3
    810    811    823    825     1  0.0000000  0.6508444  3
    810    814    826    827     1  0.0000000  0.6508444  3
    810    814    826    828     1  0.0000000  0.6508444  3
    810    817    820    821     1  0.0000000  0.6508444  3
    810    817    820    822     1  0.0000000  0.6508444  3
    811    810    814    815     1  0.0000000  0.6508444  3
    811    810    814    816     1  0.0000000  0.6508444  3
    811    810    817    818     1  0.0000000  0.6508444  3
    811    810    817    819     1  0.0000000  0.6508444  3
    811    823    835    836     1  0.0000000  0.6508444  3
    811    823    835    837     1  0.0000000  0.6508444  3
    812    811    810    814     1  0.0000000  0.6508444  3
    812    811    810    817     1  0.0000000  0.6508444  3
    812    811    810    839     1  0.0000000  0.6508444  3
    812    811    823    835     1  0.0000000  0.6508444  3
    812    811    823    824     1  0.0000000  0.6508444  3
    812    811    823    825     1  0.0000000  0.6508444  3
    813    811    810    814     1  0.0000000  0.6508444  3
    813    811    810    817     1  0.0000000  0.6508444  3
    813    811    810    839     1  0.0000000  0.6508444  3
    813    811    823    835     1  0.0000000  0.6508444  3
    813    811    823    824     1  0.0000000  0.6508444  3
    813    811    823    825     1  0.0000000  0.6508444  3
    814    810    817    818     1  0.0000000  0.6508444  3
    814    810    817    819     1  0.0000000  0.6508444  3
    814    826    832    833     1  0.0000000  0.6508444  3
    814    826    832    834     1  0.0000000  0.6508444  3
    815    814    810    817     1  0.0000000  0.6508444  3
    815    814    810    839     1  0.0000000  0.6508444  3
    815    814    826    832     1  0.0000000  0.6508444  3
    815    814    826    827     1  0.0000000  0.6508444  3
    815    814    826    828     1  0.0000000  0.6508444  3
    816    814    810    817     1  0.0000000  0.6508444  3
    816    814    810    839     1  0.0000000  0.6508444  3
    816    814    826    832     1  0.0000000  0.6508444  3
    816    814    826    827     1  0.0000000  0.6508444  3
    816    814    826    828     1  0.0000000  0.6508444  3
    817    820    829    830     1  0.0000000  0.6508444  3
    817    820    829    831     1  0.0000000  0.6508444  3
    818    817    810    839     1  0.0000000  0.6508444  3
    818    817    820    829     1  0.0000000  0.6508444  3
    818    817    820    821     1  0.0000000  0.6508444  3
    818    817    820    822     1  0.0000000  0.6508444  3
    819    817    810    839     1  0.0000000  0.6508444  3
    819    817    820    829     1  0.0000000  0.6508444  3
    819    817    820    821     1  0.0000000  0.6508444  3
    819    817    820    822     1  0.0000000  0.6508444  3
    820    817    810    839     1  0.0000000  0.6508444  3
    821    820    829    838     1  0.0000000  1.0460000  1
    821    820    829    838     1  0.0000000  0.0000000  3
    821    820    829    830     1  0.0000000  0.6508444  3
    821    820    829    831     1  0.0000000  0.6508444  3
    822    820    829    838     1  0.0000000  1.0460000  1
    822    820    829    838     1  0.0000000  0.0000000  3
    822    820    829    830     1  0.0000000  0.6508444  3
    822    820    829    831     1  0.0000000  0.6508444  3
    823    811    810    839     1  0.0000000  0.6508444  3
    824    823    835   1738     1  0.0000000  1.0460000  1
    824    823    835   1738     1  0.0000000  0.0000000  3
    824    823    835    836     1  0.0000000  0.6508444  3
    824    823    835    837     1  0.0000000  0.6508444  3
    825    823    835   1738     1  0.0000000  1.0460000  1
    825    823    835   1738     1  0.0000000  0.0000000  3
    825    823    835    836     1  0.0000000  0.6508444  3
    825    823    835    837     1  0.0000000  0.6508444  3
    826    814    810    839     1  0.0000000  0.6508444  3
    827    826    832   1708     1  0.0000000  1.0460000  1
    827    826    832   1708     1  0.0000000  0.0000000  3
    827    826    832    833     1  0.0000000  0.6508444  3
    827    826    832    834     1  0.0000000  0.6508444  3
    828    826    832   1708     1  0.0000000  1.0460000  1
    828    826    832   1708     1  0.0000000  0.0000000  3
    828    826    832    833     1  0.0000000  0.6508444  3
    828    826    832    834     1  0.0000000  0.6508444  3
    832   1708   1699   1700     1  0.0000000  1.6038667  3
    832   1708   1699   1701     1  0.0000000  1.6038667  3
    833    832   1708   1699     1  0.0000000  1.6038667  3
    834    832   1708   1699     1  0.0000000  1.6038667  3
    835   1738   1729   1730     1  0.0000000  1.6038667  3
    835   1738   1729   1731     1  0.0000000  1.6038667  3
    836    835   1738   1729     1  0.0000000  1.6038667  3
    837    835   1738   1729     1  0.0000000  1.6038667  3
    840    841    853    854     1  0.0000000  0.6508444  3
    840    841    853    855     1  0.0000000  0.6508444  3
    840    844    856    857     1  0.0000000  0.6508444  3
    840    844    856    858     1  0.0000000  0.6508444  3
    840    847    850    851     1  0.0000000  0.6508444  3
    840    847    850    852     1  0.0000000  0.6508444  3
    841    840    844    845     1  0.0000000  0.6508444  3
    841    840    844    846     1  0.0000000  0.6508444  3
    841    840    847    848     1  0.0000000  0.6508444  3
    841    840    847    849     1  0.0000000  0.6508444  3
    841    853    865    866     1  0.0000000  0.6508444  3
    841    853    865    867     1  0.0000000  0.6508444  3
    842    841    840    844     1  0.0000000  0.6508444  3
    842    841    840    847     1  0.0000000  0.6508444  3
    842    841    840    869     1  0.0000000  0.6508444  3
    842    841    853    865     1  0.0000000  0.6508444  3
    842    841    853    854     1  0.0000000  0.6508444  3
    842    841    853    855     1  0.0000000  0.6508444  3
    843    841    840    844     1  0.0000000  0.6508444  3
    843    841    840    847     1  0.0000000  0.6508444  3
    843    841    840    869     1  0.0000000  0.6508444  3
    843    841    853    865     1  0.0000000  0.6508444  3
    843    841    853    854     1  0.0000000  0.6508444  3
    843    841    853    855     1  0.0000000  0.6508444  3
    844    840    847    848     1  0.0000000  0.6508444  3
    844    840    847    849     1  0.0000000  0.6508444  3
    844    856    862    863     1  0.0000000  0.6508444  3
    844    856    862    864     1  0.0000000  0.6508444  3
    845    844    840    847     1  0.0000000  0.6508444  3
    845    844    840    869     1  0.0000000  0.6508444  3
    845    844    856    862     1  0.0000000  0.6508444  3
    845    844    856    857     1  0.0000000  0.6508444  3
    845    844    856    858     1  0.0000000  0.6508444  3
    846    844    840    847     1  0.0000000  0.6508444  3
    846    844    840    869     1  0.0000000  0.6508444  3
    846    844    856    862     1  0.0000000  0.6508444  3
    846    844    856    857     1  0.0000000  0.6508444  3
    846    844    856    858     1  0.0000000  0.6508444  3
    847    850    859    860     1  0.0000000  0.6508444  3
    847    850    859    861     1  0.0000000  0.6508444  3
    848    847    840    869     1  0.0000000  0.6508444  3
    848    847    850    859     1  0.0000000  0.6508444  3
    848    847    850    851     1  0.0000000  0.6508444  3
    848    847    850    852     1  0.0000000  0.6508444  3
    849    847    840    869     1  0.0000000  0.6508444  3
    849    847    850    859     1  0.0000000  0.6508444  3
    849    847    850    851     1  0.0000000  0.6508444  3
    849    847    850    852     1  0.0000000  0.6508444  3
    850    847    840    869     1  0.0000000  0.6508444  3
    851    850    859    868     1  0.0000000  1.0460000  1
    851    850    859    868     1  0.0000000  0.0000000  3
    851    850    859    860     1  0.0000000  0.6508444  3
    851    850    859    861     1  0.0000000  0.6508444  3
    852    850    859    868     1  0.0000000  1.0460000  1
    852    850    859    868     1  0.0000000  0.0000000  3
    852    850    859    860     1  0.0000000  0.6508444  3
    852    850    859    861     1  0.0000000  0.6508444  3
    853    841    840    869     1  0.0000000  0.6508444  3
    854    853    865   1798     1  0.0000000  1.0460000  1
    854    853    865   1798     1  0.0000000  0.0000000  3
    854    853    865    866     1  0.0000000  0.6508444  3
    854    853    865    867     1  0.0000000  0.6508444  3
    855    853    865   1798     1  0.0000000  1.0460000  1
    855    853    865   1798     1  0.0000000  0.0000000  3
    855    853    865    866     1  0.0000000  0.6508444  3
    855    853    865    867     1  0.0000000  0.6508444  3
    856    844    840    869     1  0.0000000  0.6508444  3
    857    856    862   1768     1  0.0000000  1.0460000  1
    857    856    862   1768     1  0.0000000  0.0000000  3
    857    856    862    863     1  0.0000000  0.6508444  3
    857    856    862    864     1  0.0000000  0.6508444  3
    858    856    862   1768     1  0.0000000  1.0460000  1
    858    856    862   1768     1  0.0000000  0.0000000  3
    858    856    862    863     1  0.0000000  0.6508444  3
    858    856    862    864     1  0.0000000  0.6508444  3
    862   1768   1759   1760     1  0.0000000  1.6038667  3
    862   1768   1759   1761     1  0.0000000  1.6038667  3
    863    862   1768   1759     1  0.0000000  1.6038667  3
    864    862   1768   1759     1  0.0000000  1.6038667  3
    865   1798   1789   1790     1  0.0000000  1.6038667  3
    865   1798   1789   1791     1  0.0000000  1.6038667  3
    866    865   1798   1789     1  0.0000000  1.6038667  3
    867    865   1798   1789     1  0.0000000  1.6038667  3
    870    871    883    884     1  0.0000000  0.6508444  3
    870    871    883    885     1  0.0000000  0.6508444  3
    870    874    886    887     1  0.0000000  0.6508444  3
    870    874    886    888     1  0.0000000  0.6508444  3
    870    877    880    881     1  0.0000000  0.6508444  3
    870    877    880    882     1  0.0000000  0.6508444  3
    871    870    874    875     1  0.0000000  0.6508444  3
    871    870    874    876     1  0.0000000  0.6508444  3
    871    870    877    878     1  0.0000000  0.6508444  3
    871    870    877    879     1  0.0000000  0.6508444  3
    871    883    895    896     1  0.0000000  0.6508444  3
    871    883    895    897     1  0.0000000  0.6508444  3
    872    871    870    874     1  0.0000000  0.6508444  3
    872    871    870    877     1  0.0000000  0.6508444  3
    872    871    870    899     1  0.0000000  0.6508444  3
    872    871    883    895     1  0.0000000  0.6508444  3
    872    871    883    884     1  0.0000000  0.6508444  3
    872    871    883    885     1  0.0000000  0.6508444  3
    873    871    870    874     1  0.0000000  0.6508444  3
    873    871    870    877     1  0.0000000  0.6508444  3
    873    871    870    899     1  0.0000000  0.6508444  3
    873    871    883    895     1  0.0000000  0.6508444  3
    873    871    883    884     1  0.0000000  0.6508444  3
    873    871    883    885     1  0.0000000  0.6508444  3
    874    870    877    878     1  0.0000000  0.6508444  3
    874    870    877    879     1  0.0000000  0.6508444  3
    874    886    892    893     1  0.0000000  0.6508444  3
    874    886    892    894     1  0.0000000  0.6508444  3
    875    874    870    877     1  0.0000000  0.6508444  3
    875    874    870    899     1  0.0000000  0.6508444  3
    875    874    886    892     1  0.0000000  0.6508444  3
    875    874    886    887     1  0.0000000  0.6508444  3
    875    874    886    888     1  0.0000000  0.6508444  3
    876    874    870    877     1  0.0000000  0.6508444  3
    876    874    870    899     1  0.0000000  0.6508444  3
    876    874    886    892     1  0.0000000  0.6508444  3
    876    874    886    887     1  0.0000000  0.6508444  3
    876    874    886    888     1  0.0000000  0.6508444  3
    877    880    889    890     1  0.0000000  0.6508444  3
    877    880    889    891     1  0.0000000  0.6508444  3
    878    877    870    899     1  0.0000000  0.6508444  3
    878    877    880    889     1  0.0000000  0.6508444  3
    878    877    880    881     1  0.0000000  0.6508444  3
    878    877    880    882     1  0.0000000  0.6508444  3
    879    877    870    899     1  0.0000000  0.6508444  3
    879    877    880    889     1  0.0000000  0.6508444  3
    879    877    880    881     1  0.0000000  0.6508444  3
    879    877    880    882     1  0.0000000  0.6508444  3
    880    877    870    899     1  0.0000000  0.6508444  3
    881    880    889    898     1  0.0000000  1.0460000  1
    881    880    889    898     1  0.0000000  0.0000000  3
    881    880    889    890     1  0.0000000  0.6508444  3
    881    880    889    891     1  0.0000000  0.6508444  3
    882    880    889    898     1  0.0000000  1.0460000  1
    882    880    889    898     1  0.0000000  0.0000000  3
    882    880    889    890     1  0.0000000  0.6508444  3
    882    880    889    891     1  0.0000000  0.6508444  3
    883    871    870    899     1  0.0000000  0.6508444  3
    884    883    895   1858     1  0.0000000  1.0460000  1
    884    883    895   1858     1  0.0000000  0.0000000  3
    884    883    895    896     1  0.0000000  0.6508444  3
    884    883    895    897     1  0.0000000  0.6508444  3
    885    883    895   1858     1  0.0000000  1.0460000  1
    885    883    895   1858     1  0.0000000  0.0000000  3
    885    883    895    896     1  0.0000000  0.6508444  3
    885    883    895    897     1  0.0000000  0.6508444  3
    886    874    870    899     1  0.0000000  0.6508444  3
    887    886    892   1828     1  0.0000000  1.0460000  1
    887    886    892   1828     1  0.0000000  0.0000000  3
    887    886    892    893     1  0.0000000  0.6508444  3
    887    886    892    894     1  0.0000000  0.6508444  3
    888    886    892   1828     1  0.0000000  1.0460000  1
    888    886    892   1828     1  0.0000000  0.0000000  3
    888    886    892    893     1  0.0000000  0.6508444  3
    888    886    892    894     1  0.0000000  0.6508444  3
    892   1828   1819   1820     1  0.0000000  1.6038667  3
    892   1828   1819   1821     1  0.0000000  1.6038667  3
    893    892   1828   1819     1  0.0000000  1.6038667  3
    894    892   1828   1819     1  0.0000000  1.6038667  3
    895   1858   1849   1850     1  0.0000000  1.6038667  3
    895   1858   1849   1851     1  0.0000000  1.6038667  3
    896    895   1858   1849     1  0.0000000  1.6038667  3
    897    895   1858   1849     1  0.0000000  1.6038667  3
    900    901    913    914     1  0.0000000  0.6508444  3
    900    901    913    915     1  0.0000000  0.6508444  3
    900    904    916    917     1  0.0000000  0.6508444  3
    900    904    916    918     1  0.0000000  0.6508444  3
    900    907    910    911     1  0.0000000  0.6508444  3
    900    907    910    912     1  0.0000000  0.6508444  3
    901    900    904    905     1  0.0000000  0.6508444  3
    901    900    904    906     1  0.0000000  0.6508444  3
    901    900    907    908     1  0.0000000  0.6508444  3
    901    900    907    909     1  0.0000000  0.6508444  3
    901    913    925    926     1  0.0000000  0.6508444  3
    901    913    925    927     1  0.0000000  0.6508444  3
    902    901    900    904     1  0.0000000  0.6508444  3
    902    901    900    907     1  0.0000000  0.6508444  3
    902    901    900    929     1  0.0000000  0.6508444  3
    902    901    913    925     1  0.0000000  0.6508444  3
    902    901    913    914     1  0.0000000  0.6508444  3
    902    901    913    915     1  0.0000000  0.6508444  3
    903    901    900    904     1  0.0000000  0.6508444  3
    903    901    900    907     1  0.0000000  0.6508444  3
    903    901    900    929     1  0.0000000  0.6508444  3
    903    901    913    925     1  0.0000000  0.6508444  3
    903    901    913    914     1  0.0000000  0.6508444  3
    903    901    913    915     1  0.0000000  0.6508444  3
    904    900    907    908     1  0.0000000  0.6508444  3
    904    900    907    909     1  0.0000000  0.6508444  3
    904    916    922    923     1  0.0000000  0.6508444  3
    904    916    922    924     1  0.0000000  0.6508444  3
    905    904    900    907     1  0.0000000  0.6508444  3
    905    904    900    929     1  0.0000000  0.6508444  3
    905    904    916    922     1  0.0000000  0.6508444  3
    905    904    916    917     1  0.0000000  0.6508444  3
    905    904    916    918     1  0.0000000  0.6508444  3
    906    904    900    907     1  0.0000000  0.6508444  3
    906    904    900    929     1  0.0000000  0.6508444  3
    906    904    916    922     1  0.0000000  0.6508444  3
    906    904    916    917     1  0.0000000  0.6508444  3
    906    904    916    918     1  0.0000000  0.6508444  3
    907    910    919    920     1  0.0000000  0.6508444  3
    907    910    919    921     1  0.0000000  0.6508444  3
    908    907    900    929     1  0.0000000  0.6508444  3
    908    907    910    919     1  0.0000000  0.6508444  3
    908    907    910    911     1  0.0000000  0.6508444  3
    908    907    910    912     1  0.0000000  0.6508444  3
    909    907    900    929     1  0.0000000  0.6508444  3
    909    907    910    919     1  0.0000000  0.6508444  3
    909    907    910    911     1  0.0000000  0.6508444  3
    909    907    910    912     1  0.0000000  0.6508444  3
    910    907    900    929     1  0.0000000  0.6508444  3
    911    910    919    928     1  0.0000000  1.0460000  1
    911    910    919    928     1  0.0000000  0.0000000  3
    911    910    919    920     1  0.0000000  0.6508444  3
    911    910    919    921     1  0.0000000  0.6508444  3
    912    910    919    928     1  0.0000000  1.0460000  1
    912    910    919    928     1  0.0000000  0.0000000  3
    912    910    919    920     1  0.0000000  0.6508444  3
    912    910    919    921     1  0.0000000  0.6508444  3
    913    901    900    929     1  0.0000000  0.6508444  3
    914    913    925   1918     1  0.0000000  1.0460000  1
    914    913    925   1918     1  0.0000000  0.0000000  3
    914    913    925    926     1  0.0000000  0.6508444  3
    914    913    925    927     1  0.0000000  0.6508444  3
    915    913    925   1918     1  0.0000000  1.0460000  1
    915    913    925   1918     1  0.0000000  0.0000000  3
    915    913    925    926     1  0.0000000  0.6508444  3
    915    913    925    927     1  0.0000000  0.6508444  3
    916    904    900    929     1  0.0000000  0.6508444  3
    917    916    922   1888     1  0.0000000  1.0460000  1
    917    916    922   1888     1  0.0000000  0.0000000  3
    917    916    922    923     1  0.0000000  0.6508444  3
    917    916    922    924     1  0.0000000  0.6508444  3
    918    916    922   1888     1  0.0000000  1.0460000  1
    918    916    922   1888     1  0.0000000  0.0000000  3
    918    916    922    923     1  0.0000000  0.6508444  3
    918    916    922    924     1  0.0000000  0.6508444  3
    922   1888   1879   1880     1  0.0000000  1.6038667  3
    922   1888   1879   1881     1  0.0000000  1.6038667  3
    923    922   1888   1879     1  0.0000000  1.6038667  3
    924    922   1888   1879     1  0.0000000  1.6038667  3
    925   1918   1909   1910     1  0.0000000  1.6038667  3
    925   1918   1909   1911     1  0.0000000  1.6038667  3
    926    925   1918   1909     1  0.0000000  1.6038667  3
    927    925   1918   1909     1  0.0000000  1.6038667  3
    930    931    943    944     1  0.0000000  0.6508444  3
    930    931    943    945     1  0.0000000  0.6508444  3
    930    934    946    947     1  0.0000000  0.6508444  3
    930    934    946    948     1  0.0000000  0.6508444  3
    930    937    940    941     1  0.0000000  0.6508444  3
    930    937    940    942     1  0.0000000  0.6508444  3
    931    930    934    935     1  0.0000000  0.6508444  3
    931    930    934    936     1  0.0000000  0.6508444  3
    931    930    937    938     1  0.0000000  0.6508444  3
    931    930    937    939     1  0.0000000  0.6508444  3
    931    943    955    956     1  0.0000000  0.6508444  3
    931    943    955    957     1  0.0000000  0.6508444  3
    932    931    930    934     1  0.0000000  0.6508444  3
    932    931    930    937     1  0.0000000  0.6508444  3
    932    931    930    959     1  0.0000000  0.6508444  3
    932    931    943    955     1  0.0000000  0.6508444  3
    932    931    943    944     1  0.0000000  0.6508444  3
    932    931    943    945     1  0.0000000  0.6508444  3
    933    931    930    934     1  0.0000000  0.6508444  3
    933    931    930    937     1  0.0000000  0.6508444  3
    933    931    930    959     1  0.0000000  0.6508444  3
    933    931    943    955     1  0.0000000  0.6508444  3
    933    931    943    944     1  0.0000000  0.6508444  3
    933    931    943    945     1  0.0000000  0.6508444  3
    934    930    937    938     1  0.0000000  0.6508444  3
    934    930    937    939     1  0.0000000  0.6508444  3
    934    946    952    953     1  0.0000000  0.6508444  3
    934    946    952    954     1  0.0000000  0.6508444  3
    935    934    930    937     1  0.0000000  0.6508444  3
    935    934    930    959     1  0.0000000  0.6508444  3
    935    934    946    952     1  0.0000000  0.6508444  3
    935    934    946    947     1  0.0000000  0.6508444  3
    935    934    946    948     1  0.0000000  0.6508444  3
    936    934    930    937     1  0.0000000  0.6508444  3
    936    934    930    959     1  0.0000000  0.6508444  3
    936    934    946    952     1  0.0000000  0.6508444  3
    936    934    946    947     1  0.0000000  0.6508444  3
    936    934    946    948     1  0.0000000  0.6508444  3
    937    940    949    950     1  0.0000000  0.6508444  3
    937    940    949    951     1  0.0000000  0.6508444  3
    938    937    930    959     1  0.0000000  0.6508444  3
    938    937    940    949     1  0.0000000  0.6508444  3
    938    937    940    941     1  0.0000000  0.6508444  3
    938    937    940    942     1  0.0000000  0.6508444  3
    939    937    930    959     1  0.0000000  0.6508444  3
    939    937    940    949     1  0.0000000  0.6508444  3
    939    937    940    941     1  0.0000000  0.6508444  3
    939    937    940    942     1  0.0000000  0.6508444  3
    940    937    930    959     1  0.0000000  0.6508444  3
    941    940    949    958     1  0.0000000  1.0460000  1
    941    940    949    958     1  0.0000000  0.0000000  3
    941    940    949    950     1  0.0000000  0.6508444  3
    941    940    949    951     1  0.0000000  0.6508444  3
    942    940    949    958     1  0.0000000  1.0460000  1
    942    940    949    958     1  0.0000000  0.0000000  3
    942    940    949    950     1  0.0000000  0.6508444  3
    942    940    949    951     1  0.0000000  0.6508444  3
    943    931    930    959     1  0.0000000  0.6508444  3
    944    943    955   1978     1  0.0000000  1.0460000  1
    944    943    955   1978     1  0.0000000  0.0000000  3
    944    943    955    956     1  0.0000000  0.6508444  3
    944    943    955    957     1  0.0000000  0.6508444  3
    945    943    955   1978     1  0.0000000  1.0460000  1
    945    943    955   1978     1  0.0000000  0.0000000  3
    945    943    955    956     1  0.0000000  0.6508444  3
    945    943    955    957     1  0.0000000  0.6508444  3
    946    934    930    959     1  0.0000000  0.6508444  3
    947    946    952   1948     1  0.0000000  1.0460000  1
    947    946    952   1948     1  0.0000000  0.0000000  3
    947    946    952    953     1  0.0000000  0.6508444  3
    947    946    952    954     1  0.0000000  0.6508444  3
    948    946    952   1948     1  0.0000000  1.0460000  1
    948    946    952   1948     1  0.0000000  0.0000000  3
    948    946    952    953     1  0.0000000  0.6508444  3
    948    946    952    954     1  0.0000000  0.6508444  3
    952   1948   1939   1940     1  0.0000000  1.6038667  3
    952   1948   1939   1941     1  0.0000000  1.6038667  3
    953    952   1948   1939     1  0.0000000  1.6038667  3
    954    952   1948   1939     1  0.0000000  1.6038667  3
    955   1978   1969   1970     1  0.0000000  1.6038667  3
    955   1978   1969   1971     1  0.0000000  1.6038667  3
    956    955   1978   1969     1  0.0000000  1.6038667  3
    957    955   1978   1969     1  0.0000000  1.6038667  3
    960    961    973    974     1  0.0000000  0.6508444  3
    960    961    973    975     1  0.0000000  0.6508444  3
    960    964    976    977     1  0.0000000  0.6508444  3
    960    964    976    978     1  0.0000000  0.6508444  3
    960    967    970    971     1  0.0000000  0.6508444  3
    960    967    970    972     1  0.0000000  0.6508444  3
    961    960    964    965     1  0.0000000  0.6508444  3
    961    960    964    966     1  0.0000000  0.6508444  3
    961    960    967    968     1  0.0000000  0.6508444  3
    961    960    967    969     1  0.0000000  0.6508444  3
    961    973    985    986     1  0.0000000  0.6508444  3
    961    973    985    987     1  0.0000000  0.6508444  3
    962    961    960    964     1  0.0000000  0.6508444  3
    962    961    960    967     1  0.0000000  0.6508444  3
    962    961    960    989     1  0.0000000  0.6508444  3
    962    961    973    985     1  0.0000000  0.6508444  3
    962    961    973    974     1  0.0000000  0.6508444  3
    962    961    973    975     1  0.0000000  0.6508444  3
    963    961    960    964     1  0.0000000  0.6508444  3
    963    961    960    967     1  0.0000000  0.6508444  3
    963    961    960    989     1  0.0000000  0.6508444  3
    963    961    973    985     1  0.0000000  0.6508444  3
    963    961    973    974     1  0.0000000  0.6508444  3
    963    961    973    975     1  0.0000000  0.6508444  3
    964    960    967    968     1  0.0000000  0.6508444  3
    964    960    967    969     1  0.0000000  0.6508444  3
    964    976    982    983     1  0.0000000  0.6508444  3
    964    976    982    984     1  0.0000000  0.6508444  3
    965    964    960    967     1  0.0000000  0.6508444  3
    965    964    960    989     1  0.0000000  0.6508444  3
    965    964    976    982     1  0.0000000  0.6508444  3
    965    964    976    977     1  0.0000000  0.6508444  3
    965    964    976    978     1  0.0000000  0.6508444  3
    966    964    960    967     1  0.0000000  0.6508444  3
    966    964    960    989     1  0.0000000  0.6508444  3
    966    964    976    982     1  0.0000000  0.6508444  3
    966    964    976    977     1  0.0000000  0.6508444  3
    966    964    976    978     1  0.0000000  0.6508444  3
    967    970    979    980     1  0.0000000  0.6508444  3
    967    970    979    981     1  0.0000000  0.6508444  3
    968    967    960    989     1  0.0000000  0.6508444  3
    968    967    970    979     1  0.0000000  0.6508444  3
    968    967    970    971     1  0.0000000  0.6508444  3
    968    967    970    972     1  0.0000000  0.6508444  3
    969    967    960    989     1  0.0000000  0.6508444  3
    969    967    970    979     1  0.0000000  0.6508444  3
    969    967    970    971     1  0.0000000  0.6508444  3
    969    967    970    972     1  0.0000000  0.6508444  3
    970    967    960    989     1  0.0000000  0.6508444  3
    971    970    979    988     1  0.0000000  1.0460000  1
    971    970    979    988     1  0.0000000  0.0000000  3
    971    970    979    980     1  0.0000000  0.6508444  3
    971    970    979    981     1  0.0000000  0.6508444  3
    972    970    979    988     1  0.0000000  1.0460000  1
    972    970    979    988     1  0.0000000  0.0000000  3
    972    970    979    980     1  0.0000000  0.6508444  3
    972    970    979    981     1  0.0000000  0.6508444  3
    973    961    960    989     1  0.0000000  0.6508444  3
    974    973    985   2038     1  0.0000000  1.0460000  1
    974    973    985   2038     1  0.0000000  0.0000000  3
    974    973    985    986     1  0.0000000  0.6508444  3
    974    973    985    987     1  0.0000000  0.6508444  3
    975    973    985   2038     1  0.0000000  1.0460000  1
    975    973    985   2038     1  0.0000000  0.0000000  3
    975    973    985    986     1  0.0000000  0.6508444  3
    975    973    985    987     1  0.0000000  0.6508444  3
    976    964    960    989     1  0.0000000  0.6508444  3
    977    976    982   2008     1  0.0000000  1.0460000  1
    977    976    982   2008     1  0.0000000  0.0000000  3
    977    976    982    983     1  0.0000000  0.6508444  3
    977    976    982    984     1  0.0000000  0.6508444  3
    978    976    982   2008     1  0.0000000  1.0460000  1
    978    976    982   2008     1  0.0000000  0.0000000  3
    978    976    982    983     1  0.0000000  0.6508444  3
    978    976    982    984     1  0.0000000  0.6508444  3
    982   2008   1999   2000     1  0.0000000  1.6038667  3
    982   2008   1999   2001     1  0.0000000  1.6038667  3
    983    982   2008   1999     1  0.0000000  1.6038667  3
    984    982   2008   1999     1  0.0000000  1.6038667  3
    985   2038   2029   2030     1  0.0000000  1.6038667  3
    985   2038   2029   2031     1  0.0000000  1.6038667  3
    986    985   2038   2029     1  0.0000000  1.6038667  3
    987    985   2038   2029     1  0.0000000  1.6038667  3
    990    991   1003   1004     1  0.0000000  0.6508444  3
    990    991   1003   1005     1  0.0000000  0.6508444  3
    990    994   1006   1007     1  0.0000000  0.6508444  3
    990    994   1006   1008     1  0.0000000  0.6508444  3
    990    997   1000   1001     1  0.0000000  0.6508444  3
    990    997   1000   1002     1  0.0000000  0.6508444  3
    991    990    994    995     1  0.0000000  0.6508444  3
    991    990    994    996     1  0.0000000  0.6508444  3
    991    990    997    998     1  0.0000000  0.6508444  3
    991    990    997    999     1  0.0000000  0.6508444  3
    991   1003   1015   1016     1  0.0000000  0.6508444  3
    991   1003   1015   1017     1  0.0000000  0.6508444  3
    992    991    990    994     1  0.0000000  0.6508444  3
    992    991    990    997     1  0.0000000  0.6508444  3
    992    991    990   1019     1  0.0000000  0.6508444  3
    992    991   1003   1015     1  0.0000000  0.6508444  3
    992    991   1003   1004     1  0.0000000  0.6508444  3
    992    991   1003   1005     1  0.0000000  0.6508444  3
    993    991    990    994     1  0.0000000  0.6508444  3
    993    991    990    997     1  0.0000000  0.6508444  3
    993    991    990   1019     1  0.0000000  0.6508444  3
    993    991   1003   1015     1  0.0000000  0.6508444  3
    993    991   1003   1004     1  0.0000000  0.6508444  3
    993    991   1003   1005     1  0.0000000  0.6508444  3
    994    990    997    998     1  0.0000000  0.6508444  3
    994    990    997    999     1  0.0000000  0.6508444  3
    994   1006   1012   1013     1  0.0000000  0.6508444  3
    994   1006   1012   1014     1  0.0000000  0.6508444  3
    995    994    990    997     1  0.0000000  0.6508444  3
    995    994    990   1019     1  0.0000000  0.6508444  3
    995    994   1006   1012     1  0.0000000  0.6508444  3
    995    994   1006   1007     1  0.0000000  0.6508444  3
    995    994   1006   1008     1  0.0000000  0.6508444  3
    996    994    990    997     1  0.0000000  0.6508444  3
    996    994    990   1019     1  0.0000000  0.6508444  3
    996    994   1006   1012     1  0.0000000  0.6508444  3
    996    994   1006   1007     1  0.0000000  0.6508444  3
    996    994   1006   1008     1  0.0000000  0.6508444  3
    997   1000   1009   1010     1  0.0000000  0.6508444  3
    997   1000   1009   1011     1  0.0000000  0.6508444  3
    998    997    990   1019     1  0.0000000  0.6508444  3
    998    997   1000   1009     1  0.0000000  0.6508444  3
    998    997   1000   1001     1  0.0000000  0.6508444  3
    998    997   1000   1002     1  0.0000000  0.6508444  3
    999    997    990   1019     1  0.0000000  0.6508444  3
    999    997   1000   1009     1  0.0000000  0.6508444  3
    999    997   1000   1001     1  0.0000000  0.6508444  3
    999    997   1000   1002     1  0.0000000  0.6508444  3
   1000    997    990   1019     1  0.0000000  0.6508444  3
   1001   1000   1009   1018     1  0.0000000  1.0460000  1
   1001   1000   1009   1018     1  0.0000000  0.0000000  3
   1001   1000   1009   1010     1  0.0000000  0.6508444  3
   1001   1000   1009   1011     1  0.0000000  0.6508444  3
   1002   1000   1009   1018     1  0.0000000  1.0460000  1
   1002   1000   1009   1018     1  0.0000000  0.0000000  3
   1002   1000   1009   1010     1  0.0000000  0.6508444  3
   1002   1000   1009   1011     1  0.0000000  0.6508444  3
   1003    991    990   1019     1  0.0000000  0.6508444  3
   1004   1003   1015   2098     1  0.0000000  1.0460000  1
   1004   1003   1015   2098     1  0.0000000  0.0000000  3
   1004   1003   1015   1016     1  0.0000000  0.6508444  3
   1004   1003   1015   1017     1  0.0000000  0.6508444  3
   1005   1003   1015   2098     1  0.0000000  1.0460000  1
   1005   1003   1015   2098     1  0.0000000  0.0000000  3
   1005   1003   1015   1016     1  0.0000000  0.6508444  3
   1005   1003   1015   1017     1  0.0000000  0.6508444  3
   1006    994    990   1019     1  0.0000000  0.6508444  3
   1007   1006   1012   2068     1  0.0000000  1.0460000  1
   1007   1006   1012   2068     1  0.0000000  0.0000000  3
   1007   1006   1012   1013     1  0.0000000  0.6508444  3
   1007   1006   1012   1014     1  0.0000000  0.6508444  3
   1008   1006   1012   2068     1  0.0000000  1.0460000  1
   1008   1006   1012   2068     1  0.0000000  0.0000000  3
   1008   1006   1012   1013     1  0.0000000  0.6508444  3
   1008   1006   1012   1014     1  0.0000000  0.6508444  3
   1012   2068   2059   2060     1  0.0000000  1.6038667  3
   1012   2068   2059   2061     1  0.0000000  1.6038667  3
   1013   1012   2068   2059     1  0.0000000  1.6038667  3
   1014   1012   2068   2059     1  0.0000000  1.6038667  3
   1015   2098   2089   2090     1  0.0000000  1.6038667  3
   1015   2098   2089   2091     1  0.0000000  1.6038667  3
   1016   1015   2098   2089     1  0.0000000  1.6038667  3
   1017   1015   2098   2089     1  0.0000000  1.6038667  3
   1020   1021   1033   1034     1  0.0000000  0.6508444  3
   1020   1021   1033   1035     1  0.0000000  0.6508444  3
   1020   1024   1036   1037     1  0.0000000  0.6508444  3
   1020   1024   1036   1038     1  0.0000000  0.6508444  3
   1020   1027   1030   1031     1  0.0000000  0.6508444  3
   1020   1027   1030   1032     1  0.0000000  0.6508444  3
   1021   1020   1024   1025     1  0.0000000  0.6508444  3
   1021   1020   1024   1026     1  0.0000000  0.6508444  3
   1021   1020   1027   1028     1  0.0000000  0.6508444  3
   1021   1020   1027   1029     1  0.0000000  0.6508444  3
   1021   1033   1045   1046     1  0.0000000  0.6508444  3
   1021   1033   1045   1047     1  0.0000000  0.6508444  3
   1022   1021   1020   1024     1  0.0000000  0.6508444  3
   1022   1021   1020   1027     1  0.0000000  0.6508444  3
   1022   1021   1020   1049     1  0.0000000  0.6508444  3
   1022   1021   1033   1045     1  0.0000000  0.6508444  3
   1022   1021   1033   1034     1  0.0000000  0.6508444  3
   1022   1021   1033   1035     1  0.0000000  0.6508444  3
   1023   1021   1020   1024     1  0.0000000  0.6508444  3
   1023   1021   1020   1027     1  0.0000000  0.6508444  3
   1023   1021   1020   1049     1  0.0000000  0.6508444  3
   1023   1021   1033   1045     1  0.0000000  0.6508444  3
   1023   1021   1033   1034     1  0.0000000  0.6508444  3
   1023   1021   1033   1035     1  0.0000000  0.6508444  3
   1024   1020   1027   1028     1  0.0000000  0.6508444  3
   1024   1020   1027   1029     1  0.0000000  0.6508444  3
   1024   1036   1042   1043     1  0.0000000  0.6508444  3
   1024   1036   1042   1044     1  0.0000000  0.6508444  3
   1025   1024   1020   1027     1  0.0000000  0.6508444  3
   1025   1024   1020   1049     1  0.0000000  0.6508444  3
   1025   1024   1036   1042     1  0.0000000  0.6508444  3
   1025   1024   1036   1037     1  0.0000000  0.6508444  3
   1025   1024   1036   1038     1  0.0000000  0.6508444  3
   1026   1024   1020   1027     1  0.0000000  0.6508444  3
   1026   1024   1020   1049     1  0.0000000  0.6508444  3
   1026   1024   1036   1042     1  0.0000000  0.6508444  3
   1026   1024   1036   1037     1  0.0000000  0.6508444  3
   1026   1024   1036   1038     1  0.0000000  0.6508444  3
   1027   1030   1039   1040     1  0.0000000  0.6508444  3
   1027   1030   1039   1041     1  0.0000000  0.6508444  3
   1028   1027   1020   1049     1  0.0000000  0.6508444  3
   1028   1027   1030   1039     1  0.0000000  0.6508444  3
   1028   1027   1030   1031     1  0.0000000  0.6508444  3
   1028   1027   1030   1032     1  0.0000000  0.6508444  3
   1029   1027   1020   1049     1  0.0000000  0.6508444  3
   1029   1027   1030   1039     1  0.0000000  0.6508444  3
   1029   1027   1030   1031     1  0.0000000  0.6508444  3
   1029   1027   1030   1032     1  0.0000000  0.6508444  3
   1030   1027   1020   1049     1  0.0000000  0.6508444  3
   1031   1030   1039   1048     1  0.0000000  1.0460000  1
   1031   1030   1039   1048     1  0.0000000  0.0000000  3
   1031   1030   1039   1040     1  0.0000000  0.6508444  3
   1031   1030   1039   1041     1  0.0000000  0.6508444  3
   1032   1030   1039   1048     1  0.0000000  1.0460000  1
   1032   1030   1039   1048     1  0.0000000  0.0000000  3
   1032   1030   1039   1040     1  0.0000000  0.6508444  3
   1032   1030   1039   1041     1  0.0000000  0.6508444  3
   1033   1021   1020   1049     1  0.0000000  0.6508444  3
   1034   1033   1045   2158     1  0.0000000  1.0460000  1
   1034   1033   1045   2158     1  0.0000000  0.0000000  3
   1034   1033   1045   1046     1  0.0000000  0.6508444  3
   1034   1033   1045   1047     1  0.0000000  0.6508444  3
   1035   1033   1045   2158     1  0.0000000  1.0460000  1
   1035   1033   1045   2158     1  0.0000000  0.0000000  3
   1035   1033   1045   1046     1  0.0000000  0.6508444  3
   1035   1033   1045   1047     1  0.0000000  0.6508444  3
   1036   1024   1020   1049     1  0.0000000  0.6508444  3
   1037   1036   1042   2128     1  0.0000000  1.0460000  1
   1037   1036   1042   2128     1  0.0000000  0.0000000  3
   1037   1036   1042   1043     1  0.0000000  0.6508444  3
   1037   1036   1042   1044     1  0.0000000  0.6508444  3
   1038   1036   1042   2128     1  0.0000000  1.0460000  1
   1038   1036   1042   2128     1  0.0000000  0.0000000  3
   1038   1036   1042   1043     1  0.0000000  0.6508444  3
   1038   1036   1042   1044     1  0.0000000  0.6508444  3
   1042   2128   2119   2120     1  0.0000000  1.6038667  3
   1042   2128   2119   2121     1  0.0000000  1.6038667  3
   1043   1042   2128   2119     1  0.0000000  1.6038667  3
   1044   1042   2128   2119     1  0.0000000  1.6038667  3
   1045   2158   2149   2150     1  0.0000000  1.6038667  3
   1045   2158   2149   2151     1  0.0000000  1.6038667  3
   1046   1045   2158   2149     1  0.0000000  1.6038667  3
   1047   1045   2158   2149     1  0.0000000  1.6038667  3
   1050   1051   1063   1064     1  0.0000000  0.6508444  3
   1050   1051   1063   1065     1  0.0000000  0.6508444  3
   1050   1054   1066   1067     1  0.0000000  0.6508444  3
   1050   1054   1066   1068     1  0.0000000  0.6508444  3
   1050   1057   1060   1061     1  0.0000000  0.6508444  3
   1050   1057   1060   1062     1  0.0000000  0.6508444  3
   1051   1050   1054   1055     1  0.0000000  0.6508444  3
   1051   1050   1054   1056     1  0.0000000  0.6508444  3
   1051   1050   1057   1058     1  0.0000000  0.6508444  3
   1051   1050   1057   1059     1  0.0000000  0.6508444  3
   1051   1063   1075   1076     1  0.0000000  0.6508444  3
   1051   1063   1075   1077     1  0.0000000  0.6508444  3
   1052   1051   1050   1054     1  0.0000000  0.6508444  3
   1052   1051   1050   1057     1  0.0000000  0.6508444  3
   1052   1051   1050   1079     1  0.0000000  0.6508444  3
   1052   1051   1063   1075     1  0.0000000  0.6508444  3
   1052   1051   1063   1064     1  0.0000000  0.6508444  3
   1052   1051   1063   1065     1  0.0000000  0.6508444  3
   1053   1051   1050   1054     1  0.0000000  0.6508444  3
   1053   1051   1050   1057     1  0.0000000  0.6508444  3
   1053   1051   1050   1079     1  0.0000000  0.6508444  3
   1053   1051   1063   1075     1  0.0000000  0.6508444  3
   1053   1051   1063   1064     1  0.0000000  0.6508444  3
   1053   1051   1063   1065     1  0.0000000  0.6508444  3
   1054   1050   1057   1058     1  0.0000000  0.6508444  3
   1054   1050   1057   1059     1  0.0000000  0.6508444  3
   1054   1066   1072   1073     1  0.0000000  0.6508444  3
   1054   1066   1072   1074     1  0.0000000  0.6508444  3
   1055   1054   1050   1057     1  0.0000000  0.6508444  3
   1055   1054   1050   1079     1  0.0000000  0.6508444  3
   1055   1054   1066   1072     1  0.0000000  0.6508444  3
   1055   1054   1066   1067     1  0.0000000  0.6508444  3
   1055   1054   1066   1068     1  0.0000000  0.6508444  3
   1056   1054   1050   1057     1  0.0000000  0.6508444  3
   1056   1054   1050   1079     1  0.0000000  0.6508444  3
   1056   1054   1066   1072     1  0.0000000  0.6508444  3
   1056   1054   1066   1067     1  0.0000000  0.6508444  3
   1056   1054   1066   1068     1  0.0000000  0.6508444  3
   1057   1060   1069   1070     1  0.0000000  0.6508444  3
   1057   1060   1069   1071     1  0.0000000  0.6508444  3
   1058   1057   1050   1079     1  0.0000000  0.6508444  3
   1058   1057   1060   1069     1  0.0000000  0.6508444  3
   1058   1057   1060   1061     1  0.0000000  0.6508444  3
   1058   1057   1060   1062     1  0.0000000  0.6508444  3
   1059   1057   1050   1079     1  0.0000000  0.6508444  3
   1059   1057   1060   1069     1  0.0000000  0.6508444  3
   1059   1057   1060   1061     1  0.0000000  0.6508444  3
   1059   1057   1060   1062     1  0.0000000  0.6508444  3
   1060   1057   1050   1079     1  0.0000000  0.6508444  3
   1061   1060   1069   1078     1  0.0000000  1.0460000  1
   1061   1060   1069   1078     1  0.0000000  0.0000000  3
   1061   1060   1069   1070     1  0.0000000  0.6508444  3
   1061   1060   1069   1071     1  0.0000000  0.6508444  3
   1062   1060   1069   1078     1  0.0000000  1.0460000  1
   1062   1060   1069   1078     1  0.0000000  0.0000000  3
   1062   1060   1069   1070     1  0.0000000  0.6508444  3
   1062   1060   1069   1071     1  0.0000000  0.6508444  3
   1063   1051   1050   1079     1  0.0000000  0.6508444  3
   1064   1063   1075   2218     1  0.0000000  1.0460000  1
   1064   1063   1075   2218     1  0.0000000  0.0000000  3
   1064   1063   1075   1076     1  0.0000000  0.6508444  3
   1064   1063   1075   1077     1  0.0000000  0.6508444  3
   1065   1063   1075   2218     1  0.0000000  1.0460000  1
   1065   1063   1075   2218     1  0.0000000  0.0000000  3
   1065   1063   1075   1076     1  0.0000000  0.6508444  3
   1065   1063   1075   1077     1  0.0000000  0.6508444  3
   1066   1054   1050   1079     1  0.0000000  0.6508444  3
   1067   1066   1072   2188     1  0.0000000  1.0460000  1
   1067   1066   1072   2188     1  0.0000000  0.0000000  3
   1067   1066   1072   1073     1  0.0000000  0.6508444  3
   1067   1066   1072   1074     1  0.0000000  0.6508444  3
   1068   1066   1072   2188     1  0.0000000  1.0460000  1
   1068   1066   1072   2188     1  0.0000000  0.0000000  3
   1068   1066   1072   1073     1  0.0000000  0.6508444  3
   1068   1066   1072   1074     1  0.0000000  0.6508444  3
   1072   2188   2179   2180     1  0.0000000  1.6038667  3
   1072   2188   2179   2181     1  0.0000000  1.6038667  3
   1073   1072   2188   2179     1  0.0000000  1.6038667  3
   1074   1072   2188   2179     1  0.0000000  1.6038667  3
   1075   2218   2209   2210     1  0.0000000  1.6038667  3
   1075   2218   2209   2211     1  0.0000000  1.6038667  3
   1076   1075   2218   2209     1  0.0000000  1.6038667  3
   1077   1075   2218   2209     1  0.0000000  1.6038667  3
   1080   1081   1093   1094     1  0.0000000  0.6508444  3
   1080   1081   1093   1095     1  0.0000000  0.6508444  3
   1080   1084   1096   1097     1  0.0000000  0.6508444  3
   1080   1084   1096   1098     1  0.0000000  0.6508444  3
   1080   1087   1090   1091     1  0.0000000  0.6508444  3
   1080   1087   1090   1092     1  0.0000000  0.6508444  3
   1081   1080   1084   1085     1  0.0000000  0.6508444  3
   1081   1080   1084   1086     1  0.0000000  0.6508444  3
   1081   1080   1087   1088     1  0.0000000  0.6508444  3
   1081   1080   1087   1089     1  0.0000000  0.6508444  3
   1081   1093   1105   1106     1  0.0000000  0.6508444  3
   1081   1093   1105   1107     1  0.0000000  0.6508444  3
   1082   1081   1080   1084     1  0.0000000  0.6508444  3
   1082   1081   1080   1087     1  0.0000000  0.6508444  3
   1082   1081   1080   1109     1  0.0000000  0.6508444  3
   1082   1081   1093   1105     1  0.0000000  0.6508444  3
   1082   1081   1093   1094     1  0.0000000  0.6508444  3
   1082   1081   1093   1095     1  0.0000000  0.6508444  3
   1083   1081   1080   1084     1  0.0000000  0.6508444  3
   1083   1081   1080   1087     1  0.0000000  0.6508444  3
   1083   1081   1080   1109     1  0.0000000  0.6508444  3
   1083   1081   1093   1105     1  0.0000000  0.6508444  3
   1083   1081   1093   1094     1  0.0000000  0.6508444  3
   1083   1081   1093   1095     1  0.0000000  0.6508444  3
   1084   1080   1087   1088     1  0.0000000  0.6508444  3
   1084   1080   1087   1089     1  0.0000000  0.6508444  3
   1084   1096   1102   1103     1  0.0000000  0.6508444  3
   1084   1096   1102   1104     1  0.0000000  0.6508444  3
   1085   1084   1080   1087     1  0.0000000  0.6508444  3
   1085   1084   1080   1109     1  0.0000000  0.6508444  3
   1085   1084   1096   1102     1  0.0000000  0.6508444  3
   1085   1084   1096   1097     1  0.0000000  0.6508444  3
   1085   1084   1096   1098     1  0.0000000  0.6508444  3
   1086   1084   1080   1087     1  0.0000000  0.6508444  3
   1086   1084   1080   1109     1  0.0000000  0.6508444  3
   1086   1084   1096   1102     1  0.0000000  0.6508444  3
   1086   1084   1096   1097     1  0.0000000  0.6508444  3
   1086   1084   1096   1098     1  0.0000000  0.6508444  3
   1087   1090   1099   1100     1  0.0000000  0.6508444  3
   1087   1090   1099   1101     1  0.0000000  0.6508444  3
   1088   1087   1080   1109     1  0.0000000  0.6508444  3
   1088   1087   1090   1099     1  0.0000000  0.6508444  3
   1088   1087   1090   1091     1  0.0000000  0.6508444  3
   1088   1087   1090   1092     1  0.0000000  0.6508444  3
   1089   1087   1080   1109     1  0.0000000  0.6508444  3
   1089   1087   1090   1099     1  0.0000000  0.6508444  3
   1089   1087   1090   1091     1  0.0000000  0.6508444  3
   1089   1087   1090   1092     1  0.0000000  0.6508444  3
   1090   1087   1080   1109     1  0.0000000  0.6508444  3
   1091   1090   1099   1108     1  0.0000000  1.0460000  1
   1091   1090   1099   1108     1  0.0000000  0.0000000  3
   1091   1090   1099   1100     1  0.0000000  0.6508444  3
   1091   1090   1099   1101     1  0.0000000  0.6508444  3
   1092   1090   1099   1108     1  0.0000000  1.0460000  1
   1092   1090   1099   1108     1  0.0000000  0.0000000  3
   1092   1090   1099   1100     1  0.0000000  0.6508444  3
   1092   1090   1099   1101     1  0.0000000  0.6508444  3
   1093   1081   1080   1109     1  0.0000000  0.6508444  3
   1094   1093   1105   2278     1  0.0000000  1.0460000  1
   1094   1093   1105   2278     1  0.0000000  0.0000000  3
   1094   1093   1105   1106     1  0.0000000  0.6508444  3
   1094   1093   1105   1107     1  0.0000000  0.6508444  3
   1095   1093   1105   2278     1  0.0000000  1.0460000  1
   1095   1093   1105   2278     1  0.0000000  0.0000000  3
   1095   1093   1105   1106     1  0.0000000  0.6508444  3
   1095   1093   1105   1107     1  0.0000000  0.6508444  3
   1096   1084   1080   1109     1  0.0000000  0.6508444  3
   1097   1096   1102   2248     1  0.0000000  1.0460000  1
   1097   1096   1102   2248     1  0.0000000  0.0000000  3
   1097   1096   1102   1103     1  0.0000000  0.6508444  3
   1097   1096   1102   1104     1  0.0000000  0.6508444  3
   1098   1096   1102   2248     1  0.0000000  1.0460000  1
   1098   1096   1102   2248     1  0.0000000  0.0000000  3
   1098   1096   1102   1103     1  0.0000000  0.6508444  3
   1098   1096   1102   1104     1  0.0000000  0.6508444  3
   1102   2248   2239   2240     1  0.0000000  1.6038667  3
   1102   2248   2239   2241     1  0.0000000  1.6038667  3
   1103   1102   2248   2239     1  0.0000000  1.6038667  3
   1104   1102   2248   2239     1  0.0000000  1.6038667  3
   1105   2278   2269   2270     1  0.0000000  1.6038667  3
   1105   2278   2269   2271     1  0.0000000  1.6038667  3
   1106   1105   2278   2269     1  0.0000000  1.6038667  3
   1107   1105   2278   2269     1  0.0000000  1.6038667  3
   1110   1111   1123   1124     1  0.0000000  0.6508444  3
   1110   1111   1123   1125     1  0.0000000  0.6508444  3
   1110   1114   1126   1127     1  0.0000000  0.6508444  3
   1110   1114   1126   1128     1  0.0000000  0.6508444  3
   1110   1117   1120   1121     1  0.0000000  0.6508444  3
   1110   1117   1120   1122     1  0.0000000  0.6508444  3
   1111   1110   1114   1115     1  0.0000000  0.6508444  3
   1111   1110   1114   1116     1  0.0000000  0.6508444  3
   1111   1110   1117   1118     1  0.0000000  0.6508444  3
   1111   1110   1117   1119     1  0.0000000  0.6508444  3
   1111   1123   1135   1136     1  0.0000000  0.6508444  3
   1111   1123   1135   1137     1  0.0000000  0.6508444  3
   1112   1111   1110   1114     1  0.0000000  0.6508444  3
   1112   1111   1110   1117     1  0.0000000  0.6508444  3
   1112   1111   1110   1139     1  0.0000000  0.6508444  3
   1112   1111   1123   1135     1  0.0000000  0.6508444  3
   1112   1111   1123   1124     1  0.0000000  0.6508444  3
   1112   1111   1123   1125     1  0.0000000  0.6508444  3
   1113   1111   1110   1114     1  0.0000000  0.6508444  3
   1113   1111   1110   1117     1  0.0000000  0.6508444  3
   1113   1111   1110   1139     1  0.0000000  0.6508444  3
   1113   1111   1123   1135     1  0.0000000  0.6508444  3
   1113   1111   1123   1124     1  0.0000000  0.6508444  3
   1113   1111   1123   1125     1  0.0000000  0.6508444  3
   1114   1110   1117   1118     1  0.0000000  0.6508444  3
   1114   1110   1117   1119     1  0.0000000  0.6508444  3
   1114   1126   1132   1133     1  0.0000000  0.6508444  3
   1114   1126   1132   1134     1  0.0000000  0.6508444  3
   1115   1114   1110   1117     1  0.0000000  0.6508444  3
   1115   1114   1110   1139     1  0.0000000  0.6508444  3
   1115   1114   1126   1132     1  0.0000000  0.6508444  3
   1115   1114   1126   1127     1  0.0000000  0.6508444  3
   1115   1114   1126   1128     1  0.0000000  0.6508444  3
   1116   1114   1110   1117     1  0.0000000  0.6508444  3
   1116   1114   1110   1139     1  0.0000000  0.6508444  3
   1116   1114   1126   1132     1  0.0000000  0.6508444  3
   1116   1114   1126   1127     1  0.0000000  0.6508444  3
   1116   1114   1126   1128     1  0.0000000  0.6508444  3
   1117   1120   1129   1130     1  0.0000000  0.6508444  3
   1117   1120   1129   1131     1  0.0000000  0.6508444  3
   1118   1117   1110   1139     1  0.0000000  0.6508444  3
   1118   1117   1120   1129     1  0.0000000  0.6508444  3
   1118   1117   1120   1121     1  0.0000000  0.6508444  3
   1118   1117   1120   1122     1  0.0000000  0.6508444  3
   1119   1117   1110   1139     1  0.0000000  0.6508444  3
   1119   1117   1120   1129     1  0.0000000  0.6508444  3
   1119   1117   1120   1121     1  0.0000000  0.6508444  3
   1119   1117   1120   1122     1  0.0000000  0.6508444  3
   1120   1117   1110   1139     1  0.0000000  0.6508444  3
   1121   1120   1129   1138     1  0.0000000  1.0460000  1
   1121   1120   1129   1138     1  0.0000000  0.0000000  3
   1121   1120   1129   1130     1  0.0000000  0.6508444  3
   1121   1120   1129   1131     1  0.0000000  0.6508444  3
   1122   1120   1129   1138     1  0.0000000  1.0460000  1
   1122   1120   1129   1138     1  0.0000000  0.0000000  3
   1122   1120   1129   1130     1  0.0000000  0.6508444  3
   1122   1120   1129   1131     1  0.0000000  0.6508444  3
   1123   1111   1110   1139     1  0.0000000  0.6508444  3
   1124   1123   1135   2338     1  0.0000000  1.0460000  1
   1124   1123   1135   2338     1  0.0000000  0.0000000  3
   1124   1123   1135   1136     1  0.0000000  0.6508444  3
   1124   1123   1135   1137     1  0.0000000  0.6508444  3
   1125   1123   1135   2338     1  0.0000000  1.0460000  1
   1125   1123   1135   2338     1  0.0000000  0.0000000  3
   1125   1123   1135   1136     1  0.0000000  0.6508444  3
   1125   1123   1135   1137     1  0.0000000  0.6508444  3
   1126   1114   1110   1139     1  0.0000000  0.6508444  3
   1127   1126   1132   2308     1  0.0000000  1.0460000  1
   1127   1126   1132   2308     1  0.0000000  0.0000000  3
   1127   1126   1132   1133     1  0.0000000  0.6508444  3
   1127   1126   1132   1134     1  0.0000000  0.6508444  3
   1128   1126   1132   2308     1  0.0000000  1.0460000  1
   1128   1126   1132   2308     1  0.0000000  0.0000000  3
   1128   1126   1132   1133     1  0.0000000  0.6508444  3
   1128   1126   1132   1134     1  0.0000000  0.6508444  3
   1132   2308   2299   2300     1  0.0000000  1.6038667  3
   1132   2308   2299   2301     1  0.0000000  1.6038667  3
   1133   1132   2308   2299     1  0.0000000  1.6038667  3
   1134   1132   2308   2299     1  0.0000000  1.6038667  3
   1135   2338   2329   2330     1  0.0000000  1.6038667  3
   1135   2338   2329   2331     1  0.0000000  1.6038667  3
   1136   1135   2338   2329     1  0.0000000  1.6038667  3
   1137   1135   2338   2329     1  0.0000000  1.6038667  3
   1140   1141   1153   1154     1  0.0000000  0.6508444  3
   1140   1141   1153   1155     1  0.0000000  0.6508444  3
   1140   1144   1156   1157     1  0.0000000  0.6508444  3
   1140   1144   1156   1158     1  0.0000000  0.6508444  3
   1140   1147   1150   1151     1  0.0000000  0.6508444  3
   1140   1147   1150   1152     1  0.0000000  0.6508444  3
   1141   1140   1144   1145     1  0.0000000  0.6508444  3
   1141   1140   1144   1146     1  0.0000000  0.6508444  3
   1141   1140   1147   1148     1  0.0000000  0.6508444  3
   1141   1140   1147   1149     1  0.0000000  0.6508444  3
   1141   1153   1165   1166     1  0.0000000  0.6508444  3
   1141   1153   1165   1167     1  0.0000000  0.6508444  3
   1142   1141   1140   1144     1  0.0000000  0.6508444  3
   1142   1141   1140   1147     1  0.0000000  0.6508444  3
   1142   1141   1140   1169     1  0.0000000  0.6508444  3
   1142   1141   1153   1165     1  0.0000000  0.6508444  3
   1142   1141   1153   1154     1  0.0000000  0.6508444  3
   1142   1141   1153   1155     1  0.0000000  0.6508444  3
   1143   1141   1140   1144     1  0.0000000  0.6508444  3
   1143   1141   1140   1147     1  0.0000000  0.6508444  3
   1143   1141   1140   1169     1  0.0000000  0.6508444  3
   1143   1141   1153   1165     1  0.0000000  0.6508444  3
   1143   1141   1153   1154     1  0.0000000  0.6508444  3
   1143   1141   1153   1155     1  0.0000000  0.6508444  3
   1144   1140   1147   1148     1  0.0000000  0.6508444  3
   1144   1140   1147   1149     1  0.0000000  0.6508444  3
   1144   1156   1162   1163     1  0.0000000  0.6508444  3
   1144   1156   1162   1164     1  0.0000000  0.6508444  3
   1145   1144   1140   1147     1  0.0000000  0.6508444  3
   1145   1144   1140   1169     1  0.0000000  0.6508444  3
   1145   1144   1156   1162     1  0.0000000  0.6508444  3
   1145   1144   1156   1157     1  0.0000000  0.6508444  3
   1145   1144   1156   1158     1  0.0000000  0.6508444  3
   1146   1144   1140   1147     1  0.0000000  0.6508444  3
   1146   1144   1140   1169     1  0.0000000  0.6508444  3
   1146   1144   1156   1162     1  0.0000000  0.6508444  3
   1146   1144   1156   1157     1  0.0000000  0.6508444  3
   1146   1144   1156   1158     1  0.0000000  0.6508444  3
   1147   1150   1159   1160     1  0.0000000  0.6508444  3
   1147   1150   1159   1161     1  0.0000000  0.6508444  3
   1148   1147   1140   1169     1  0.0000000  0.6508444  3
   1148   1147   1150   1159     1  0.0000000  0.6508444  3
   1148   1147   1150   1151     1  0.0000000  0.6508444  3
   1148   1147   1150   1152     1  0.0000000  0.6508444  3
   1149   1147   1140   1169     1  0.0000000  0.6508444  3
   1149   1147   1150   1159     1  0.0000000  0.6508444  3
   1149   1147   1150   1151     1  0.0000000  0.6508444  3
   1149   1147   1150   1152     1  0.0000000  0.6508444  3
   1150   1147   1140   1169     1  0.0000000  0.6508444  3
   1151   1150   1159   1168     1  0.0000000  1.0460000  1
   1151   1150   1159   1168     1  0.0000000  0.0000000  3
   1151   1150   1159   1160     1  0.0000000  0.6508444  3
   1151   1150   1159   1161     1  0.0000000  0.6508444  3
   1152   1150   1159   1168     1  0.0000000  1.0460000  1
   1152   1150   1159   1168     1  0.0000000  0.0000000  3
   1152   1150   1159   1160     1  0.0000000  0.6508444  3
   1152   1150   1159   1161     1  0.0000000  0.6508444  3
   1153   1141   1140   1169     1  0.0000000  0.6508444  3
   1154   1153   1165   2398     1  0.0000000  1.0460000  1
   1154   1153   1165   2398     1  0.0000000  0.0000000  3
   1154   1153   1165   1166     1  0.0000000  0.6508444  3
   1154   1153   1165   1167     1  0.0000000  0.6508444  3
   1155   1153   1165   2398     1  0.0000000  1.0460000  1
   1155   1153   1165   2398     1  0.0000000  0.0000000  3
   1155   1153   1165   1166     1  0.0000000  0.6508444  3
   1155   1153   1165   1167     1  0.0000000  0.6508444  3
   1156   1144   1140   1169     1  0.0000000  0.6508444  3
   1157   1156   1162   2368     1  0.0000000  1.0460000  1
   1157   1156   1162   2368     1  0.0000000  0.0000000  3
   1157   1156   1162   1163     1  0.0000000  0.6508444  3
   1157   1156   1162   1164     1  0.0000000  0.6508444  3
   1158   1156   1162   2368     1  0.0000000  1.0460000  1
   1158   1156   1162   2368     1  0.0000000  0.0000000  3
   1158   1156   1162   1163     1  0.0000000  0.6508444  3
   1158   1156   1162   1164     1  0.0000000  0.6508444  3
   1162   2368   2359   2360     1  0.0000000  1.6038667  3
   1162   2368   2359   2361     1  0.0000000  1.6038667  3
   1163   1162   2368   2359     1  0.0000000  1.6038667  3
   1164   1162   2368   2359     1  0.0000000  1.6038667  3
   1165   2398   2389   2390     1  0.0000000  1.6038667  3
   1165   2398   2389   2391     1  0.0000000  1.6038667  3
   1166   1165   2398   2389     1  0.0000000  1.6038667  3
   1167   1165   2398   2389     1  0.0000000  1.6038667  3
   1170   1171   1183   1184     1  0.0000000  0.6508444  3
   1170   1171   1183   1185     1  0.0000000  0.6508444  3
   1170   1174   1186   1187     1  0.0000000  0.6508444  3
   1170   1174   1186   1188     1  0.0000000  0.6508444  3
   1170   1177   1180   1181     1  0.0000000  0.6508444  3
   1170   1177   1180   1182     1  0.0000000  0.6508444  3
   1171   1170   1174   1175     1  0.0000000  0.6508444  3
   1171   1170   1174   1176     1  0.0000000  0.6508444  3
   1171   1170   1177   1178     1  0.0000000  0.6508444  3
   1171   1170   1177   1179     1  0.0000000  0.6508444  3
   1171   1183   1195   1196     1  0.0000000  0.6508444  3
   1171   1183   1195   1197     1  0.0000000  0.6508444  3
   1172   1171   1170   1174     1  0.0000000  0.6508444  3
   1172   1171   1170   1177     1  0.0000000  0.6508444  3
   1172   1171   1170   1199     1  0.0000000  0.6508444  3
   1172   1171   1183   1195     1  0.0000000  0.6508444  3
   1172   1171   1183   1184     1  0.0000000  0.6508444  3
   1172   1171   1183   1185     1  0.0000000  0.6508444  3
   1173   1171   1170   1174     1  0.0000000  0.6508444  3
   1173   1171   1170   1177     1  0.0000000  0.6508444  3
   1173   1171   1170   1199     1  0.0000000  0.6508444  3
   1173   1171   1183   1195     1  0.0000000  0.6508444  3
   1173   1171   1183   1184     1  0.0000000  0.6508444  3
   1173   1171   1183   1185     1  0.0000000  0.6508444  3
   1174   1170   1177   1178     1  0.0000000  0.6508444  3
   1174   1170   1177   1179     1  0.0000000  0.6508444  3
   1174   1186   1192   1193     1  0.0000000  0.6508444  3
   1174   1186   1192   1194     1  0.0000000  0.6508444  3
   1175   1174   1170   1177     1  0.0000000  0.6508444  3
   1175   1174   1170   1199     1  0.0000000  0.6508444  3
   1175   1174   1186   1192     1  0.0000000  0.6508444  3
   1175   1174   1186   1187     1  0.0000000  0.6508444  3
   1175   1174   1186   1188     1  0.0000000  0.6508444  3
   1176   1174   1170   1177     1  0.0000000  0.6508444  3
   1176   1174   1170   1199     1  0.0000000  0.6508444  3
   1176   1174   1186   1192     1  0.0000000  0.6508444  3
   1176   1174   1186   1187     1  0.0000000  0.6508444  3
   1176   1174   1186   1188     1  0.0000000  0.6508444  3
   1177   1180   1189   1190     1  0.0000000  0.6508444  3
   1177   1180   1189   1191     1  0.0000000  0.6508444  3
   1178   1177   1170   1199     1  0.0000000  0.6508444  3
   1178   1177   1180   1189     1  0.0000000  0.6508444  3
   1178   1177   1180   1181     1  0.0000000  0.6508444  3
   1178   1177   1180   1182     1  0.0000000  0.6508444  3
   1179   1177   1170   1199     1  0.0000000  0.6508444  3
   1179   1177   1180   1189     1  0.0000000  0.6508444  3
   1179   1177   1180   1181     1  0.0000000  0.6508444  3
   1179   1177   1180   1182     1  0.0000000  0.6508444  3
   1180   1177   1170   1199     1  0.0000000  0.6508444  3
   1181   1180   1189   1198     1  0.0000000  1.0460000  1
   1181   1180   1189   1198     1  0.0000000  0.0000000  3
   1181   1180   1189   1190     1  0.0000000  0.6508444  3
   1181   1180   1189   1191     1  0.0000000  0.6508444  3
   1182   1180   1189   1198     1  0.0000000  1.0460000  1
   1182   1180   1189   1198     1  0.0000000  0.0000000  3
   1182   1180   1189   1190     1  0.0000000  0.6508444  3
   1182   1180   1189   1191     1  0.0000000  0.6508444  3
   1183   1171   1170   1199     1  0.0000000  0.6508444  3
   1184   1183   1195   2458     1  0.0000000  1.0460000  1
   1184   1183   1195   2458     1  0.0000000  0.0000000  3
   1184   1183   1195   1196     1  0.0000000  0.6508444  3
   1184   1183   1195   1197     1  0.0000000  0.6508444  3
   1185   1183   1195   2458     1  0.0000000  1.0460000  1
   1185   1183   1195   2458     1  0.0000000  0.0000000  3
   1185   1183   1195   1196     1  0.0000000  0.6508444  3
   1185   1183   1195   1197     1  0.0000000  0.6508444  3
   1186   1174   1170   1199     1  0.0000000  0.6508444  3
   1187   1186   1192   2428     1  0.0000000  1.0460000  1
   1187   1186   1192   2428     1  0.0000000  0.0000000  3
   1187   1186   1192   1193     1  0.0000000  0.6508444  3
   1187   1186   1192   1194     1  0.0000000  0.6508444  3
   1188   1186   1192   2428     1  0.0000000  1.0460000  1
   1188   1186   1192   2428     1  0.0000000  0.0000000  3
   1188   1186   1192   1193     1  0.0000000  0.6508444  3
   1188   1186   1192   1194     1  0.0000000  0.6508444  3
   1192   2428   2419   2420     1  0.0000000  1.6038667  3
   1192   2428   2419   2421     1  0.0000000  1.6038667  3
   1193   1192   2428   2419     1  0.0000000  1.6038667  3
   1194   1192   2428   2419     1  0.0000000  1.6038667  3
   1195   2458   2449   2450     1  0.0000000  1.6038667  3
   1195   2458   2449   2451     1  0.0000000  1.6038667  3
   1196   1195   2458   2449     1  0.0000000  1.6038667  3
   1197   1195   2458   2449     1  0.0000000  1.6038667  3
   1200   1201   1213   1214     1  0.0000000  0.6508444  3
   1200   1201   1213   1215     1  0.0000000  0.6508444  3
   1200   1204   1216   1217     1  0.0000000  0.6508444  3
   1200   1204   1216   1218     1  0.0000000  0.6508444  3
   1200   1207   1210   1211     1  0.0000000  0.6508444  3
   1200   1207   1210   1212     1  0.0000000  0.6508444  3
   1201   1200   1204   1205     1  0.0000000  0.6508444  3
   1201   1200   1204   1206     1  0.0000000  0.6508444  3
   1201   1200   1207   1208     1  0.0000000  0.6508444  3
   1201   1200   1207   1209     1  0.0000000  0.6508444  3
   1201   1213   1225   1226     1  0.0000000  0.6508444  3
   1201   1213   1225   1227     1  0.0000000  0.6508444  3
   1202   1201   1200   1204     1  0.0000000  0.6508444  3
   1202   1201   1200   1207     1  0.0000000  0.6508444  3
   1202   1201   1200   1229     1  0.0000000  0.6508444  3
   1202   1201   1213   1225     1  0.0000000  0.6508444  3
   1202   1201   1213   1214     1  0.0000000  0.6508444  3
   1202   1201   1213   1215     1  0.0000000  0.6508444  3
   1203   1201   1200   1204     1  0.0000000  0.6508444  3
   1203   1201   1200   1207     1  0.0000000  0.6508444  3
   1203   1201   1200   1229     1  0.0000000  0.6508444  3
   1203   1201   1213   1225     1  0.0000000  0.6508444  3
   1203   1201   1213   1214     1  0.0000000  0.6508444  3
   1203   1201   1213   1215     1  0.0000000  0.6508444  3
   1204   1200   1207   1208     1  0.0000000  0.6508444  3
   1204   1200   1207   1209     1  0.0000000  0.6508444  3
   1204   1216   1222   1223     1  0.0000000  0.6508444  3
   1204   1216   1222   1224     1  0.0000000  0.6508444  3
   1205   1204   1200   1207     1  0.0000000  0.6508444  3
   1205   1204   1200   1229     1  0.0000000  0.6508444  3
   1205   1204   1216   1222     1  0.0000000  0.6508444  3
   1205   1204   1216   1217     1  0.0000000  0.6508444  3
   1205   1204   1216   1218     1  0.0000000  0.6508444  3
   1206   1204   1200   1207     1  0.0000000  0.6508444  3
   1206   1204   1200   1229     1  0.0000000  0.6508444  3
   1206   1204   1216   1222     1  0.0000000  0.6508444  3
   1206   1204   1216   1217     1  0.0000000  0.6508444  3
   1206   1204   1216   1218     1  0.0000000  0.6508444  3
   1207   1210   1219   1220     1  0.0000000  0.6508444  3
   1207   1210   1219   1221     1  0.0000000  0.6508444  3
   1208   1207   1200   1229     1  0.0000000  0.6508444  3
   1208   1207   1210   1219     1  0.0000000  0.6508444  3
   1208   1207   1210   1211     1  0.0000000  0.6508444  3
   1208   1207   1210   1212     1  0.0000000  0.6508444  3
   1209   1207   1200   1229     1  0.0000000  0.6508444  3
   1209   1207   1210   1219     1  0.0000000  0.6508444  3
   1209   1207   1210   1211     1  0.0000000  0.6508444  3
   1209   1207   1210   1212     1  0.0000000  0.6508444  3
   1210   1207   1200   1229     1  0.0000000  0.6508444  3
   1211   1210   1219   1228     1  0.0000000  1.0460000  1
   1211   1210   1219   1228     1  0.0000000  0.0000000  3
   1211   1210   1219   1220     1  0.0000000  0.6508444  3
   1211   1210   1219   1221     1  0.0000000  0.6508444  3
   1212   1210   1219   1228     1  0.0000000  1.0460000  1
   1212   1210   1219   1228     1  0.0000000  0.0000000  3
   1212   1210   1219   1220     1  0.0000000  0.6508444  3
   1212   1210   1219   1221     1  0.0000000  0.6508444  3
   1213   1201   1200   1229     1  0.0000000  0.6508444  3
   1214   1213   1225   2518     1  0.0000000  1.0460000  1
   1214   1213   1225   2518     1  0.0000000  0.0000000  3
   1214   1213   1225   1226     1  0.0000000  0.6508444  3
   1214   1213   1225   1227     1  0.0000000  0.6508444  3
   1215   1213   1225   2518     1  0.0000000  1.0460000  1
   1215   1213   1225   2518     1  0.0000000  0.0000000  3
   1215   1213   1225   1226     1  0.0000000  0.6508444  3
   1215   1213   1225   1227     1  0.0000000  0.6508444  3
   1216   1204   1200   1229     1  0.0000000  0.6508444  3
   1217   1216   1222   2488     1  0.0000000  1.0460000  1
   1217   1216   1222   2488     1  0.0000000  0.0000000  3
   1217   1216   1222   1223     1  0.0000000  0.6508444  3
   1217   1216   1222   1224     1  0.0000000  0.6508444  3
   1218   1216   1222   2488     1  0.0000000  1.0460000  1
   1218   1216   1222   2488     1  0.0000000  0.0000000  3
   1218   1216   1222   1223     1  0.0000000  0.6508444  3
   1218   1216   1222   1224     1  0.0000000  0.6508444  3
   1222   2488   2479   2480     1  0.0000000  1.6038667  3
   1222   2488   2479   2481     1  0.0000000  1.6038667  3
   1223   1222   2488   2479     1  0.0000000  1.6038667  3
   1224   1222   2488   2479     1  0.0000000  1.6038667  3
   1225   2518   2509   2510     1  0.0000000  1.6038667  3
   1225   2518   2509   2511     1  0.0000000  1.6038667  3
   1226   1225   2518   2509     1  0.0000000  1.6038667  3
   1227   1225   2518   2509     1  0.0000000  1.6038667  3
   1230   1231   1243   1244     1  0.0000000  0.6508444  3
   1230   1231   1243   1245     1  0.0000000  0.6508444  3
   1230   1234   1246   1247     1  0.0000000  0.6508444  3
   1230   1234   1246   1248     1  0.0000000  0.6508444  3
   1230   1237   1240   1241     1  0.0000000  0.6508444  3
   1230   1237   1240   1242     1  0.0000000  0.6508444  3
   1231   1230   1234   1235     1  0.0000000  0.6508444  3
   1231   1230   1234   1236     1  0.0000000  0.6508444  3
   1231   1230   1237   1238     1  0.0000000  0.6508444  3
   1231   1230   1237   1239     1  0.0000000  0.6508444  3
   1231   1243   1255   1256     1  0.0000000  0.6508444  3
   1231   1243   1255   1257     1  0.0000000  0.6508444  3
   1232   1231   1230   1234     1  0.0000000  0.6508444  3
   1232   1231   1230   1237     1  0.0000000  0.6508444  3
   1232   1231   1230   1259     1  0.0000000  0.6508444  3
   1232   1231   1243   1255     1  0.0000000  0.6508444  3
   1232   1231   1243   1244     1  0.0000000  0.6508444  3
   1232   1231   1243   1245     1  0.0000000  0.6508444  3
   1233   1231   1230   1234     1  0.0000000  0.6508444  3
   1233   1231   1230   1237     1  0.0000000  0.6508444  3
   1233   1231   1230   1259     1  0.0000000  0.6508444  3
   1233   1231   1243   1255     1  0.0000000  0.6508444  3
   1233   1231   1243   1244     1  0.0000000  0.6508444  3
   1233   1231   1243   1245     1  0.0000000  0.6508444  3
   1234   1230   1237   1238     1  0.0000000  0.6508444  3
   1234   1230   1237   1239     1  0.0000000  0.6508444  3
   1234   1246   1252   1253     1  0.0000000  0.6508444  3
   1234   1246   1252   1254     1  0.0000000  0.6508444  3
   1235   1234   1230   1237     1  0.0000000  0.6508444  3
   1235   1234   1230   1259     1  0.0000000  0.6508444  3
   1235   1234   1246   1252     1  0.0000000  0.6508444  3
   1235   1234   1246   1247     1  0.0000000  0.6508444  3
   1235   1234   1246   1248     1  0.0000000  0.6508444  3
   1236   1234   1230   1237     1  0.0000000  0.6508444  3
   1236   1234   1230   1259     1  0.0000000  0.6508444  3
   1236   1234   1246   1252     1  0.0000000  0.6508444  3
   1236   1234   1246   1247     1  0.0000000  0.6508444  3
   1236   1234   1246   1248     1  0.0000000  0.6508444  3
   1237   1240   1249   1250     1  0.0000000  0.6508444  3
   1237   1240   1249   1251     1  0.0000000  0.6508444  3
   1238   1237   1230   1259     1  0.0000000  0.6508444  3
   1238   1237   1240   1249     1  0.0000000  0.6508444  3
   1238   1237   1240   1241     1  0.0000000  0.6508444  3
   1238   1237   1240   1242     1  0.0000000  0.6508444  3
   1239   1237   1230   1259     1  0.0000000  0.6508444  3
   1239   1237   1240   1249     1  0.0000000  0.6508444  3
   1239   1237   1240   1241     1  0.0000000  0.6508444  3
   1239   1237   1240   1242     1  0.0000000  0.6508444  3
   1240   1237   1230   1259     1  0.0000000  0.6508444  3
   1241   1240   1249   1258     1  0.0000000  1.0460000  1
   1241   1240   1249   1258     1  0.0000000  0.0000000  3
   1241   1240   1249   1250     1  0.0000000  0.6508444  3
   1241   1240   1249   1251     1  0.0000000  0.6508444  3
   1242   1240   1249   1258     1  0.0000000  1.0460000  1
   1242   1240   1249   1258     1  0.0000000  0.0000000  3
   1242   1240   1249   1250     1  0.0000000  0.6508444  3
   1242   1240   1249   1251     1  0.0000000  0.6508444  3
   1243   1231   1230   1259     1  0.0000000  0.6508444  3
   1244   1243   1255   2578     1  0.0000000  1.0460000  1
   1244   1243   1255   2578     1  0.0000000  0.0000000  3
   1244   1243   1255   1256     1  0.0000000  0.6508444  3
   1244   1243   1255   1257     1  0.0000000  0.6508444  3
   1245   1243   1255   2578     1  0.0000000  1.0460000  1
   1245   1243   1255   2578     1  0.0000000  0.0000000  3
   1245   1243   1255   1256     1  0.0000000  0.6508444  3
   1245   1243   1255   1257     1  0.0000000  0.6508444  3
   1246   1234   1230   1259     1  0.0000000  0.6508444  3
   1247   1246   1252   2548     1  0.0000000  1.0460000  1
   1247   1246   1252   2548     1  0.0000000  0.0000000  3
   1247   1246   1252   1253     1  0.0000000  0.6508444  3
   1247   1246   1252   1254     1  0.0000000  0.6508444  3
   1248   1246   1252   2548     1  0.0000000  1.0460000  1
   1248   1246   1252   2548     1  0.0000000  0.0000000  3
   1248   1246   1252   1253     1  0.0000000  0.6508444  3
   1248   1246   1252   1254     1  0.0000000  0.6508444  3
   1252   2548   2539   2540     1  0.0000000  1.6038667  3
   1252   2548   2539   2541     1  0.0000000  1.6038667  3
   1253   1252   2548   2539     1  0.0000000  1.6038667  3
   1254   1252   2548   2539     1  0.0000000  1.6038667  3
   1255   2578   2569   2570     1  0.0000000  1.6038667  3
   1255   2578   2569   2571     1  0.0000000  1.6038667  3
   1256   1255   2578   2569     1  0.0000000  1.6038667  3
   1257   1255   2578   2569     1  0.0000000  1.6038667  3
   1260   1261   1273   1274     1  0.0000000  0.6508444  3
   1260   1261   1273   1275     1  0.0000000  0.6508444  3
   1260   1264   1276   1277     1  0.0000000  0.6508444  3
   1260   1264   1276   1278     1  0.0000000  0.6508444  3
   1260   1267   1270   1271     1  0.0000000  0.6508444  3
   1260   1267   1270   1272     1  0.0000000  0.6508444  3
   1261   1260   1264   1265     1  0.0000000  0.6508444  3
   1261   1260   1264   1266     1  0.0000000  0.6508444  3
   1261   1260   1267   1268     1  0.0000000  0.6508444  3
   1261   1260   1267   1269     1  0.0000000  0.6508444  3
   1261   1273   1285   1286     1  0.0000000  0.6508444  3
   1261   1273   1285   1287     1  0.0000000  0.6508444  3
   1262   1261   1260   1264     1  0.0000000  0.6508444  3
   1262   1261   1260   1267     1  0.0000000  0.6508444  3
   1262   1261   1260   1289     1  0.0000000  0.6508444  3
   1262   1261   1273   1285     1  0.0000000  0.6508444  3
   1262   1261   1273   1274     1  0.0000000  0.6508444  3
   1262   1261   1273   1275     1  0.0000000  0.6508444  3
   1263   1261   1260   1264     1  0.0000000  0.6508444  3
   1263   1261   1260   1267     1  0.0000000  0.6508444  3
   1263   1261   1260   1289     1  0.0000000  0.6508444  3
   1263   1261   1273   1285     1  0.0000000  0.6508444  3
   1263   1261   1273   1274     1  0.0000000  0.6508444  3
   1263   1261   1273   1275     1  0.0000000  0.6508444  3
   1264   1260   1267   1268     1  0.0000000  0.6508444  3
   1264   1260   1267   1269     1  0.0000000  0.6508444  3
   1264   1276   1282   1283     1  0.0000000  0.6508444  3
   1264   1276   1282   1284     1  0.0000000  0.6508444  3
   1265   1264   1260   1267     1  0.0000000  0.6508444  3
   1265   1264   1260   1289     1  0.0000000  0.6508444  3
   1265   1264   1276   1282     1  0.0000000  0.6508444  3
   1265   1264   1276   1277     1  0.0000000  0.6508444  3
   1265   1264   1276   1278     1  0.0000000  0.6508444  3
   1266   1264   1260   1267     1  0.0000000  0.6508444  3
   1266   1264   1260   1289     1  0.0000000  0.6508444  3
   1266   1264   1276   1282     1  0.0000000  0.6508444  3
   1266   1264   1276   1277     1  0.0000000  0.6508444  3
   1266   1264   1276   1278     1  0.0000000  0.6508444  3
   1267   1270   1279   1280     1  0.0000000  0.6508444  3
   1267   1270   1279   1281     1  0.0000000  0.6508444  3
   1268   1267   1260   1289     1  0.0000000  0.6508444  3
   1268   1267   1270   1279     1  0.0000000  0.6508444  3
   1268   1267   1270   1271     1  0.0000000  0.6508444  3
   1268   1267   1270   1272     1  0.0000000  0.6508444  3
   1269   1267   1260   1289     1  0.0000000  0.6508444  3
   1269   1267   1270   1279     1  0.0000000  0.6508444  3
   1269   1267   1270   1271     1  0.0000000  0.6508444  3
   1269   1267   1270   1272     1  0.0000000  0.6508444  3
   1270   1267   1260   1289     1  0.0000000  0.6508444  3
   1271   1270   1279   1288     1  0.0000000  1.0460000  1
   1271   1270   1279   1288     1  0.0000000  0.0000000  3
   1271   1270   1279   1280     1  0.0000000  0.6508444  3
   1271   1270   1279   1281     1  0.0000000  0.6508444  3
   1272   1270   1279   1288     1  0.0000000  1.0460000  1
   1272   1270   1279   1288     1  0.0000000  0.0000000  3
   1272   1270   1279   1280     1  0.0000000  0.6508444  3
   1272   1270   1279   1281     1  0.0000000  0.6508444  3
   1273   1261   1260   1289     1  0.0000000  0.6508444  3
   1274   1273   1285   2638     1  0.0000000  1.0460000  1
   1274   1273   1285   2638     1  0.0000000  0.0000000  3
   1274   1273   1285   1286     1  0.0000000  0.6508444  3
   1274   1273   1285   1287     1  0.0000000  0.6508444  3
   1275   1273   1285   2638     1  0.0000000  1.0460000  1
   1275   1273   1285   2638     1  0.0000000  0.0000000  3
   1275   1273   1285   1286     1  0.0000000  0.6508444  3
   1275   1273   1285   1287     1  0.0000000  0.6508444  3
   1276   1264   1260   1289     1  0.0000000  0.6508444  3
   1277   1276   1282   2608     1  0.0000000  1.0460000  1
   1277   1276   1282   2608     1  0.0000000  0.0000000  3
   1277   1276   1282   1283     1  0.0000000  0.6508444  3
   1277   1276   1282   1284     1  0.0000000  0.6508444  3
   1278   1276   1282   2608     1  0.0000000  1.0460000  1
   1278   1276   1282   2608     1  0.0000000  0.0000000  3
   1278   1276   1282   1283     1  0.0000000  0.6508444  3
   1278   1276   1282   1284     1  0.0000000  0.6508444  3
   1282   2608   2599   2600     1  0.0000000  1.6038667  3
   1282   2608   2599   2601     1  0.0000000  1.6038667  3
   1283   1282   2608   2599     1  0.0000000  1.6038667  3
   1284   1282   2608   2599     1  0.0000000  1.6038667  3
   1285   2638   2629   2630     1  0.0000000  1.6038667  3
   1285   2638   2629   2631     1  0.0000000  1.6038667  3
   1286   1285   2638   2629     1  0.0000000  1.6038667  3
   1287   1285   2638   2629     1  0.0000000  1.6038667  3
   1290   1291   1303   1304     1  0.0000000  0.6508444  3
   1290   1291   1303   1305     1  0.0000000  0.6508444  3
   1290   1294   1306   1307     1  0.0000000  0.6508444  3
   1290   1294   1306   1308     1  0.0000000  0.6508444  3
   1290   1297   1300   1301     1  0.0000000  0.6508444  3
   1290   1297   1300   1302     1  0.0000000  0.6508444  3
   1291   1290   1294   1295     1  0.0000000  0.6508444  3
   1291   1290   1294   1296     1  0.0000000  0.6508444  3
   1291   1290   1297   1298     1  0.0000000  0.6508444  3
   1291   1290   1297   1299     1  0.0000000  0.6508444  3
   1291   1303   1315   1316     1  0.0000000  0.6508444  3
   1291   1303   1315   1317     1  0.0000000  0.6508444  3
   1292   1291   1290   1294     1  0.0000000  0.6508444  3
   1292   1291   1290   1297     1  0.0000000  0.6508444  3
   1292   1291   1290   1319     1  0.0000000  0.6508444  3
   1292   1291   1303   1315     1  0.0000000  0.6508444  3
   1292   1291   1303   1304     1  0.0000000  0.6508444  3
   1292   1291   1303   1305     1  0.0000000  0.6508444  3
   1293   1291   1290   1294     1  0.0000000  0.6508444  3
   1293   1291   1290   1297     1  0.0000000  0.6508444  3
   1293   1291   1290   1319     1  0.0000000  0.6508444  3
   1293   1291   1303   1315     1  0.0000000  0.6508444  3
   1293   1291   1303   1304     1  0.0000000  0.6508444  3
   1293   1291   1303   1305     1  0.0000000  0.6508444  3
   1294   1290   1297   1298     1  0.0000000  0.6508444  3
   1294   1290   1297   1299     1  0.0000000  0.6508444  3
   1294   1306   1312   1313     1  0.0000000  0.6508444  3
   1294   1306   1312   1314     1  0.0000000  0.6508444  3
   1295   1294   1290   1297     1  0.0000000  0.6508444  3
   1295   1294   1290   1319     1  0.0000000  0.6508444  3
   1295   1294   1306   1312     1  0.0000000  0.6508444  3
   1295   1294   1306   1307     1  0.0000000  0.6508444  3
   1295   1294   1306   1308     1  0.0000000  0.6508444  3
   1296   1294   1290   1297     1  0.0000000  0.6508444  3
   1296   1294   1290   1319     1  0.0000000  0.6508444  3
   1296   1294   1306   1312     1  0.0000000  0.6508444  3
   1296   1294   1306   1307     1  0.0000000  0.6508444  3
   1296   1294   1306   1308     1  0.0000000  0.6508444  3
   1297   1300   1309   1310     1  0.0000000  0.6508444  3
   1297   1300   1309   1311     1  0.0000000  0.6508444  3
   1298   1297   1290   1319     1  0.0000000  0.6508444  3
   1298   1297   1300   1309     1  0.0000000  0.6508444  3
   1298   1297   1300   1301     1  0.0000000  0.6508444  3
   1298   1297   1300   1302     1  0.0000000  0.6508444  3
   1299   1297   1290   1319     1  0.0000000  0.6508444  3
   1299   1297   1300   1309     1  0.0000000  0.6508444  3
   1299   1297   1300   1301     1  0.0000000  0.6508444  3
   1299   1297   1300   1302     1  0.0000000  0.6508444  3
   1300   1297   1290   1319     1  0.0000000  0.6508444  3
   1301   1300   1309   1318     1  0.0000000  1.0460000  1
   1301   1300   1309   1318     1  0.0000000  0.0000000  3
   1301   1300   1309   1310     1  0.0000000  0.6508444  3
   1301   1300   1309   1311     1  0.0000000  0.6508444  3
   1302   1300   1309   1318     1  0.0000000  1.0460000  1
   1302   1300   1309   1318     1  0.0000000  0.0000000  3
   1302   1300   1309   1310     1  0.0000000  0.6508444  3
   1302   1300   1309   1311     1  0.0000000  0.6508444  3
   1303   1291   1290   1319     1  0.0000000  0.6508444  3
   1304   1303   1315   2698     1  0.0000000  1.0460000  1
   1304   1303   1315   2698     1  0.0000000  0.0000000  3
   1304   1303   1315   1316     1  0.0000000  0.6508444  3
   1304   1303   1315   1317     1  0.0000000  0.6508444  3
   1305   1303   1315   2698     1  0.0000000  1.0460000  1
   1305   1303   1315   2698     1  0.0000000  0.0000000  3
   1305   1303   1315   1316     1  0.0000000  0.6508444  3
   1305   1303   1315   1317     1  0.0000000  0.6508444  3
   1306   1294   1290   1319     1  0.0000000  0.6508444  3
   1307   1306   1312   2668     1  0.0000000  1.0460000  1
   1307   1306   1312   2668     1  0.0000000  0.0000000  3
   1307   1306   1312   1313     1  0.0000000  0.6508444  3
   1307   1306   1312   1314     1  0.0000000  0.6508444  3
   1308   1306   1312   2668     1  0.0000000  1.0460000  1
   1308   1306   1312   2668     1  0.0000000  0.0000000  3
   1308   1306   1312   1313     1  0.0000000  0.6508444  3
   1308   1306   1312   1314     1  0.0000000  0.6508444  3
   1312   2668   2659   2660     1  0.0000000  1.6038667  3
   1312   2668   2659   2661     1  0.0000000  1.6038667  3
   1313   1312   2668   2659     1  0.0000000  1.6038667  3
   1314   1312   2668   2659     1  0.0000000  1.6038667  3
   1315   2698   2689   2690     1  0.0000000  1.6038667  3
   1315   2698   2689   2691     1  0.0000000  1.6038667  3
   1316   1315   2698   2689     1  0.0000000  1.6038667  3
   1317   1315   2698   2689     1  0.0000000  1.6038667  3
   1320   1321   1333   1334     1  0.0000000  0.6508444  3
   1320   1321   1333   1335     1  0.0000000  0.6508444  3
   1320   1324   1336   1337     1  0.0000000  0.6508444  3
   1320   1324   1336   1338     1  0.0000000  0.6508444  3
   1320   1327   1330   1331     1  0.0000000  0.6508444  3
   1320   1327   1330   1332     1  0.0000000  0.6508444  3
   1321   1320   1324   1325     1  0.0000000  0.6508444  3
   1321   1320   1324   1326     1  0.0000000  0.6508444  3
   1321   1320   1327   1328     1  0.0000000  0.6508444  3
   1321   1320   1327   1329     1  0.0000000  0.6508444  3
   1321   1333   1345   1346     1  0.0000000  0.6508444  3
   1321   1333   1345   1347     1  0.0000000  0.6508444  3
   1322   1321   1320   1324     1  0.0000000  0.6508444  3
   1322   1321   1320   1327     1  0.0000000  0.6508444  3
   1322   1321   1320   1349     1  0.0000000  0.6508444  3
   1322   1321   1333   1345     1  0.0000000  0.6508444  3
   1322   1321   1333   1334     1  0.0000000  0.6508444  3
   1322   1321   1333   1335     1  0.0000000  0.6508444  3
   1323   1321   1320   1324     1  0.0000000  0.6508444  3
   1323   1321   1320   1327     1  0.0000000  0.6508444  3
   1323   1321   1320   1349     1  0.0000000  0.6508444  3
   1323   1321   1333   1345     1  0.0000000  0.6508444  3
   1323   1321   1333   1334     1  0.0000000  0.6508444  3
   1323   1321   1333   1335     1  0.0000000  0.6508444  3
   1324   1320   1327   1328     1  0.0000000  0.6508444  3
   1324   1320   1327   1329     1  0.0000000  0.6508444  3
   1324   1336   1342   1343     1  0.0000000  0.6508444  3
   1324   1336   1342   1344     1  0.0000000  0.6508444  3
   1325   1324   1320   1327     1  0.0000000  0.6508444  3
   1325   1324   1320   1349     1  0.0000000  0.6508444  3
   1325   1324   1336   1342     1  0.0000000  0.6508444  3
   1325   1324   1336   1337     1  0.0000000  0.6508444  3
   1325   1324   1336   1338     1  0.0000000  0.6508444  3
   1326   1324   1320   1327     1  0.0000000  0.6508444  3
   1326   1324   1320   1349     1  0.0000000  0.6508444  3
   1326   1324   1336   1342     1  0.0000000  0.6508444  3
   1326   1324   1336   1337     1  0.0000000  0.6508444  3
   1326   1324   1336   1338     1  0.0000000  0.6508444  3
   1327   1330   1339   1340     1  0.0000000  0.6508444  3
   1327   1330   1339   1341     1  0.0000000  0.6508444  3
   1328   1327   1320   1349     1  0.0000000  0.6508444  3
   1328   1327   1330   1339     1  0.0000000  0.6508444  3
   1328   1327   1330   1331     1  0.0000000  0.6508444  3
   1328   1327   1330   1332     1  0.0000000  0.6508444  3
   1329   1327   1320   1349     1  0.0000000  0.6508444  3
   1329   1327   1330   1339     1  0.0000000  0.6508444  3
   1329   1327   1330   1331     1  0.0000000  0.6508444  3
   1329   1327   1330   1332     1  0.0000000  0.6508444  3
   1330   1327   1320   1349     1  0.0000000  0.6508444  3
   1331   1330   1339   1348     1  0.0000000  1.0460000  1
   1331   1330   1339   1348     1  0.0000000  0.0000000  3
   1331   1330   1339   1340     1  0.0000000  0.6508444  3
   1331   1330   1339   1341     1  0.0000000  0.6508444  3
   1332   1330   1339   1348     1  0.0000000  1.0460000  1
   1332   1330   1339   1348     1  0.0000000  0.0000000  3
   1332   1330   1339   1340     1  0.0000000  0.6508444  3
   1332   1330   1339   1341     1  0.0000000  0.6508444  3
   1333   1321   1320   1349     1  0.0000000  0.6508444  3
   1334   1333   1345   2758     1  0.0000000  1.0460000  1
   1334   1333   1345   2758     1  0.0000000  0.0000000  3
   1334   1333   1345   1346     1  0.0000000  0.6508444  3
   1334   1333   1345   1347     1  0.0000000  0.6508444  3
   1335   1333   1345   2758     1  0.0000000  1.0460000  1
   1335   1333   1345   2758     1  0.0000000  0.0000000  3
   1335   1333   1345   1346     1  0.0000000  0.6508444  3
   1335   1333   1345   1347     1  0.0000000  0.6508444  3
   1336   1324   1320   1349     1  0.0000000  0.6508444  3
   1337   1336   1342   2728     1  0.0000000  1.0460000  1
   1337   1336   1342   2728     1  0.0000000  0.0000000  3
   1337   1336   1342   1343     1  0.0000000  0.6508444  3
   1337   1336   1342   1344     1  0.0000000  0.6508444  3
   1338   1336   1342   2728     1  0.0000000  1.0460000  1
   1338   1336   1342   2728     1  0.0000000  0.0000000  3
   1338   1336   1342   1343     1  0.0000000  0.6508444  3
   1338   1336   1342   1344     1  0.0000000  0.6508444  3
   1342   2728   2719   2720     1  0.0000000  1.6038667  3
   1342   2728   2719   2721     1  0.0000000  1.6038667  3
   1343   1342   2728   2719     1  0.0000000  1.6038667  3
   1344   1342   2728   2719     1  0.0000000  1.6038667  3
   1345   2758   2749   2750     1  0.0000000  1.6038667  3
   1345   2758   2749   2751     1  0.0000000  1.6038667  3
   1346   1345   2758   2749     1  0.0000000  1.6038667  3
   1347   1345   2758   2749     1  0.0000000  1.6038667  3
   1350   1351   1363   1364     1  0.0000000  0.6508444  3
   1350   1351   1363   1365     1  0.0000000  0.6508444  3
   1350   1354   1366   1367     1  0.0000000  0.6508444  3
   1350   1354   1366   1368     1  0.0000000  0.6508444  3
   1350   1357   1360   1361     1  0.0000000  0.6508444  3
   1350   1357   1360   1362     1  0.0000000  0.6508444  3
   1351   1350   1354   1355     1  0.0000000  0.6508444  3
   1351   1350   1354   1356     1  0.0000000  0.6508444  3
   1351   1350   1357   1358     1  0.0000000  0.6508444  3
   1351   1350   1357   1359     1  0.0000000  0.6508444  3
   1351   1363   1375   1376     1  0.0000000  0.6508444  3
   1351   1363   1375   1377     1  0.0000000  0.6508444  3
   1352   1351   1350   1354     1  0.0000000  0.6508444  3
   1352   1351   1350   1357     1  0.0000000  0.6508444  3
   1352   1351   1350   1379     1  0.0000000  0.6508444  3
   1352   1351   1363   1375     1  0.0000000  0.6508444  3
   1352   1351   1363   1364     1  0.0000000  0.6508444  3
   1352   1351   1363   1365     1  0.0000000  0.6508444  3
   1353   1351   1350   1354     1  0.0000000  0.6508444  3
   1353   1351   1350   1357     1  0.0000000  0.6508444  3
   1353   1351   1350   1379     1  0.0000000  0.6508444  3
   1353   1351   1363   1375     1  0.0000000  0.6508444  3
   1353   1351   1363   1364     1  0.0000000  0.6508444  3
   1353   1351   1363   1365     1  0.0000000  0.6508444  3
   1354   1350   1357   1358     1  0.0000000  0.6508444  3
   1354   1350   1357   1359     1  0.0000000  0.6508444  3
   1354   1366   1372   1373     1  0.0000000  0.6508444  3
   1354   1366   1372   1374     1  0.0000000  0.6508444  3
   1355   1354   1350   1357     1  0.0000000  0.6508444  3
   1355   1354   1350   1379     1  0.0000000  0.6508444  3
   1355   1354   1366   1372     1  0.0000000  0.6508444  3
   1355   1354   1366   1367     1  0.0000000  0.6508444  3
   1355   1354   1366   1368     1  0.0000000  0.6508444  3
   1356   1354   1350   1357     1  0.0000000  0.6508444  3
   1356   1354   1350   1379     1  0.0000000  0.6508444  3
   1356   1354   1366   1372     1  0.0000000  0.6508444  3
   1356   1354   1366   1367     1  0.0000000  0.6508444  3
   1356   1354   1366   1368     1  0.0000000  0.6508444  3
   1357   1360   1369   1370     1  0.0000000  0.6508444  3
   1357   1360   1369   1371     1  0.0000000  0.6508444  3
   1358   1357   1350   1379     1  0.0000000  0.6508444  3
   1358   1357   1360   1369     1  0.0000000  0.6508444  3
   1358   1357   1360   1361     1  0.0000000  0.6508444  3
   1358   1357   1360   1362     1  0.0000000  0.6508444  3
   1359   1357   1350   1379     1  0.0000000  0.6508444  3
   1359   1357   1360   1369     1  0.0000000  0.6508444  3
   1359   1357   1360   1361     1  0.0000000  0.6508444  3
   1359   1357   1360   1362     1  0.0000000  0.6508444  3
   1360   1357   1350   1379     1  0.0000000  0.6508444  3
   1361   1360   1369   1378     1  0.0000000  1.0460000  1
   1361   1360   1369   1378     1  0.0000000  0.0000000  3
   1361   1360   1369   1370     1  0.0000000  0.6508444  3
   1361   1360   1369   1371     1  0.0000000  0.6508444  3
   1362   1360   1369   1378     1  0.0000000  1.0460000  1
   1362   1360   1369   1378     1  0.0000000  0.0000000  3
   1362   1360   1369   1370     1  0.0000000  0.6508444  3
   1362   1360   1369   1371     1  0.0000000  0.6508444  3
   1363   1351   1350   1379     1  0.0000000  0.6508444  3
   1364   1363   1375   2818     1  0.0000000  1.0460000  1
   1364   1363   1375   2818     1  0.0000000  0.0000000  3
   1364   1363   1375   1376     1  0.0000000  0.6508444  3
   1364   1363   1375   1377     1  0.0000000  0.6508444  3
   1365   1363   1375   2818     1  0.0000000  1.0460000  1
   1365   1363   1375   2818     1  0.0000000  0.0000000  3
   1365   1363   1375   1376     1  0.0000000  0.6508444  3
   1365   1363   1375   1377     1  0.0000000  0.6508444  3
   1366   1354   1350   1379     1  0.0000000  0.6508444  3
   1367   1366   1372   2788     1  0.0000000  1.0460000  1
   1367   1366   1372   2788     1  0.0000000  0.0000000  3
   1367   1366   1372   1373     1  0.0000000  0.6508444  3
   1367   1366   1372   1374     1  0.0000000  0.6508444  3
   1368   1366   1372   2788     1  0.0000000  1.0460000  1
   1368   1366   1372   2788     1  0.0000000  0.0000000  3
   1368   1366   1372   1373     1  0.0000000  0.6508444  3
   1368   1366   1372   1374     1  0.0000000  0.6508444  3
   1372   2788   2779   2780     1  0.0000000  1.6038667  3
   1372   2788   2779   2781     1  0.0000000  1.6038667  3
   1373   1372   2788   2779     1  0.0000000  1.6038667  3
   1374   1372   2788   2779     1  0.0000000  1.6038667  3
   1375   2818   2809   2810     1  0.0000000  1.6038667  3
   1375   2818   2809   2811     1  0.0000000  1.6038667  3
   1376   1375   2818   2809     1  0.0000000  1.6038667  3
   1377   1375   2818   2809     1  0.0000000  1.6038667  3
   1380   1381   1393   1394     1  0.0000000  0.6508444  3
   1380   1381   1393   1395     1  0.0000000  0.6508444  3
   1380   1384   1396   1397     1  0.0000000  0.6508444  3
   1380   1384   1396   1398     1  0.0000000  0.6508444  3
   1380   1387   1390   1391     1  0.0000000  0.6508444  3
   1380   1387   1390   1392     1  0.0000000  0.6508444  3
   1381   1380   1384   1385     1  0.0000000  0.6508444  3
   1381   1380   1384   1386     1  0.0000000  0.6508444  3
   1381   1380   1387   1388     1  0.0000000  0.6508444  3
   1381   1380   1387   1389     1  0.0000000  0.6508444  3
   1381   1393   1405   1406     1  0.0000000  0.6508444  3
   1381   1393   1405   1407     1  0.0000000  0.6508444  3
   1382   1381   1380   1384     1  0.0000000  0.6508444  3
   1382   1381   1380   1387     1  0.0000000  0.6508444  3
   1382   1381   1380   1409     1  0.0000000  0.6508444  3
   1382   1381   1393   1405     1  0.0000000  0.6508444  3
   1382   1381   1393   1394     1  0.0000000  0.6508444  3
   1382   1381   1393   1395     1  0.0000000  0.6508444  3
   1383   1381   1380   1384     1  0.0000000  0.6508444  3
   1383   1381   1380   1387     1  0.0000000  0.6508444  3
   1383   1381   1380   1409     1  0.0000000  0.6508444  3
   1383   1381   1393   1405     1  0.0000000  0.6508444  3
   1383   1381   1393   1394     1  0.0000000  0.6508444  3
   1383   1381   1393   1395     1  0.0000000  0.6508444  3
   1384   1380   1387   1388     1  0.0000000  0.6508444  3
   1384   1380   1387   1389     1  0.0000000  0.6508444  3
   1384   1396   1402   1403     1  0.0000000  0.6508444  3
   1384   1396   1402   1404     1  0.0000000  0.6508444  3
   1385   1384   1380   1387     1  0.0000000  0.6508444  3
   1385   1384   1380   1409     1  0.0000000  0.6508444  3
   1385   1384   1396   1402     1  0.0000000  0.6508444  3
   1385   1384   1396   1397     1  0.0000000  0.6508444  3
   1385   1384   1396   1398     1  0.0000000  0.6508444  3
   1386   1384   1380   1387     1  0.0000000  0.6508444  3
   1386   1384   1380   1409     1  0.0000000  0.6508444  3
   1386   1384   1396   1402     1  0.0000000  0.6508444  3
   1386   1384   1396   1397     1  0.0000000  0.6508444  3
   1386   1384   1396   1398     1  0.0000000  0.6508444  3
   1387   1390   1399   1400     1  0.0000000  0.6508444  3
   1387   1390   1399   1401     1  0.0000000  0.6508444  3
   1388   1387   1380   1409     1  0.0000000  0.6508444  3
   1388   1387   1390   1399     1  0.0000000  0.6508444  3
   1388   1387   1390   1391     1  0.0000000  0.6508444  3
   1388   1387   1390   1392     1  0.0000000  0.6508444  3
   1389   1387   1380   1409     1  0.0000000  0.6508444  3
   1389   1387   1390   1399     1  0.0000000  0.6508444  3
   1389   1387   1390   1391     1  0.0000000  0.6508444  3
   1389   1387   1390   1392     1  0.0000000  0.6508444  3
   1390   1387   1380   1409     1  0.0000000  0.6508444  3
   1391   1390   1399   1408     1  0.0000000  1.0460000  1
   1391   1390   1399   1408     1  0.0000000  0.0000000  3
   1391   1390   1399   1400     1  0.0000000  0.6508444  3
   1391   1390   1399   1401     1  0.0000000  0.6508444  3
   1392   1390   1399   1408     1  0.0000000  1.0460000  1
   1392   1390   1399   1408     1  0.0000000  0.0000000  3
   1392   1390   1399   1400     1  0.0000000  0.6508444  3
   1392   1390   1399   1401     1  0.0000000  0.6508444  3
   1393   1381   1380   1409     1  0.0000000  0.6508444  3
   1394   1393   1405   2878     1  0.0000000  1.0460000  1
   1394   1393   1405   2878     1  0.0000000  0.0000000  3
   1394   1393   1405   1406     1  0.0000000  0.6508444  3
   1394   1393   1405   1407     1  0.0000000  0.6508444  3
   1395   1393   1405   2878     1  0.0000000  1.0460000  1
   1395   1393   1405   2878     1  0.0000000  0.0000000  3
   1395   1393   1405   1406     1  0.0000000  0.6508444  3
   1395   1393   1405   1407     1  0.0000000  0.6508444  3
   1396   1384   1380   1409     1  0.0000000  0.6508444  3
   1397   1396   1402   2848     1  0.0000000  1.0460000  1
   1397   1396   1402   2848     1  0.0000000  0.0000000  3
   1397   1396   1402   1403     1  0.0000000  0.6508444  3
   1397   1396   1402   1404     1  0.0000000  0.6508444  3
   1398   1396   1402   2848     1  0.0000000  1.0460000  1
   1398   1396   1402   2848     1  0.0000000  0.0000000  3
   1398   1396   1402   1403     1  0.0000000  0.6508444  3
   1398   1396   1402   1404     1  0.0000000  0.6508444  3
   1402   2848   2839   2840     1  0.0000000  1.6038667  3
   1402   2848   2839   2841     1  0.0000000  1.6038667  3
   1403   1402   2848   2839     1  0.0000000  1.6038667  3
   1404   1402   2848   2839     1  0.0000000  1.6038667  3
   1405   2878   2869   2870     1  0.0000000  1.6038667  3
   1405   2878   2869   2871     1  0.0000000  1.6038667  3
   1406   1405   2878   2869     1  0.0000000  1.6038667  3
   1407   1405   2878   2869     1  0.0000000  1.6038667  3
   1410   1411   1423   1424     1  0.0000000  0.6508444  3
   1410   1411   1423   1425     1  0.0000000  0.6508444  3
   1410   1414   1426   1427     1  0.0000000  0.6508444  3
   1410   1414   1426   1428     1  0.0000000  0.6508444  3
   1410   1417   1420   1421     1  0.0000000  0.6508444  3
   1410   1417   1420   1422     1  0.0000000  0.6508444  3
   1411   1410   1414   1415     1  0.0000000  0.6508444  3
   1411   1410   1414   1416     1  0.0000000  0.6508444  3
   1411   1410   1417   1418     1  0.0000000  0.6508444  3
   1411   1410   1417   1419     1  0.0000000  0.6508444  3
   1411   1423   1435   1436     1  0.0000000  0.6508444  3
   1411   1423   1435   1437     1  0.0000000  0.6508444  3
   1412   1411   1410   1414     1  0.0000000  0.6508444  3
   1412   1411   1410   1417     1  0.0000000  0.6508444  3
   1412   1411   1410   1439     1  0.0000000  0.6508444  3
   1412   1411   1423   1435     1  0.0000000  0.6508444  3
   1412   1411   1423   1424     1  0.0000000  0.6508444  3
   1412   1411   1423   1425     1  0.0000000  0.6508444  3
   1413   1411   1410   1414     1  0.0000000  0.6508444  3
   1413   1411   1410   1417     1  0.0000000  0.6508444  3
   1413   1411   1410   1439     1  0.0000000  0.6508444  3
   1413   1411   1423   1435     1  0.0000000  0.6508444  3
   1413   1411   1423   1424     1  0.0000000  0.6508444  3
   1413   1411   1423   1425     1  0.0000000  0.6508444  3
   1414   1410   1417   1418     1  0.0000000  0.6508444  3
   1414   1410   1417   1419     1  0.0000000  0.6508444  3
   1414   1426   1432   1433     1  0.0000000  0.6508444  3
   1414   1426   1432   1434     1  0.0000000  0.6508444  3
   1415   1414   1410   1417     1  0.0000000  0.6508444  3
   1415   1414   1410   1439     1  0.0000000  0.6508444  3
   1415   1414   1426   1432     1  0.0000000  0.6508444  3
   1415   1414   1426   1427     1  0.0000000  0.6508444  3
   1415   1414   1426   1428     1  0.0000000  0.6508444  3
   1416   1414   1410   1417     1  0.0000000  0.6508444  3
   1416   1414   1410   1439     1  0.0000000  0.6508444  3
   1416   1414   1426   1432     1  0.0000000  0.6508444  3
   1416   1414   1426   1427     1  0.0000000  0.6508444  3
   1416   1414   1426   1428     1  0.0000000  0.6508444  3
   1417   1420   1429   1430     1  0.0000000  0.6508444  3
   1417   1420   1429   1431     1  0.0000000  0.6508444  3
   1418   1417   1410   1439     1  0.0000000  0.6508444  3
   1418   1417   1420   1429     1  0.0000000  0.6508444  3
   1418   1417   1420   1421     1  0.0000000  0.6508444  3
   1418   1417   1420   1422     1  0.0000000  0.6508444  3
   1419   1417   1410   1439     1  0.0000000  0.6508444  3
   1419   1417   1420   1429     1  0.0000000  0.6508444  3
   1419   1417   1420   1421     1  0.0000000  0.6508444  3
   1419   1417   1420   1422     1  0.0000000  0.6508444  3
   1420   1417   1410   1439     1  0.0000000  0.6508444  3
   1421   1420   1429   1438     1  0.0000000  1.0460000  1
   1421   1420   1429   1438     1  0.0000000  0.0000000  3
   1421   1420   1429   1430     1  0.0000000  0.6508444  3
   1421   1420   1429   1431     1  0.0000000  0.6508444  3
   1422   1420   1429   1438     1  0.0000000  1.0460000  1
   1422   1420   1429   1438     1  0.0000000  0.0000000  3
   1422   1420   1429   1430     1  0.0000000  0.6508444  3
   1422   1420   1429   1431     1  0.0000000  0.6508444  3
   1423   1411   1410   1439     1  0.0000000  0.6508444  3
   1424   1423   1435   2938     1  0.0000000  1.0460000  1
   1424   1423   1435   2938     1  0.0000000  0.0000000  3
   1424   1423   1435   1436     1  0.0000000  0.6508444  3
   1424   1423   1435   1437     1  0.0000000  0.6508444  3
   1425   1423   1435   2938     1  0.0000000  1.0460000  1
   1425   1423   1435   2938     1  0.0000000  0.0000000  3
   1425   1423   1435   1436     1  0.0000000  0.6508444  3
   1425   1423   1435   1437     1  0.0000000  0.6508444  3
   1426   1414   1410   1439     1  0.0000000  0.6508444  3
   1427   1426   1432   2908     1  0.0000000  1.0460000  1
   1427   1426   1432   2908     1  0.0000000  0.0000000  3
   1427   1426   1432   1433     1  0.0000000  0.6508444  3
   1427   1426   1432   1434     1  0.0000000  0.6508444  3
   1428   1426   1432   2908     1  0.0000000  1.0460000  1
   1428   1426   1432   2908     1  0.0000000  0.0000000  3
   1428   1426   1432   1433     1  0.0000000  0.6508444  3
   1428   1426   1432   1434     1  0.0000000  0.6508444  3
   1432   2908   2899   2900     1  0.0000000  1.6038667  3
   1432   2908   2899   2901     1  0.0000000  1.6038667  3
   1433   1432   2908   2899     1  0.0000000  1.6038667  3
   1434   1432   2908   2899     1  0.0000000  1.6038667  3
   1435   2938   2929   2930     1  0.0000000  1.6038667  3
   1435   2938   2929   2931     1  0.0000000  1.6038667  3
   1436   1435   2938   2929     1  0.0000000  1.6038667  3
   1437   1435   2938   2929     1  0.0000000  1.6038667  3
   1440   1441   1453   1454     1  0.0000000  0.6508444  3
   1440   1441   1453   1455     1  0.0000000  0.6508444  3
   1440   1444   1456   1457     1  0.0000000  0.6508444  3
   1440   1444   1456   1458     1  0.0000000  0.6508444  3
   1440   1447   1450   1451     1  0.0000000  0.6508444  3
   1440   1447   1450   1452     1  0.0000000  0.6508444  3
   1441   1440   1444   1445     1  0.0000000  0.6508444  3
   1441   1440   1444   1446     1  0.0000000  0.6508444  3
   1441   1440   1447   1448     1  0.0000000  0.6508444  3
   1441   1440   1447   1449     1  0.0000000  0.6508444  3
   1441   1453   1465   1466     1  0.0000000  0.6508444  3
   1441   1453   1465   1467     1  0.0000000  0.6508444  3
   1442   1441   1440   1444     1  0.0000000  0.6508444  3
   1442   1441   1440   1447     1  0.0000000  0.6508444  3
   1442   1441   1440   1469     1  0.0000000  0.6508444  3
   1442   1441   1453   1465     1  0.0000000  0.6508444  3
   1442   1441   1453   1454     1  0.0000000  0.6508444  3
   1442   1441   1453   1455     1  0.0000000  0.6508444  3
   1443   1441   1440   1444     1  0.0000000  0.6508444  3
   1443   1441   1440   1447     1  0.0000000  0.6508444  3
   1443   1441   1440   1469     1  0.0000000  0.6508444  3
   1443   1441   1453   1465     1  0.0000000  0.6508444  3
   1443   1441   1453   1454     1  0.0000000  0.6508444  3
   1443   1441   1453   1455     1  0.0000000  0.6508444  3
   1444   1440   1447   1448     1  0.0000000  0.6508444  3
   1444   1440   1447   1449     1  0.0000000  0.6508444  3
   1444   1456   1462   1463     1  0.0000000  0.6508444  3
   1444   1456   1462   1464     1  0.0000000  0.6508444  3
   1445   1444   1440   1447     1  0.0000000  0.6508444  3
   1445   1444   1440   1469     1  0.0000000  0.6508444  3
   1445   1444   1456   1462     1  0.0000000  0.6508444  3
   1445   1444   1456   1457     1  0.0000000  0.6508444  3
   1445   1444   1456   1458     1  0.0000000  0.6508444  3
   1446   1444   1440   1447     1  0.0000000  0.6508444  3
   1446   1444   1440   1469     1  0.0000000  0.6508444  3
   1446   1444   1456   1462     1  0.0000000  0.6508444  3
   1446   1444   1456   1457     1  0.0000000  0.6508444  3
   1446   1444   1456   1458     1  0.0000000  0.6508444  3
   1447   1450   1459   1460     1  0.0000000  0.6508444  3
   1447   1450   1459   1461     1  0.0000000  0.6508444  3
   1448   1447   1440   1469     1  0.0000000  0.6508444  3
   1448   1447   1450   1459     1  0.0000000  0.6508444  3
   1448   1447   1450   1451     1  0.0000000  0.6508444  3
   1448   1447   1450   1452     1  0.0000000  0.6508444  3
   1449   1447   1440   1469     1  0.0000000  0.6508444  3
   1449   1447   1450   1459     1  0.0000000  0.6508444  3
   1449   1447   1450   1451     1  0.0000000  0.6508444  3
   1449   1447   1450   1452     1  0.0000000  0.6508444  3
   1450   1447   1440   1469     1  0.0000000  0.6508444  3
   1451   1450   1459   1468     1  0.0000000  1.0460000  1
   1451   1450   1459   1468     1  0.0000000  0.0000000  3
   1451   1450   1459   1460     1  0.0000000  0.6508444  3
   1451   1450   1459   1461     1  0.0000000  0.6508444  3
   1452   1450   1459   1468     1  0.0000000  1.0460000  1
   1452   1450   1459   1468     1  0.0000000  0.0000000  3
   1452   1450   1459   1460     1  0.0000000  0.6508444  3
   1452   1450   1459   1461     1  0.0000000  0.6508444  3
   1453   1441   1440   1469     1  0.0000000  0.6508444  3
   1454   1453   1465   2998     1  0.0000000  1.0460000  1
   1454   1453   1465   2998     1  0.0000000  0.0000000  3
   1454   1453   1465   1466     1  0.0000000  0.6508444  3
   1454   1453   1465   1467     1  0.0000000  0.6508444  3
   1455   1453   1465   2998     1  0.0000000  1.0460000  1
   1455   1453   1465   2998     1  0.0000000  0.0000000  3
   1455   1453   1465   1466     1  0.0000000  0.6508444  3
   1455   1453   1465   1467     1  0.0000000  0.6508444  3
   1456   1444   1440   1469     1  0.0000000  0.6508444  3
   1457   1456   1462   2968     1  0.0000000  1.0460000  1
   1457   1456   1462   2968     1  0.0000000  0.0000000  3
   1457   1456   1462   1463     1  0.0000000  0.6508444  3
   1457   1456   1462   1464     1  0.0000000  0.6508444  3
   1458   1456   1462   2968     1  0.0000000  1.0460000  1
   1458   1456   1462   2968     1  0.0000000  0.0000000  3
   1458   1456   1462   1463     1  0.0000000  0.6508444  3
   1458   1456   1462   1464     1  0.0000000  0.6508444  3
   1462   2968   2959   2960     1  0.0000000  1.6038667  3
   1462   2968   2959   2961     1  0.0000000  1.6038667  3
   1463   1462   2968   2959     1  0.0000000  1.6038667  3
   1464   1462   2968   2959     1  0.0000000  1.6038667  3
   1465   2998   2989   2990     1  0.0000000  1.6038667  3
   1465   2998   2989   2991     1  0.0000000  1.6038667  3
   1466   1465   2998   2989     1  0.0000000  1.6038667  3
   1467   1465   2998   2989     1  0.0000000  1.6038667  3
   1470   1471   1483   1484     1  0.0000000  0.6508444  3
   1470   1471   1483   1485     1  0.0000000  0.6508444  3
   1470   1474   1486   1487     1  0.0000000  0.6508444  3
   1470   1474   1486   1488     1  0.0000000  0.6508444  3
   1470   1477   1480   1481     1  0.0000000  0.6508444  3
   1470   1477   1480   1482     1  0.0000000  0.6508444  3
   1471   1470   1474   1475     1  0.0000000  0.6508444  3
   1471   1470   1474   1476     1  0.0000000  0.6508444  3
   1471   1470   1477   1478     1  0.0000000  0.6508444  3
   1471   1470   1477   1479     1  0.0000000  0.6508444  3
   1471   1483   1495   1496     1  0.0000000  0.6508444  3
   1471   1483   1495   1497     1  0.0000000  0.6508444  3
   1472   1471   1470   1474     1  0.0000000  0.6508444  3
   1472   1471   1470   1477     1  0.0000000  0.6508444  3
   1472   1471   1470   1499     1  0.0000000  0.6508444  3
   1472   1471   1483   1495     1  0.0000000  0.6508444  3
   1472   1471   1483   1484     1  0.0000000  0.6508444  3
   1472   1471   1483   1485     1  0.0000000  0.6508444  3
   1473   1471   1470   1474     1  0.0000000  0.6508444  3
   1473   1471   1470   1477     1  0.0000000  0.6508444  3
   1473   1471   1470   1499     1  0.0000000  0.6508444  3
   1473   1471   1483   1495     1  0.0000000  0.6508444  3
   1473   1471   1483   1484     1  0.0000000  0.6508444  3
   1473   1471   1483   1485     1  0.0000000  0.6508444  3
   1474   1470   1477   1478     1  0.0000000  0.6508444  3
   1474   1470   1477   1479     1  0.0000000  0.6508444  3
   1474   1486   1492   1493     1  0.0000000  0.6508444  3
   1474   1486   1492   1494     1  0.0000000  0.6508444  3
   1475   1474   1470   1477     1  0.0000000  0.6508444  3
   1475   1474   1470   1499     1  0.0000000  0.6508444  3
   1475   1474   1486   1492     1  0.0000000  0.6508444  3
   1475   1474   1486   1487     1  0.0000000  0.6508444  3
   1475   1474   1486   1488     1  0.0000000  0.6508444  3
   1476   1474   1470   1477     1  0.0000000  0.6508444  3
   1476   1474   1470   1499     1  0.0000000  0.6508444  3
   1476   1474   1486   1492     1  0.0000000  0.6508444  3
   1476   1474   1486   1487     1  0.0000000  0.6508444  3
   1476   1474   1486   1488     1  0.0000000  0.6508444  3
   1477   1480   1489   1490     1  0.0000000  0.6508444  3
   1477   1480   1489   1491     1  0.0000000  0.6508444  3
   1478   1477   1470   1499     1  0.0000000  0.6508444  3
   1478   1477   1480   1489     1  0.0000000  0.6508444  3
   1478   1477   1480   1481     1  0.0000000  0.6508444  3
   1478   1477   1480   1482     1  0.0000000  0.6508444  3
   1479   1477   1470   1499     1  0.0000000  0.6508444  3
   1479   1477   1480   1489     1  0.0000000  0.6508444  3
   1479   1477   1480   1481     1  0.0000000  0.6508444  3
   1479   1477   1480   1482     1  0.0000000  0.6508444  3
   1480   1477   1470   1499     1  0.0000000  0.6508444  3
   1481   1480   1489   1498     1  0.0000000  1.0460000  1
   1481   1480   1489   1498     1  0.0000000  0.0000000  3
   1481   1480   1489   1490     1  0.0000000  0.6508444  3
   1481   1480   1489   1491     1  0.0000000  0.6508444  3
   1482   1480   1489   1498     1  0.0000000  1.0460000  1
   1482   1480   1489   1498     1  0.0000000  0.0000000  3
   1482   1480   1489   1490     1  0.0000000  0.6508444  3
   1482   1480   1489   1491     1  0.0000000  0.6508444  3
   1483   1471   1470   1499     1  0.0000000  0.6508444  3
   1484   1483   1495   3058     1  0.0000000  1.0460000  1
   1484   1483   1495   3058     1  0.0000000  0.0000000  3
   1484   1483   1495   1496     1  0.0000000  0.6508444  3
   1484   1483   1495   1497     1  0.0000000  0.6508444  3
   1485   1483   1495   3058     1  0.0000000  1.0460000  1
   1485   1483   1495   3058     1  0.0000000  0.0000000  3
   1485   1483   1495   1496     1  0.0000000  0.6508444  3
   1485   1483   1495   1497     1  0.0000000  0.6508444  3
   1486   1474   1470   1499     1  0.0000000  0.6508444  3
   1487   1486   1492   3028     1  0.0000000  1.0460000  1
   1487   1486   1492   3028     1  0.0000000  0.0000000  3
   1487   1486   1492   1493     1  0.0000000  0.6508444  3
   1487   1486   1492   1494     1  0.0000000  0.6508444  3
   1488   1486   1492   3028     1  0.0000000  1.0460000  1
   1488   1486   1492   3028     1  0.0000000  0.0000000  3
   1488   1486   1492   1493     1  0.0000000  0.6508444  3
   1488   1486   1492   1494     1  0.0000000  0.6508444  3
   1492   3028   3019   3020     1  0.0000000  1.6038667  3
   1492   3028   3019   3021     1  0.0000000  1.6038667  3
   1493   1492   3028   3019     1  0.0000000  1.6038667  3
   1494   1492   3028   3019     1  0.0000000  1.6038667  3
   1495   3058   3049   3050     1  0.0000000  1.6038667  3
   1495   3058   3049   3051     1  0.0000000  1.6038667  3
   1496   1495   3058   3049     1  0.0000000  1.6038667  3
   1497   1495   3058   3049     1  0.0000000  1.6038667  3
   1500   1501   1513   1514     1  0.0000000  0.6508444  3
   1500   1501   1513   1515     1  0.0000000  0.6508444  3
   1500   1504   1516   1517     1  0.0000000  0.6508444  3
   1500   1504   1516   1518     1  0.0000000  0.6508444  3
   1500   1507   1510   1511     1  0.0000000  0.6508444  3
   1500   1507   1510   1512     1  0.0000000  0.6508444  3
   1501   1500   1504   1505     1  0.0000000  0.6508444  3
   1501   1500   1504   1506     1  0.0000000  0.6508444  3
   1501   1500   1507   1508     1  0.0000000  0.6508444  3
   1501   1500   1507   1509     1  0.0000000  0.6508444  3
   1501   1513   1525   1526     1  0.0000000  0.6508444  3
   1501   1513   1525   1527     1  0.0000000  0.6508444  3
   1502   1501   1500   1504     1  0.0000000  0.6508444  3
   1502   1501   1500   1507     1  0.0000000  0.6508444  3
   1502   1501   1500   1529     1  0.0000000  0.6508444  3
   1502   1501   1513   1525     1  0.0000000  0.6508444  3
   1502   1501   1513   1514     1  0.0000000  0.6508444  3
   1502   1501   1513   1515     1  0.0000000  0.6508444  3
   1503   1501   1500   1504     1  0.0000000  0.6508444  3
   1503   1501   1500   1507     1  0.0000000  0.6508444  3
   1503   1501   1500   1529     1  0.0000000  0.6508444  3
   1503   1501   1513   1525     1  0.0000000  0.6508444  3
   1503   1501   1513   1514     1  0.0000000  0.6508444  3
   1503   1501   1513   1515     1  0.0000000  0.6508444  3
   1504   1500   1507   1508     1  0.0000000  0.6508444  3
   1504   1500   1507   1509     1  0.0000000  0.6508444  3
   1504   1516   1522   1523     1  0.0000000  0.6508444  3
   1504   1516   1522   1524     1  0.0000000  0.6508444  3
   1505   1504   1500   1507     1  0.0000000  0.6508444  3
   1505   1504   1500   1529     1  0.0000000  0.6508444  3
   1505   1504   1516   1522     1  0.0000000  0.6508444  3
   1505   1504   1516   1517     1  0.0000000  0.6508444  3
   1505   1504   1516   1518     1  0.0000000  0.6508444  3
   1506   1504   1500   1507     1  0.0000000  0.6508444  3
   1506   1504   1500   1529     1  0.0000000  0.6508444  3
   1506   1504   1516   1522     1  0.0000000  0.6508444  3
   1506   1504   1516   1517     1  0.0000000  0.6508444  3
   1506   1504   1516   1518     1  0.0000000  0.6508444  3
   1507   1510   1519   1520     1  0.0000000  0.6508444  3
   1507   1510   1519   1521     1  0.0000000  0.6508444  3
   1508   1507   1500   1529     1  0.0000000  0.6508444  3
   1508   1507   1510   1519     1  0.0000000  0.6508444  3
   1508   1507   1510   1511     1  0.0000000  0.6508444  3
   1508   1507   1510   1512     1  0.0000000  0.6508444  3
   1509   1507   1500   1529     1  0.0000000  0.6508444  3
   1509   1507   1510   1519     1  0.0000000  0.6508444  3
   1509   1507   1510   1511     1  0.0000000  0.6508444  3
   1509   1507   1510   1512     1  0.0000000  0.6508444  3
   1510   1507   1500   1529     1  0.0000000  0.6508444  3
   1511   1510   1519   1528     1  0.0000000  1.0460000  1
   1511   1510   1519   1528     1  0.0000000  0.0000000  3
   1511   1510   1519   1520     1  0.0000000  0.6508444  3
   1511   1510   1519   1521     1  0.0000000  0.6508444  3
   1512   1510   1519   1528     1  0.0000000  1.0460000  1
   1512   1510   1519   1528     1  0.0000000  0.0000000  3
   1512   1510   1519   1520     1  0.0000000  0.6508444  3
   1512   1510   1519   1521     1  0.0000000  0.6508444  3
   1513   1501   1500   1529     1  0.0000000  0.6508444  3
   1514   1513   1525   3118     1  0.0000000  1.0460000  1
   1514   1513   1525   3118     1  0.0000000  0.0000000  3
   1514   1513   1525   1526     1  0.0000000  0.6508444  3
   1514   1513   1525   1527     1  0.0000000  0.6508444  3
   1515   1513   1525   3118     1  0.0000000  1.0460000  1
   1515   1513   1525   3118     1  0.0000000  0.0000000  3
   1515   1513   1525   1526     1  0.0000000  0.6508444  3
   1515   1513   1525   1527     1  0.0000000  0.6508444  3
   1516   1504   1500   1529     1  0.0000000  0.6508444  3
   1517   1516   1522   3088     1  0.0000000  1.0460000  1
   1517   1516   1522   3088     1  0.0000000  0.0000000  3
   1517   1516   1522   1523     1  0.0000000  0.6508444  3
   1517   1516   1522   1524     1  0.0000000  0.6508444  3
   1518   1516   1522   3088     1  0.0000000  1.0460000  1
   1518   1516   1522   3088     1  0.0000000  0.0000000  3
   1518   1516   1522   1523     1  0.0000000  0.6508444  3
   1518   1516   1522   1524     1  0.0000000  0.6508444  3
   1522   3088   3079   3080     1  0.0000000  1.6038667  3
   1522   3088   3079   3081     1  0.0000000  1.6038667  3
   1523   1522   3088   3079     1  0.0000000  1.6038667  3
   1524   1522   3088   3079     1  0.0000000  1.6038667  3
   1525   3118   3109   3110     1  0.0000000  1.6038667  3
   1525   3118   3109   3111     1  0.0000000  1.6038667  3
   1526   1525   3118   3109     1  0.0000000  1.6038667  3
   1527   1525   3118   3109     1  0.0000000  1.6038667  3
   1530   1531   1543   1544     1  0.0000000  0.6508444  3
   1530   1531   1543   1545     1  0.0000000  0.6508444  3
   1530   1534   1546   1547     1  0.0000000  0.6508444  3
   1530   1534   1546   1548     1  0.0000000  0.6508444  3
   1530   1537   1540   1541     1  0.0000000  0.6508444  3
   1530   1537   1540   1542     1  0.0000000  0.6508444  3
   1531   1530   1534   1535     1  0.0000000  0.6508444  3
   1531   1530   1534   1536     1  0.0000000  0.6508444  3
   1531   1530   1537   1538     1  0.0000000  0.6508444  3
   1531   1530   1537   1539     1  0.0000000  0.6508444  3
   1531   1543   1555   1556     1  0.0000000  0.6508444  3
   1531   1543   1555   1557     1  0.0000000  0.6508444  3
   1532   1531   1530   1534     1  0.0000000  0.6508444  3
   1532   1531   1530   1537     1  0.0000000  0.6508444  3
   1532   1531   1530   1559     1  0.0000000  0.6508444  3
   1532   1531   1543   1555     1  0.0000000  0.6508444  3
   1532   1531   1543   1544     1  0.0000000  0.6508444  3
   1532   1531   1543   1545     1  0.0000000  0.6508444  3
   1533   1531   1530   1534     1  0.0000000  0.6508444  3
   1533   1531   1530   1537     1  0.0000000  0.6508444  3
   1533   1531   1530   1559     1  0.0000000  0.6508444  3
   1533   1531   1543   1555     1  0.0000000  0.6508444  3
   1533   1531   1543   1544     1  0.0000000  0.6508444  3
   1533   1531   1543   1545     1  0.0000000  0.6508444  3
   1534   1530   1537   1538     1  0.0000000  0.6508444  3
   1534   1530   1537   1539     1  0.0000000  0.6508444  3
   1534   1546   1552   1553     1  0.0000000  0.6508444  3
   1534   1546   1552   1554     1  0.0000000  0.6508444  3
   1535   1534   1530   1537     1  0.0000000  0.6508444  3
   1535   1534   1530   1559     1  0.0000000  0.6508444  3
   1535   1534   1546   1552     1  0.0000000  0.6508444  3
   1535   1534   1546   1547     1  0.0000000  0.6508444  3
   1535   1534   1546   1548     1  0.0000000  0.6508444  3
   1536   1534   1530   1537     1  0.0000000  0.6508444  3
   1536   1534   1530   1559     1  0.0000000  0.6508444  3
   1536   1534   1546   1552     1  0.0000000  0.6508444  3
   1536   1534   1546   1547     1  0.0000000  0.6508444  3
   1536   1534   1546   1548     1  0.0000000  0.6508444  3
   1537   1540   1549   1550     1  0.0000000  0.6508444  3
   1537   1540   1549   1551     1  0.0000000  0.6508444  3
   1538   1537   1530   1559     1  0.0000000  0.6508444  3
   1538   1537   1540   1549     1  0.0000000  0.6508444  3
   1538   1537   1540   1541     1  0.0000000  0.6508444  3
   1538   1537   1540   1542     1  0.0000000  0.6508444  3
   1539   1537   1530   1559     1  0.0000000  0.6508444  3
   1539   1537   1540   1549     1  0.0000000  0.6508444  3
   1539   1537   1540   1541     1  0.0000000  0.6508444  3
   1539   1537   1540   1542     1  0.0000000  0.6508444  3
   1540   1537   1530   1559     1  0.0000000  0.6508444  3
   1541   1540   1549   1558     1  0.0000000  1.0460000  1
   1541   1540   1549   1558     1  0.0000000  0.0000000  3
   1541   1540   1549   1550     1  0.0000000  0.6508444  3
   1541   1540   1549   1551     1  0.0000000  0.6508444  3
   1542   1540   1549   1558     1  0.0000000  1.0460000  1
   1542   1540   1549   1558     1  0.0000000  0.0000000  3
   1542   1540   1549   1550     1  0.0000000  0.6508444  3
   1542   1540   1549   1551     1  0.0000000  0.6508444  3
   1543   1531   1530   1559     1  0.0000000  0.6508444  3
   1544   1543   1555   3178     1  0.0000000  1.0460000  1
   1544   1543   1555   3178     1  0.0000000  0.0000000  3
   1544   1543   1555   1556     1  0.0000000  0.6508444  3
   1544   1543   1555   1557     1  0.0000000  0.6508444  3
   1545   1543   1555   3178     1  0.0000000  1.0460000  1
   1545   1543   1555   3178     1  0.0000000  0.0000000  3
   1545   1543   1555   1556     1  0.0000000  0.6508444  3
   1545   1543   1555   1557     1  0.0000000  0.6508444  3
   1546   1534   1530   1559     1  0.0000000  0.6508444  3
   1547   1546   1552   3148     1  0.0000000  1.0460000  1
   1547   1546   1552   3148     1  0.0000000  0.0000000  3
   1547   1546   1552   1553     1  0.0000000  0.6508444  3
   1547   1546   1552   1554     1  0.0000000  0.6508444  3
   1548   1546   1552   3148     1  0.0000000  1.0460000  1
   1548   1546   1552   3148     1  0.0000000  0.0000000  3
   1548   1546   1552   1553     1  0.0000000  0.6508444  3
   1548   1546   1552   1554     1  0.0000000  0.6508444  3
   1552   3148   3139   3140     1  0.0000000  1.6038667  3
   1552   3148   3139   3141     1  0.0000000  1.6038667  3
   1553   1552   3148   3139     1  0.0000000  1.6038667  3
   1554   1552   3148   3139     1  0.0000000  1.6038667  3
   1555   3178   3169   3170     1  0.0000000  1.6038667  3
   1555   3178   3169   3171     1  0.0000000  1.6038667  3
   1556   1555   3178   3169     1  0.0000000  1.6038667  3
   1557   1555   3178   3169     1  0.0000000  1.6038667  3
   1560   1561   1573   1574     1  0.0000000  0.6508444  3
   1560   1561   1573   1575     1  0.0000000  0.6508444  3
   1560   1564   1576   1577     1  0.0000000  0.6508444  3
   1560   1564   1576   1578     1  0.0000000  0.6508444  3
   1560   1567   1570   1571     1  0.0000000  0.6508444  3
   1560   1567   1570   1572     1  0.0000000  0.6508444  3
   1561   1560   1564   1565     1  0.0000000  0.6508444  3
   1561   1560   1564   1566     1  0.0000000  0.6508444  3
   1561   1560   1567   1568     1  0.0000000  0.6508444  3
   1561   1560   1567   1569     1  0.0000000  0.6508444  3
   1561   1573   1585   1586     1  0.0000000  0.6508444  3
   1561   1573   1585   1587     1  0.0000000  0.6508444  3
   1562   1561   1560   1564     1  0.0000000  0.6508444  3
   1562   1561   1560   1567     1  0.0000000  0.6508444  3
   1562   1561   1560   1589     1  0.0000000  0.6508444  3
   1562   1561   1573   1585     1  0.0000000  0.6508444  3
   1562   1561   1573   1574     1  0.0000000  0.6508444  3
   1562   1561   1573   1575     1  0.0000000  0.6508444  3
   1563   1561   1560   1564     1  0.0000000  0.6508444  3
   1563   1561   1560   1567     1  0.0000000  0.6508444  3
   1563   1561   1560   1589     1  0.0000000  0.6508444  3
   1563   1561   1573   1585     1  0.0000000  0.6508444  3
   1563   1561   1573   1574     1  0.0000000  0.6508444  3
   1563   1561   1573   1575     1  0.0000000  0.6508444  3
   1564   1560   1567   1568     1  0.0000000  0.6508444  3
   1564   1560   1567   1569     1  0.0000000  0.6508444  3
   1564   1576   1582   1583     1  0.0000000  0.6508444  3
   1564   1576   1582   1584     1  0.0000000  0.6508444  3
   1565   1564   1560   1567     1  0.0000000  0.6508444  3
   1565   1564   1560   1589     1  0.0000000  0.6508444  3
   1565   1564   1576   1582     1  0.0000000  0.6508444  3
   1565   1564   1576   1577     1  0.0000000  0.6508444  3
   1565   1564   1576   1578     1  0.0000000  0.6508444  3
   1566   1564   1560   1567     1  0.0000000  0.6508444  3
   1566   1564   1560   1589     1  0.0000000  0.6508444  3
   1566   1564   1576   1582     1  0.0000000  0.6508444  3
   1566   1564   1576   1577     1  0.0000000  0.6508444  3
   1566   1564   1576   1578     1  0.0000000  0.6508444  3
   1567   1570   1579   1580     1  0.0000000  0.6508444  3
   1567   1570   1579   1581     1  0.0000000  0.6508444  3
   1568   1567   1560   1589     1  0.0000000  0.6508444  3
   1568   1567   1570   1579     1  0.0000000  0.6508444  3
   1568   1567   1570   1571     1  0.0000000  0.6508444  3
   1568   1567   1570   1572     1  0.0000000  0.6508444  3
   1569   1567   1560   1589     1  0.0000000  0.6508444  3
   1569   1567   1570   1579     1  0.0000000  0.6508444  3
   1569   1567   1570   1571     1  0.0000000  0.6508444  3
   1569   1567   1570   1572     1  0.0000000  0.6508444  3
   1570   1567   1560   1589     1  0.0000000  0.6508444  3
   1571   1570   1579   1588     1  0.0000000  1.0460000  1
   1571   1570   1579   1588     1  0.0000000  0.0000000  3
   1571   1570   1579   1580     1  0.0000000  0.6508444  3
   1571   1570   1579   1581     1  0.0000000  0.6508444  3
   1572   1570   1579   1588     1  0.0000000  1.0460000  1
   1572   1570   1579   1588     1  0.0000000  0.0000000  3
   1572   1570   1579   1580     1  0.0000000  0.6508444  3
   1572   1570   1579   1581     1  0.0000000  0.6508444  3
   1573   1561   1560   1589     1  0.0000000  0.6508444  3
   1574   1573   1585   3238     1  0.0000000  1.0460000  1
   1574   1573   1585   3238     1  0.0000000  0.0000000  3
   1574   1573   1585   1586     1  0.0000000  0.6508444  3
   1574   1573   1585   1587     1  0.0000000  0.6508444  3
   1575   1573   1585   3238     1  0.0000000  1.0460000  1
   1575   1573   1585   3238     1  0.0000000  0.0000000  3
   1575   1573   1585   1586     1  0.0000000  0.6508444  3
   1575   1573   1585   1587     1  0.0000000  0.6508444  3
   1576   1564   1560   1589     1  0.0000000  0.6508444  3
   1577   1576   1582   3208     1  0.0000000  1.0460000  1
   1577   1576   1582   3208     1  0.0000000  0.0000000  3
   1577   1576   1582   1583     1  0.0000000  0.6508444  3
   1577   1576   1582   1584     1  0.0000000  0.6508444  3
   1578   1576   1582   3208     1  0.0000000  1.0460000  1
   1578   1576   1582   3208     1  0.0000000  0.0000000  3
   1578   1576   1582   1583     1  0.0000000  0.6508444  3
   1578   1576   1582   1584     1  0.0000000  0.6508444  3
   1582   3208   3199   3200     1  0.0000000  1.6038667  3
   1582   3208   3199   3201     1  0.0000000  1.6038667  3
   1583   1582   3208   3199     1  0.0000000  1.6038667  3
   1584   1582   3208   3199     1  0.0000000  1.6038667  3
   1585   3238   3229   3230     1  0.0000000  1.6038667  3
   1585   3238   3229   3231     1  0.0000000  1.6038667  3
   1586   1585   3238   3229     1  0.0000000  1.6038667  3
   1587   1585   3238   3229     1  0.0000000  1.6038667  3
   1590   1591   1603   1604     1  0.0000000  0.6508444  3
   1590   1591   1603   1605     1  0.0000000  0.6508444  3
   1590   1594   1606   1607     1  0.0000000  0.6508444  3
   1590   1594   1606   1608     1  0.0000000  0.6508444  3
   1590   1597   1600   1601     1  0.0000000  0.6508444  3
   1590   1597   1600   1602     1  0.0000000  0.6508444  3
   1591   1590   1594   1595     1  0.0000000  0.6508444  3
   1591   1590   1594   1596     1  0.0000000  0.6508444  3
   1591   1590   1597   1598     1  0.0000000  0.6508444  3
   1591   1590   1597   1599     1  0.0000000  0.6508444  3
   1591   1603   1615   1616     1  0.0000000  0.6508444  3
   1591   1603   1615   1617     1  0.0000000  0.6508444  3
   1592   1591   1590   1594     1  0.0000000  0.6508444  3
   1592   1591   1590   1597     1  0.0000000  0.6508444  3
   1592   1591   1590   1619     1  0.0000000  0.6508444  3
   1592   1591   1603   1615     1  0.0000000  0.6508444  3
   1592   1591   1603   1604     1  0.0000000  0.6508444  3
   1592   1591   1603   1605     1  0.0000000  0.6508444  3
   1593   1591   1590   1594     1  0.0000000  0.6508444  3
   1593   1591   1590   1597     1  0.0000000  0.6508444  3
   1593   1591   1590   1619     1  0.0000000  0.6508444  3
   1593   1591   1603   1615     1  0.0000000  0.6508444  3
   1593   1591   1603   1604     1  0.0000000  0.6508444  3
   1593   1591   1603   1605     1  0.0000000  0.6508444  3
   1594   1590   1597   1598     1  0.0000000  0.6508444  3
   1594   1590   1597   1599     1  0.0000000  0.6508444  3
   1594   1606   1612   1613     1  0.0000000  0.6508444  3
   1594   1606   1612   1614     1  0.0000000  0.6508444  3
   1595   1594   1590   1597     1  0.0000000  0.6508444  3
   1595   1594   1590   1619     1  0.0000000  0.6508444  3
   1595   1594   1606   1612     1  0.0000000  0.6508444  3
   1595   1594   1606   1607     1  0.0000000  0.6508444  3
   1595   1594   1606   1608     1  0.0000000  0.6508444  3
   1596   1594   1590   1597     1  0.0000000  0.6508444  3
   1596   1594   1590   1619     1  0.0000000  0.6508444  3
   1596   1594   1606   1612     1  0.0000000  0.6508444  3
   1596   1594   1606   1607     1  0.0000000  0.6508444  3
   1596   1594   1606   1608     1  0.0000000  0.6508444  3
   1597   1600   1609   1610     1  0.0000000  0.6508444  3
   1597   1600   1609   1611     1  0.0000000  0.6508444  3
   1598   1597   1590   1619     1  0.0000000  0.6508444  3
   1598   1597   1600   1609     1  0.0000000  0.6508444  3
   1598   1597   1600   1601     1  0.0000000  0.6508444  3
   1598   1597   1600   1602     1  0.0000000  0.6508444  3
   1599   1597   1590   1619     1  0.0000000  0.6508444  3
   1599   1597   1600   1609     1  0.0000000  0.6508444  3
   1599   1597   1600   1601     1  0.0000000  0.6508444  3
   1599   1597   1600   1602     1  0.0000000  0.6508444  3
   1600   1597   1590   1619     1  0.0000000  0.6508444  3
   1601   1600   1609   1618     1  0.0000000  1.0460000  1
   1601   1600   1609   1618     1  0.0000000  0.0000000  3
   1601   1600   1609   1610     1  0.0000000  0.6508444  3
   1601   1600   1609   1611     1  0.0000000  0.6508444  3
   1602   1600   1609   1618     1  0.0000000  1.0460000  1
   1602   1600   1609   1618     1  0.0000000  0.0000000  3
   1602   1600   1609   1610     1  0.0000000  0.6508444  3
   1602   1600   1609   1611     1  0.0000000  0.6508444  3
   1603   1591   1590   1619     1  0.0000000  0.6508444  3
   1604   1603   1615   3298     1  0.0000000  1.0460000  1
   1604   1603   1615   3298     1  0.0000000  0.0000000  3
   1604   1603   1615   1616     1  0.0000000  0.6508444  3
   1604   1603   1615   1617     1  0.0000000  0.6508444  3
   1605   1603   1615   3298     1  0.0000000  1.0460000  1
   1605   1603   1615   3298     1  0.0000000  0.0000000  3
   1605   1603   1615   1616     1  0.0000000  0.6508444  3
   1605   1603   1615   1617     1  0.0000000  0.6508444  3
   1606   1594   1590   1619     1  0.0000000  0.6508444  3
   1607   1606   1612   3268     1  0.0000000  1.0460000  1
   1607   1606   1612   3268     1  0.0000000  0.0000000  3
   1607   1606   1612   1613     1  0.0000000  0.6508444  3
   1607   1606   1612   1614     1  0.0000000  0.6508444  3
   1608   1606   1612   3268     1  0.0000000  1.0460000  1
   1608   1606   1612   3268     1  0.0000000  0.0000000  3
   1608   1606   1612   1613     1  0.0000000  0.6508444  3
   1608   1606   1612   1614     1  0.0000000  0.6508444  3
   1612   3268   3259   3260     1  0.0000000  1.6038667  3
   1612   3268   3259   3261     1  0.0000000  1.6038667  3
   1613   1612   3268   3259     1  0.0000000  1.6038667  3
   1614   1612   3268   3259     1  0.0000000  1.6038667  3
   1615   3298   3289   3290     1  0.0000000  1.6038667  3
   1615   3298   3289   3291     1  0.0000000  1.6038667  3
   1616   1615   3298   3289     1  0.0000000  1.6038667  3
   1617   1615   3298   3289     1  0.0000000  1.6038667  3
   1620   1621   1633   1634     1  0.0000000  0.6508444  3
   1620   1621   1633   1635     1  0.0000000  0.6508444  3
   1620   1624   1636   1637     1  0.0000000  0.6508444  3
   1620   1624   1636   1638     1  0.0000000  0.6508444  3
   1620   1627   1630   1631     1  0.0000000  0.6508444  3
   1620   1627   1630   1632     1  0.0000000  0.6508444  3
   1621   1620   1624   1625     1  0.0000000  0.6508444  3
   1621   1620   1624   1626     1  0.0000000  0.6508444  3
   1621   1620   1627   1628     1  0.0000000  0.6508444  3
   1621   1620   1627   1629     1  0.0000000  0.6508444  3
   1621   1633   1645   1646     1  0.0000000  0.6508444  3
   1621   1633   1645   1647     1  0.0000000  0.6508444  3
   1622   1621   1620   1624     1  0.0000000  0.6508444  3
   1622   1621   1620   1627     1  0.0000000  0.6508444  3
   1622   1621   1620   1649     1  0.0000000  0.6508444  3
   1622   1621   1633   1645     1  0.0000000  0.6508444  3
   1622   1621   1633   1634     1  0.0000000  0.6508444  3
   1622   1621   1633   1635     1  0.0000000  0.6508444  3
   1623   1621   1620   1624     1  0.0000000  0.6508444  3
   1623   1621   1620   1627     1  0.0000000  0.6508444  3
   1623   1621   1620   1649     1  0.0000000  0.6508444  3
   1623   1621   1633   1645     1  0.0000000  0.6508444  3
   1623   1621   1633   1634     1  0.0000000  0.6508444  3
   1623   1621   1633   1635     1  0.0000000  0.6508444  3
   1624   1620   1627   1628     1  0.0000000  0.6508444  3
   1624   1620   1627   1629     1  0.0000000  0.6508444  3
   1624   1636   1642   1643     1  0.0000000  0.6508444  3
   1624   1636   1642   1644     1  0.0000000  0.6508444  3
   1625   1624   1620   1627     1  0.0000000  0.6508444  3
   1625   1624   1620   1649     1  0.0000000  0.6508444  3
   1625   1624   1636   1642     1  0.0000000  0.6508444  3
   1625   1624   1636   1637     1  0.0000000  0.6508444  3
   1625   1624   1636   1638     1  0.0000000  0.6508444  3
   1626   1624   1620   1627     1  0.0000000  0.6508444  3
   1626   1624   1620   1649     1  0.0000000  0.6508444  3
   1626   1624   1636   1642     1  0.0000000  0.6508444  3
   1626   1624   1636   1637     1  0.0000000  0.6508444  3
   1626   1624   1636   1638     1  0.0000000  0.6508444  3
   1627   1630   1639   1640     1  0.0000000  0.6508444  3
   1627   1630   1639   1641     1  0.0000000  0.6508444  3
   1628   1627   1620   1649     1  0.0000000  0.6508444  3
   1628   1627   1630   1639     1  0.0000000  0.6508444  3
   1628   1627   1630   1631     1  0.0000000  0.6508444  3
   1628   1627   1630   1632     1  0.0000000  0.6508444  3
   1629   1627   1620   1649     1  0.0000000  0.6508444  3
   1629   1627   1630   1639     1  0.0000000  0.6508444  3
   1629   1627   1630   1631     1  0.0000000  0.6508444  3
   1629   1627   1630   1632     1  0.0000000  0.6508444  3
   1630   1627   1620   1649     1  0.0000000  0.6508444  3
   1631   1630   1639   1648     1  0.0000000  1.0460000  1
   1631   1630   1639   1648     1  0.0000000  0.0000000  3
   1631   1630   1639   1640     1  0.0000000  0.6508444  3
   1631   1630   1639   1641     1  0.0000000  0.6508444  3
   1632   1630   1639   1648     1  0.0000000  1.0460000  1
   1632   1630   1639   1648     1  0.0000000  0.0000000  3
   1632   1630   1639   1640     1  0.0000000  0.6508444  3
   1632   1630   1639   1641     1  0.0000000  0.6508444  3
   1633   1621   1620   1649     1  0.0000000  0.6508444  3
   1634   1633   1645   3358     1  0.0000000  1.0460000  1
   1634   1633   1645   3358     1  0.0000000  0.0000000  3
   1634   1633   1645   1646     1  0.0000000  0.6508444  3
   1634   1633   1645   1647     1  0.0000000  0.6508444  3
   1635   1633   1645   3358     1  0.0000000  1.0460000  1
   1635   1633   1645   3358     1  0.0000000  0.0000000  3
   1635   1633   1645   1646     1  0.0000000  0.6508444  3
   1635   1633   1645   1647     1  0.0000000  0.6508444  3
   1636   1624   1620   1649     1  0.0000000  0.6508444  3
   1637   1636   1642   3328     1  0.0000000  1.0460000  1
   1637   1636   1642   3328     1  0.0000000  0.0000000  3
   1637   1636   1642   1643     1  0.0000000  0.6508444  3
   1637   1636   1642   1644     1  0.0000000  0.6508444  3
   1638   1636   1642   3328     1  0.0000000  1.0460000  1
   1638   1636   1642   3328     1  0.0000000  0.0000000  3
   1638   1636   1642   1643     1  0.0000000  0.6508444  3
   1638   1636   1642   1644     1  0.0000000  0.6508444  3
   1642   3328   3319   3320     1  0.0000000  1.6038667  3
   1642   3328   3319   3321     1  0.0000000  1.6038667  3
   1643   1642   3328   3319     1  0.0000000  1.6038667  3
   1644   1642   3328   3319     1  0.0000000  1.6038667  3
   1645   3358   3349   3350     1  0.0000000  1.6038667  3
   1645   3358   3349   3351     1  0.0000000  1.6038667  3
   1646   1645   3358   3349     1  0.0000000  1.6038667  3
   1647   1645   3358   3349     1  0.0000000  1.6038667  3
   1650   1651   1663   1664     1  0.0000000  0.6508444  3
   1650   1651   1663   1665     1  0.0000000  0.6508444  3
   1650   1654   1666   1667     1  0.0000000  0.6508444  3
   1650   1654   1666   1668     1  0.0000000  0.6508444  3
   1650   1657   1660   1661     1  0.0000000  0.6508444  3
   1650   1657   1660   1662     1  0.0000000  0.6508444  3
   1651   1650   1654   1655     1  0.0000000  0.6508444  3
   1651   1650   1654   1656     1  0.0000000  0.6508444  3
   1651   1650   1657   1658     1  0.0000000  0.6508444  3
   1651   1650   1657   1659     1  0.0000000  0.6508444  3
   1651   1663   1675   1676     1  0.0000000  0.6508444  3
   1651   1663   1675   1677     1  0.0000000  0.6508444  3
   1652   1651   1650   1654     1  0.0000000  0.6508444  3
   1652   1651   1650   1657     1  0.0000000  0.6508444  3
   1652   1651   1650   1679     1  0.0000000  0.6508444  3
   1652   1651   1663   1675     1  0.0000000  0.6508444  3
   1652   1651   1663   1664     1  0.0000000  0.6508444  3
   1652   1651   1663   1665     1  0.0000000  0.6508444  3
   1653   1651   1650   1654     1  0.0000000  0.6508444  3
   1653   1651   1650   1657     1  0.0000000  0.6508444  3
   1653   1651   1650   1679     1  0.0000000  0.6508444  3
   1653   1651   1663   1675     1  0.0000000  0.6508444  3
   1653   1651   1663   1664     1  0.0000000  0.6508444  3
   1653   1651   1663   1665     1  0.0000000  0.6508444  3
   1654   1650   1657   1658     1  0.0000000  0.6508444  3
   1654   1650   1657   1659     1  0.0000000  0.6508444  3
   1654   1666   1672   1673     1  0.0000000  0.6508444  3
   1654   1666   1672   1674     1  0.0000000  0.6508444  3
   1655   1654   1650   1657     1  0.0000000  0.6508444  3
   1655   1654   1650   1679     1  0.0000000  0.6508444  3
   1655   1654   1666   1672     1  0.0000000  0.6508444  3
   1655   1654   1666   1667     1  0.0000000  0.6508444  3
   1655   1654   1666   1668     1  0.0000000  0.6508444  3
   1656   1654   1650   1657     1  0.0000000  0.6508444  3
   1656   1654   1650   1679     1  0.0000000  0.6508444  3
   1656   1654   1666   1672     1  0.0000000  0.6508444  3
   1656   1654   1666   1667     1  0.0000000  0.6508444  3
   1656   1654   1666   1668     1  0.0000000  0.6508444  3
   1657   1660   1669   1670     1  0.0000000  0.6508444  3
   1657   1660   1669   1671     1  0.0000000  0.6508444  3
   1658   1657   1650   1679     1  0.0000000  0.6508444  3
   1658   1657   1660   1669     1  0.0000000  0.6508444  3
   1658   1657   1660   1661     1  0.0000000  0.6508444  3
   1658   1657   1660   1662     1  0.0000000  0.6508444  3
   1659   1657   1650   1679     1  0.0000000  0.6508444  3
   1659   1657   1660   1669     1  0.0000000  0.6508444  3
   1659   1657   1660   1661     1  0.0000000  0.6508444  3
   1659   1657   1660   1662     1  0.0000000  0.6508444  3
   1660   1657   1650   1679     1  0.0000000  0.6508444  3
   1661   1660   1669   1678     1  0.0000000  1.0460000  1
   1661   1660   1669   1678     1  0.0000000  0.0000000  3
   1661   1660   1669   1670     1  0.0000000  0.6508444  3
   1661   1660   1669   1671     1  0.0000000  0.6508444  3
   1662   1660   1669   1678     1  0.0000000  1.0460000  1
   1662   1660   1669   1678     1  0.0000000  0.0000000  3
   1662   1660   1669   1670     1  0.0000000  0.6508444  3
   1662   1660   1669   1671     1  0.0000000  0.6508444  3
   1663   1651   1650   1679     1  0.0000000  0.6508444  3
   1664   1663   1675   3418     1  0.0000000  1.0460000  1
   1664   1663   1675   3418     1  0.0000000  0.0000000  3
   1664   1663   1675   1676     1  0.0000000  0.6508444  3
   1664   1663   1675   1677     1  0.0000000  0.6508444  3
   1665   1663   1675   3418     1  0.0000000  1.0460000  1
   1665   1663   1675   3418     1  0.0000000  0.0000000  3
   1665   1663   1675   1676     1  0.0000000  0.6508444  3
   1665   1663   1675   1677     1  0.0000000  0.6508444  3
   1666   1654   1650   1679     1  0.0000000  0.6508444  3
   1667   1666   1672   3388     1  0.0000000  1.0460000  1
   1667   1666   1672   3388     1  0.0000000  0.0000000  3
   1667   1666   1672   1673     1  0.0000000  0.6508444  3
   1667   1666   1672   1674     1  0.0000000  0.6508444  3
   1668   1666   1672   3388     1  0.0000000  1.0460000  1
   1668   1666   1672   3388     1  0.0000000  0.0000000  3
   1668   1666   1672   1673     1  0.0000000  0.6508444  3
   1668   1666   1672   1674     1  0.0000000  0.6508444  3
   1672   3388   3379   3380     1  0.0000000  1.6038667  3
   1672   3388   3379   3381     1  0.0000000  1.6038667  3
   1673   1672   3388   3379     1  0.0000000  1.6038667  3
   1674   1672   3388   3379     1  0.0000000  1.6038667  3
   1675   3418   3409   3410     1  0.0000000  1.6038667  3
   1675   3418   3409   3411     1  0.0000000  1.6038667  3
   1676   1675   3418   3409     1  0.0000000  1.6038667  3
   1677   1675   3418   3409     1  0.0000000  1.6038667  3
   1680   1681   1693   1694     1  0.0000000  0.6508444  3
   1680   1681   1693   1695     1  0.0000000  0.6508444  3
   1680   1684   1696   1697     1  0.0000000  0.6508444  3
   1680   1684   1696   1698     1  0.0000000  0.6508444  3
   1680   1687   1690   1691     1  0.0000000  0.6508444  3
   1680   1687   1690   1692     1  0.0000000  0.6508444  3
   1681   1680   1684   1685     1  0.0000000  0.6508444  3
   1681   1680   1684   1686     1  0.0000000  0.6508444  3
   1681   1680   1687   1688     1  0.0000000  0.6508444  3
   1681   1680   1687   1689     1  0.0000000  0.6508444  3
   1681   1693   1705   1706     1  0.0000000  0.6508444  3
   1681   1693   1705   1707     1  0.0000000  0.6508444  3
   1682   1681   1680   1684     1  0.0000000  0.6508444  3
   1682   1681   1680   1687     1  0.0000000  0.6508444  3
   1682   1681   1680   1709     1  0.0000000  0.6508444  3
   1682   1681   1693   1705     1  0.0000000  0.6508444  3
   1682   1681   1693   1694     1  0.0000000  0.6508444  3
   1682   1681   1693   1695     1  0.0000000  0.6508444  3
   1683   1681   1680   1684     1  0.0000000  0.6508444  3
   1683   1681   1680   1687     1  0.0000000  0.6508444  3
   1683   1681   1680   1709     1  0.0000000  0.6508444  3
   1683   1681   1693   1705     1  0.0000000  0.6508444  3
   1683   1681   1693   1694     1  0.0000000  0.6508444  3
   1683   1681   1693   1695     1  0.0000000  0.6508444  3
   1684   1680   1687   1688     1  0.0000000  0.6508444  3
   1684   1680   1687   1689     1  0.0000000  0.6508444  3
   1684   1696   1702   1703     1  0.0000000  0.6508444  3
   1684   1696   1702   1704     1  0.0000000  0.6508444  3
   1685   1684   1680   1687     1  0.0000000  0.6508444  3
   1685   1684   1680   1709     1  0.0000000  0.6508444  3
   1685   1684   1696   1702     1  0.0000000  0.6508444  3
   1685   1684   1696   1697     1  0.0000000  0.6508444  3
   1685   1684   1696   1698     1  0.0000000  0.6508444  3
   1686   1684   1680   1687     1  0.0000000  0.6508444  3
   1686   1684   1680   1709     1  0.0000000  0.6508444  3
   1686   1684   1696   1702     1  0.0000000  0.6508444  3
   1686   1684   1696   1697     1  0.0000000  0.6508444  3
   1686   1684   1696   1698     1  0.0000000  0.6508444  3
   1687   1690   1699   1700     1  0.0000000  0.6508444  3
   1687   1690   1699   1701     1  0.0000000  0.6508444  3
   1688   1687   1680   1709     1  0.0000000  0.6508444  3
   1688   1687   1690   1699     1  0.0000000  0.6508444  3
   1688   1687   1690   1691     1  0.0000000  0.6508444  3
   1688   1687   1690   1692     1  0.0000000  0.6508444  3
   1689   1687   1680   1709     1  0.0000000  0.6508444  3
   1689   1687   1690   1699     1  0.0000000  0.6508444  3
   1689   1687   1690   1691     1  0.0000000  0.6508444  3
   1689   1687   1690   1692     1  0.0000000  0.6508444  3
   1690   1687   1680   1709     1  0.0000000  0.6508444  3
   1691   1690   1699   1708     1  0.0000000  1.0460000  1
   1691   1690   1699   1708     1  0.0000000  0.0000000  3
   1691   1690   1699   1700     1  0.0000000  0.6508444  3
   1691   1690   1699   1701     1  0.0000000  0.6508444  3
   1692   1690   1699   1708     1  0.0000000  1.0460000  1
   1692   1690   1699   1708     1  0.0000000  0.0000000  3
   1692   1690   1699   1700     1  0.0000000  0.6508444  3
   1692   1690   1699   1701     1  0.0000000  0.6508444  3
   1693   1681   1680   1709     1  0.0000000  0.6508444  3
   1694   1693   1705   3478     1  0.0000000  1.0460000  1
   1694   1693   1705   3478     1  0.0000000  0.0000000  3
   1694   1693   1705   1706     1  0.0000000  0.6508444  3
   1694   1693   1705   1707     1  0.0000000  0.6508444  3
   1695   1693   1705   3478     1  0.0000000  1.0460000  1
   1695   1693   1705   3478     1  0.0000000  0.0000000  3
   1695   1693   1705   1706     1  0.0000000  0.6508444  3
   1695   1693   1705   1707     1  0.0000000  0.6508444  3
   1696   1684   1680   1709     1  0.0000000  0.6508444  3
   1697   1696   1702   3448     1  0.0000000  1.0460000  1
   1697   1696   1702   3448     1  0.0000000  0.0000000  3
   1697   1696   1702   1703     1  0.0000000  0.6508444  3
   1697   1696   1702   1704     1  0.0000000  0.6508444  3
   1698   1696   1702   3448     1  0.0000000  1.0460000  1
   1698   1696   1702   3448     1  0.0000000  0.0000000  3
   1698   1696   1702   1703     1  0.0000000  0.6508444  3
   1698   1696   1702   1704     1  0.0000000  0.6508444  3
   1702   3448   3439   3440     1  0.0000000  1.6038667  3
   1702   3448   3439   3441     1  0.0000000  1.6038667  3
   1703   1702   3448   3439     1  0.0000000  1.6038667  3
   1704   1702   3448   3439     1  0.0000000  1.6038667  3
   1705   3478   3469   3470     1  0.0000000  1.6038667  3
   1705   3478   3469   3471     1  0.0000000  1.6038667  3
   1706   1705   3478   3469     1  0.0000000  1.6038667  3
   1707   1705   3478   3469     1  0.0000000  1.6038667  3
   1710   1711   1723   1724     1  0.0000000  0.6508444  3
   1710   1711   1723   1725     1  0.0000000  0.6508444  3
   1710   1714   1726   1727     1  0.0000000  0.6508444  3
   1710   1714   1726   1728     1  0.0000000  0.6508444  3
   1710   1717   1720   1721     1  0.0000000  0.6508444  3
   1710   1717   1720   1722     1  0.0000000  0.6508444  3
   1711   1710   1714   1715     1  0.0000000  0.6508444  3
   1711   1710   1714   1716     1  0.0000000  0.6508444  3
   1711   1710   1717   1718     1  0.0000000  0.6508444  3
   1711   1710   1717   1719     1  0.0000000  0.6508444  3
   1711   1723   1735   1736     1  0.0000000  0.6508444  3
   1711   1723   1735   1737     1  0.0000000  0.6508444  3
   1712   1711   1710   1714     1  0.0000000  0.6508444  3
   1712   1711   1710   1717     1  0.0000000  0.6508444  3
   1712   1711   1710   1739     1  0.0000000  0.6508444  3
   1712   1711   1723   1735     1  0.0000000  0.6508444  3
   1712   1711   1723   1724     1  0.0000000  0.6508444  3
   1712   1711   1723   1725     1  0.0000000  0.6508444  3
   1713   1711   1710   1714     1  0.0000000  0.6508444  3
   1713   1711   1710   1717     1  0.0000000  0.6508444  3
   1713   1711   1710   1739     1  0.0000000  0.6508444  3
   1713   1711   1723   1735     1  0.0000000  0.6508444  3
   1713   1711   1723   1724     1  0.0000000  0.6508444  3
   1713   1711   1723   1725     1  0.0000000  0.6508444  3
   1714   1710   1717   1718     1  0.0000000  0.6508444  3
   1714   1710   1717   1719     1  0.0000000  0.6508444  3
   1714   1726   1732   1733     1  0.0000000  0.6508444  3
   1714   1726   1732   1734     1  0.0000000  0.6508444  3
   1715   1714   1710   1717     1  0.0000000  0.6508444  3
   1715   1714   1710   1739     1  0.0000000  0.6508444  3
   1715   1714   1726   1732     1  0.0000000  0.6508444  3
   1715   1714   1726   1727     1  0.0000000  0.6508444  3
   1715   1714   1726   1728     1  0.0000000  0.6508444  3
   1716   1714   1710   1717     1  0.0000000  0.6508444  3
   1716   1714   1710   1739     1  0.0000000  0.6508444  3
   1716   1714   1726   1732     1  0.0000000  0.6508444  3
   1716   1714   1726   1727     1  0.0000000  0.6508444  3
   1716   1714   1726   1728     1  0.0000000  0.6508444  3
   1717   1720   1729   1730     1  0.0000000  0.6508444  3
   1717   1720   1729   1731     1  0.0000000  0.6508444  3
   1718   1717   1710   1739     1  0.0000000  0.6508444  3
   1718   1717   1720   1729     1  0.0000000  0.6508444  3
   1718   1717   1720   1721     1  0.0000000  0.6508444  3
   1718   1717   1720   1722     1  0.0000000  0.6508444  3
   1719   1717   1710   1739     1  0.0000000  0.6508444  3
   1719   1717   1720   1729     1  0.0000000  0.6508444  3
   1719   1717   1720   1721     1  0.0000000  0.6508444  3
   1719   1717   1720   1722     1  0.0000000  0.6508444  3
   1720   1717   1710   1739     1  0.0000000  0.6508444  3
   1721   1720   1729   1738     1  0.0000000  1.0460000  1
   1721   1720   1729   1738     1  0.0000000  0.0000000  3
   1721   1720   1729   1730     1  0.0000000  0.6508444  3
   1721   1720   1729   1731     1  0.0000000  0.6508444  3
   1722   1720   1729   1738     1  0.0000000  1.0460000  1
   1722   1720   1729   1738     1  0.0000000  0.0000000  3
   1722   1720   1729   1730     1  0.0000000  0.6508444  3
   1722   1720   1729   1731     1  0.0000000  0.6508444  3
   1723   1711   1710   1739     1  0.0000000  0.6508444  3
   1724   1723   1735   3538     1  0.0000000  1.0460000  1
   1724   1723   1735   3538     1  0.0000000  0.0000000  3
   1724   1723   1735   1736     1  0.0000000  0.6508444  3
   1724   1723   1735   1737     1  0.0000000  0.6508444  3
   1725   1723   1735   3538     1  0.0000000  1.0460000  1
   1725   1723   1735   3538     1  0.0000000  0.0000000  3
   1725   1723   1735   1736     1  0.0000000  0.6508444  3
   1725   1723   1735   1737     1  0.0000000  0.6508444  3
   1726   1714   1710   1739     1  0.0000000  0.6508444  3
   1727   1726   1732   3508     1  0.0000000  1.0460000  1
   1727   1726   1732   3508     1  0.0000000  0.0000000  3
   1727   1726   1732   1733     1  0.0000000  0.6508444  3
   1727   1726   1732   1734     1  0.0000000  0.6508444  3
   1728   1726   1732   3508     1  0.0000000  1.0460000  1
   1728   1726   1732   3508     1  0.0000000  0.0000000  3
   1728   1726   1732   1733     1  0.0000000  0.6508444  3
   1728   1726   1732   1734     1  0.0000000  0.6508444  3
   1732   3508   3499   3500     1  0.0000000  1.6038667  3
   1732   3508   3499   3501     1  0.0000000  1.6038667  3
   1733   1732   3508   3499     1  0.0000000  1.6038667  3
   1734   1732   3508   3499     1  0.0000000  1.6038667  3
   1735   3538   3529   3530     1  0.0000000  1.6038667  3
   1735   3538   3529   3531     1  0.0000000  1.6038667  3
   1736   1735   3538   3529     1  0.0000000  1.6038667  3
   1737   1735   3538   3529     1  0.0000000  1.6038667  3
   1740   1741   1753   1754     1  0.0000000  0.6508444  3
   1740   1741   1753   1755     1  0.0000000  0.6508444  3
   1740   1744   1756   1757     1  0.0000000  0.6508444  3
   1740   1744   1756   1758     1  0.0000000  0.6508444  3
   1740   1747   1750   1751     1  0.0000000  0.6508444  3
   1740   1747   1750   1752     1  0.0000000  0.6508444  3
   1741   1740   1744   1745     1  0.0000000  0.6508444  3
   1741   1740   1744   1746     1  0.0000000  0.6508444  3
   1741   1740   1747   1748     1  0.0000000  0.6508444  3
   1741   1740   1747   1749     1  0.0000000  0.6508444  3
   1741   1753   1765   1766     1  0.0000000  0.6508444  3
   1741   1753   1765   1767     1  0.0000000  0.6508444  3
   1742   1741   1740   1744     1  0.0000000  0.6508444  3
   1742   1741   1740   1747     1  0.0000000  0.6508444  3
   1742   1741   1740   1769     1  0.0000000  0.6508444  3
   1742   1741   1753   1765     1  0.0000000  0.6508444  3
   1742   1741   1753   1754     1  0.0000000  0.6508444  3
   1742   1741   1753   1755     1  0.0000000  0.6508444  3
   1743   1741   1740   1744     1  0.0000000  0.6508444  3
   1743   1741   1740   1747     1  0.0000000  0.6508444  3
   1743   1741   1740   1769     1  0.0000000  0.6508444  3
   1743   1741   1753   1765     1  0.0000000  0.6508444  3
   1743   1741   1753   1754     1  0.0000000  0.6508444  3
   1743   1741   1753   1755     1  0.0000000  0.6508444  3
   1744   1740   1747   1748     1  0.0000000  0.6508444  3
   1744   1740   1747   1749     1  0.0000000  0.6508444  3
   1744   1756   1762   1763     1  0.0000000  0.6508444  3
   1744   1756   1762   1764     1  0.0000000  0.6508444  3
   1745   1744   1740   1747     1  0.0000000  0.6508444  3
   1745   1744   1740   1769     1  0.0000000  0.6508444  3
   1745   1744   1756   1762     1  0.0000000  0.6508444  3
   1745   1744   1756   1757     1  0.0000000  0.6508444  3
   1745   1744   1756   1758     1  0.0000000  0.6508444  3
   1746   1744   1740   1747     1  0.0000000  0.6508444  3
   1746   1744   1740   1769     1  0.0000000  0.6508444  3
   1746   1744   1756   1762     1  0.0000000  0.6508444  3
   1746   1744   1756   1757     1  0.0000000  0.6508444  3
   1746   1744   1756   1758     1  0.0000000  0.6508444  3
   1747   1750   1759   1760     1  0.0000000  0.6508444  3
   1747   1750   1759   1761     1  0.0000000  0.6508444  3
   1748   1747   1740   1769     1  0.0000000  0.6508444  3
   1748   1747   1750   1759     1  0.0000000  0.6508444  3
   1748   1747   1750   1751     1  0.0000000  0.6508444  3
   1748   1747   1750   1752     1  0.0000000  0.6508444  3
   1749   1747   1740   1769     1  0.0000000  0.6508444  3
   1749   1747   1750   1759     1  0.0000000  0.6508444  3
   1749   1747   1750   1751     1  0.0000000  0.6508444  3
   1749   1747   1750   1752     1  0.0000000  0.6508444  3
   1750   1747   1740   1769     1  0.0000000  0.6508444  3
   1751   1750   1759   1768     1  0.0000000  1.0460000  1
   1751   1750   1759   1768     1  0.0000000  0.0000000  3
   1751   1750   1759   1760     1  0.0000000  0.6508444  3
   1751   1750   1759   1761     1  0.0000000  0.6508444  3
   1752   1750   1759   1768     1  0.0000000  1.0460000  1
   1752   1750   1759   1768     1  0.0000000  0.0000000  3
   1752   1750   1759   1760     1  0.0000000  0.6508444  3
   1752   1750   1759   1761     1  0.0000000  0.6508444  3
   1753   1741   1740   1769     1  0.0000000  0.6508444  3
   1754   1753   1765   3598     1  0.0000000  1.0460000  1
   1754   1753   1765   3598     1  0.0000000  0.0000000  3
   1754   1753   1765   1766     1  0.0000000  0.6508444  3
   1754   1753   1765   1767     1  0.0000000  0.6508444  3
   1755   1753   1765   3598     1  0.0000000  1.0460000  1
   1755   1753   1765   3598     1  0.0000000  0.0000000  3
   1755   1753   1765   1766     1  0.0000000  0.6508444  3
   1755   1753   1765   1767     1  0.0000000  0.6508444  3
   1756   1744   1740   1769     1  0.0000000  0.6508444  3
   1757   1756   1762   3568     1  0.0000000  1.0460000  1
   1757   1756   1762   3568     1  0.0000000  0.0000000  3
   1757   1756   1762   1763     1  0.0000000  0.6508444  3
   1757   1756   1762   1764     1  0.0000000  0.6508444  3
   1758   1756   1762   3568     1  0.0000000  1.0460000  1
   1758   1756   1762   3568     1  0.0000000  0.0000000  3
   1758   1756   1762   1763     1  0.0000000  0.6508444  3
   1758   1756   1762   1764     1  0.0000000  0.6508444  3
   1762   3568   3559   3560     1  0.0000000  1.6038667  3
   1762   3568   3559   3561     1  0.0000000  1.6038667  3
   1763   1762   3568   3559     1  0.0000000  1.6038667  3
   1764   1762   3568   3559     1  0.0000000  1.6038667  3
   1765   3598   3589   3590     1  0.0000000  1.6038667  3
   1765   3598   3589   3591     1  0.0000000  1.6038667  3
   1766   1765   3598   3589     1  0.0000000  1.6038667  3
   1767   1765   3598   3589     1  0.0000000  1.6038667  3
   1770   1771   1783   1784     1  0.0000000  0.6508444  3
   1770   1771   1783   1785     1  0.0000000  0.6508444  3
   1770   1774   1786   1787     1  0.0000000  0.6508444  3
   1770   1774   1786   1788     1  0.0000000  0.6508444  3
   1770   1777   1780   1781     1  0.0000000  0.6508444  3
   1770   1777   1780   1782     1  0.0000000  0.6508444  3
   1771   1770   1774   1775     1  0.0000000  0.6508444  3
   1771   1770   1774   1776     1  0.0000000  0.6508444  3
   1771   1770   1777   1778     1  0.0000000  0.6508444  3
   1771   1770   1777   1779     1  0.0000000  0.6508444  3
   1771   1783   1795   1796     1  0.0000000  0.6508444  3
   1771   1783   1795   1797     1  0.0000000  0.6508444  3
   1772   1771   1770   1774     1  0.0000000  0.6508444  3
   1772   1771   1770   1777     1  0.0000000  0.6508444  3
   1772   1771   1770   1799     1  0.0000000  0.6508444  3
   1772   1771   1783   1795     1  0.0000000  0.6508444  3
   1772   1771   1783   1784     1  0.0000000  0.6508444  3
   1772   1771   1783   1785     1  0.0000000  0.6508444  3
   1773   1771   1770   1774     1  0.0000000  0.6508444  3
   1773   1771   1770   1777     1  0.0000000  0.6508444  3
   1773   1771   1770   1799     1  0.0000000  0.6508444  3
   1773   1771   1783   1795     1  0.0000000  0.6508444  3
   1773   1771   1783   1784     1  0.0000000  0.6508444  3
   1773   1771   1783   1785     1  0.0000000  0.6508444  3
   1774   1770   1777   1778     1  0.0000000  0.6508444  3
   1774   1770   1777   1779     1  0.0000000  0.6508444  3
   1774   1786   1792   1793     1  0.0000000  0.6508444  3
   1774   1786   1792   1794     1  0.0000000  0.6508444  3
   1775   1774   1770   1777     1  0.0000000  0.6508444  3
   1775   1774   1770   1799     1  0.0000000  0.6508444  3
   1775   1774   1786   1792     1  0.0000000  0.6508444  3
   1775   1774   1786   1787     1  0.0000000  0.6508444  3
   1775   1774   1786   1788     1  0.0000000  0.6508444  3
   1776   1774   1770   1777     1  0.0000000  0.6508444  3
   1776   1774   1770   1799     1  0.0000000  0.6508444  3
   1776   1774   1786   1792     1  0.0000000  0.6508444  3
   1776   1774   1786   1787     1  0.0000000  0.6508444  3
   1776   1774   1786   1788     1  0.0000000  0.6508444  3
   1777   1780   1789   1790     1  0.0000000  0.6508444  3
   1777   1780   1789   1791     1  0.0000000  0.6508444  3
   1778   1777   1770   1799     1  0.0000000  0.6508444  3
   1778   1777   1780   1789     1  0.0000000  0.6508444  3
   1778   1777   1780   1781     1  0.0000000  0.6508444  3
   1778   1777   1780   1782     1  0.0000000  0.6508444  3
   1779   1777   1770   1799     1  0.0000000  0.6508444  3
   1779   1777   1780   1789     1  0.0000000  0.6508444  3
   1779   1777   1780   1781     1  0.0000000  0.6508444  3
   1779   1777   1780   1782     1  0.0000000  0.6508444  3
   1780   1777   1770   1799     1  0.0000000  0.6508444  3
   1781   1780   1789   1798     1  0.0000000  1.0460000  1
   1781   1780   1789   1798     1  0.0000000  0.0000000  3
   1781   1780   1789   1790     1  0.0000000  0.6508444  3
   1781   1780   1789   1791     1  0.0000000  0.6508444  3
   1782   1780   1789   1798     1  0.0000000  1.0460000  1
   1782   1780   1789   1798     1  0.0000000  0.0000000  3
   1782   1780   1789   1790     1  0.0000000  0.6508444  3
   1782   1780   1789   1791     1  0.0000000  0.6508444  3
   1783   1771   1770   1799     1  0.0000000  0.6508444  3
   1784   1783   1795   3658     1  0.0000000  1.0460000  1
   1784   1783   1795   3658     1  0.0000000  0.0000000  3
   1784   1783   1795   1796     1  0.0000000  0.6508444  3
   1784   1783   1795   1797     1  0.0000000  0.6508444  3
   1785   1783   1795   3658     1  0.0000000  1.0460000  1
   1785   1783   1795   3658     1  0.0000000  0.0000000  3
   1785   1783   1795   1796     1  0.0000000  0.6508444  3
   1785   1783   1795   1797     1  0.0000000  0.6508444  3
   1786   1774   1770   1799     1  0.0000000  0.6508444  3
   1787   1786   1792   3628     1  0.0000000  1.0460000  1
   1787   1786   1792   3628     1  0.0000000  0.0000000  3
   1787   1786   1792   1793     1  0.0000000  0.6508444  3
   1787   1786   1792   1794     1  0.0000000  0.6508444  3
   1788   1786   1792   3628     1  0.0000000  1.0460000  1
   1788   1786   1792   3628     1  0.0000000  0.0000000  3
   1788   1786   1792   1793     1  0.0000000  0.6508444  3
   1788   1786   1792   1794     1  0.0000000  0.6508444  3
   1792   3628   3619   3620     1  0.0000000  1.6038667  3
   1792   3628   3619   3621     1  0.0000000  1.6038667  3
   1793   1792   3628   3619     1  0.0000000  1.6038667  3
   1794   1792   3628   3619     1  0.0000000  1.6038667  3
   1795   3658   3649   3650     1  0.0000000  1.6038667  3
   1795   3658   3649   3651     1  0.0000000  1.6038667  3
   1796   1795   3658   3649     1  0.0000000  1.6038667  3
   1797   1795   3658   3649     1  0.0000000  1.6038667  3
   1800   1801   1813   1814     1  0.0000000  0.6508444  3
   1800   1801   1813   1815     1  0.0000000  0.6508444  3
   1800   1804   1816   1817     1  0.0000000  0.6508444  3
   1800   1804   1816   1818     1  0.0000000  0.6508444  3
   1800   1807   1810   1811     1  0.0000000  0.6508444  3
   1800   1807   1810   1812     1  0.0000000  0.6508444  3
   1801   1800   1804   1805     1  0.0000000  0.6508444  3
   1801   1800   1804   1806     1  0.0000000  0.6508444  3
   1801   1800   1807   1808     1  0.0000000  0.6508444  3
   1801   1800   1807   1809     1  0.0000000  0.6508444  3
   1801   1813   1825   1826     1  0.0000000  0.6508444  3
   1801   1813   1825   1827     1  0.0000000  0.6508444  3
   1802   1801   1800   1804     1  0.0000000  0.6508444  3
   1802   1801   1800   1807     1  0.0000000  0.6508444  3
   1802   1801   1800   1829     1  0.0000000  0.6508444  3
   1802   1801   1813   1825     1  0.0000000  0.6508444  3
   1802   1801   1813   1814     1  0.0000000  0.6508444  3
   1802   1801   1813   1815     1  0.0000000  0.6508444  3
   1803   1801   1800   1804     1  0.0000000  0.6508444  3
   1803   1801   1800   1807     1  0.0000000  0.6508444  3
   1803   1801   1800   1829     1  0.0000000  0.6508444  3
   1803   1801   1813   1825     1  0.0000000  0.6508444  3
   1803   1801   1813   1814     1  0.0000000  0.6508444  3
   1803   1801   1813   1815     1  0.0000000  0.6508444  3
   1804   1800   1807   1808     1  0.0000000  0.6508444  3
   1804   1800   1807   1809     1  0.0000000  0.6508444  3
   1804   1816   1822   1823     1  0.0000000  0.6508444  3
   1804   1816   1822   1824     1  0.0000000  0.6508444  3
   1805   1804   1800   1807     1  0.0000000  0.6508444  3
   1805   1804   1800   1829     1  0.0000000  0.6508444  3
   1805   1804   1816   1822     1  0.0000000  0.6508444  3
   1805   1804   1816   1817     1  0.0000000  0.6508444  3
   1805   1804   1816   1818     1  0.0000000  0.6508444  3
   1806   1804   1800   1807     1  0.0000000  0.6508444  3
   1806   1804   1800   1829     1  0.0000000  0.6508444  3
   1806   1804   1816   1822     1  0.0000000  0.6508444  3
   1806   1804   1816   1817     1  0.0000000  0.6508444  3
   1806   1804   1816   1818     1  0.0000000  0.6508444  3
   1807   1810   1819   1820     1  0.0000000  0.6508444  3
   1807   1810   1819   1821     1  0.0000000  0.6508444  3
   1808   1807   1800   1829     1  0.0000000  0.6508444  3
   1808   1807   1810   1819     1  0.0000000  0.6508444  3
   1808   1807   1810   1811     1  0.0000000  0.6508444  3
   1808   1807   1810   1812     1  0.0000000  0.6508444  3
   1809   1807   1800   1829     1  0.0000000  0.6508444  3
   1809   1807   1810   1819     1  0.0000000  0.6508444  3
   1809   1807   1810   1811     1  0.0000000  0.6508444  3
   1809   1807   1810   1812     1  0.0000000  0.6508444  3
   1810   1807   1800   1829     1  0.0000000  0.6508444  3
   1811   1810   1819   1828     1  0.0000000  1.0460000  1
   1811   1810   1819   1828     1  0.0000000  0.0000000  3
   1811   1810   1819   1820     1  0.0000000  0.6508444  3
   1811   1810   1819   1821     1  0.0000000  0.6508444  3
   1812   1810   1819   1828     1  0.0000000  1.0460000  1
   1812   1810   1819   1828     1  0.0000000  0.0000000  3
   1812   1810   1819   1820     1  0.0000000  0.6508444  3
   1812   1810   1819   1821     1  0.0000000  0.6508444  3
   1813   1801   1800   1829     1  0.0000000  0.6508444  3
   1814   1813   1825   3718     1  0.0000000  1.0460000  1
   1814   1813   1825   3718     1  0.0000000  0.0000000  3
   1814   1813   1825   1826     1  0.0000000  0.6508444  3
   1814   1813   1825   1827     1  0.0000000  0.6508444  3
   1815   1813   1825   3718     1  0.0000000  1.0460000  1
   1815   1813   1825   3718     1  0.0000000  0.0000000  3
   1815   1813   1825   1826     1  0.0000000  0.6508444  3
   1815   1813   1825   1827     1  0.0000000  0.6508444  3
   1816   1804   1800   1829     1  0.0000000  0.6508444  3
   1817   1816   1822   3688     1  0.0000000  1.0460000  1
   1817   1816   1822   3688     1  0.0000000  0.0000000  3
   1817   1816   1822   1823     1  0.0000000  0.6508444  3
   1817   1816   1822   1824     1  0.0000000  0.6508444  3
   1818   1816   1822   3688     1  0.0000000  1.0460000  1
   1818   1816   1822   3688     1  0.0000000  0.0000000  3
   1818   1816   1822   1823     1  0.0000000  0.6508444  3
   1818   1816   1822   1824     1  0.0000000  0.6508444  3
   1822   3688   3679   3680     1  0.0000000  1.6038667  3
   1822   3688   3679   3681     1  0.0000000  1.6038667  3
   1823   1822   3688   3679     1  0.0000000  1.6038667  3
   1824   1822   3688   3679     1  0.0000000  1.6038667  3
   1825   3718   3709   3710     1  0.0000000  1.6038667  3
   1825   3718   3709   3711     1  0.0000000  1.6038667  3
   1826   1825   3718   3709     1  0.0000000  1.6038667  3
   1827   1825   3718   3709     1  0.0000000  1.6038667  3
   1830   1831   1843   1844     1  0.0000000  0.6508444  3
   1830   1831   1843   1845     1  0.0000000  0.6508444  3
   1830   1834   1846   1847     1  0.0000000  0.6508444  3
   1830   1834   1846   1848     1  0.0000000  0.6508444  3
   1830   1837   1840   1841     1  0.0000000  0.6508444  3
   1830   1837   1840   1842     1  0.0000000  0.6508444  3
   1831   1830   1834   1835     1  0.0000000  0.6508444  3
   1831   1830   1834   1836     1  0.0000000  0.6508444  3
   1831   1830   1837   1838     1  0.0000000  0.6508444  3
   1831   1830   1837   1839     1  0.0000000  0.6508444  3
   1831   1843   1855   1856     1  0.0000000  0.6508444  3
   1831   1843   1855   1857     1  0.0000000  0.6508444  3
   1832   1831   1830   1834     1  0.0000000  0.6508444  3
   1832   1831   1830   1837     1  0.0000000  0.6508444  3
   1832   1831   1830   1859     1  0.0000000  0.6508444  3
   1832   1831   1843   1855     1  0.0000000  0.6508444  3
   1832   1831   1843   1844     1  0.0000000  0.6508444  3
   1832   1831   1843   1845     1  0.0000000  0.6508444  3
   1833   1831   1830   1834     1  0.0000000  0.6508444  3
   1833   1831   1830   1837     1  0.0000000  0.6508444  3
   1833   1831   1830   1859     1  0.0000000  0.6508444  3
   1833   1831   1843   1855     1  0.0000000  0.6508444  3
   1833   1831   1843   1844     1  0.0000000  0.6508444  3
   1833   1831   1843   1845     1  0.0000000  0.6508444  3
   1834   1830   1837   1838     1  0.0000000  0.6508444  3
   1834   1830   1837   1839     1  0.0000000  0.6508444  3
   1834   1846   1852   1853     1  0.0000000  0.6508444  3
   1834   1846   1852   1854     1  0.0000000  0.6508444  3
   1835   1834   1830   1837     1  0.0000000  0.6508444  3
   1835   1834   1830   1859     1  0.0000000  0.6508444  3
   1835   1834   1846   1852     1  0.0000000  0.6508444  3
   1835   1834   1846   1847     1  0.0000000  0.6508444  3
   1835   1834   1846   1848     1  0.0000000  0.6508444  3
   1836   1834   1830   1837     1  0.0000000  0.6508444  3
   1836   1834   1830   1859     1  0.0000000  0.6508444  3
   1836   1834   1846   1852     1  0.0000000  0.6508444  3
   1836   1834   1846   1847     1  0.0000000  0.6508444  3
   1836   1834   1846   1848     1  0.0000000  0.6508444  3
   1837   1840   1849   1850     1  0.0000000  0.6508444  3
   1837   1840   1849   1851     1  0.0000000  0.6508444  3
   1838   1837   1830   1859     1  0.0000000  0.6508444  3
   1838   1837   1840   1849     1  0.0000000  0.6508444  3
   1838   1837   1840   1841     1  0.0000000  0.6508444  3
   1838   1837   1840   1842     1  0.0000000  0.6508444  3
   1839   1837   1830   1859     1  0.0000000  0.6508444  3
   1839   1837   1840   1849     1  0.0000000  0.6508444  3
   1839   1837   1840   1841     1  0.0000000  0.6508444  3
   1839   1837   1840   1842     1  0.0000000  0.6508444  3
   1840   1837   1830   1859     1  0.0000000  0.6508444  3
   1841   1840   1849   1858     1  0.0000000  1.0460000  1
   1841   1840   1849   1858     1  0.0000000  0.0000000  3
   1841   1840   1849   1850     1  0.0000000  0.6508444  3
   1841   1840   1849   1851     1  0.0000000  0.6508444  3
   1842   1840   1849   1858     1  0.0000000  1.0460000  1
   1842   1840   1849   1858     1  0.0000000  0.0000000  3
   1842   1840   1849   1850     1  0.0000000  0.6508444  3
   1842   1840   1849   1851     1  0.0000000  0.6508444  3
   1843   1831   1830   1859     1  0.0000000  0.6508444  3
   1844   1843   1855   3778     1  0.0000000  1.0460000  1
   1844   1843   1855   3778     1  0.0000000  0.0000000  3
   1844   1843   1855   1856     1  0.0000000  0.6508444  3
   1844   1843   1855   1857     1  0.0000000  0.6508444  3
   1845   1843   1855   3778     1  0.0000000  1.0460000  1
   1845   1843   1855   3778     1  0.0000000  0.0000000  3
   1845   1843   1855   1856     1  0.0000000  0.6508444  3
   1845   1843   1855   1857     1  0.0000000  0.6508444  3
   1846   1834   1830   1859     1  0.0000000  0.6508444  3
   1847   1846   1852   3748     1  0.0000000  1.0460000  1
   1847   1846   1852   3748     1  0.0000000  0.0000000  3
   1847   1846   1852   1853     1  0.0000000  0.6508444  3
   1847   1846   1852   1854     1  0.0000000  0.6508444  3
   1848   1846   1852   3748     1  0.0000000  1.0460000  1
   1848   1846   1852   3748     1  0.0000000  0.0000000  3
   1848   1846   1852   1853     1  0.0000000  0.6508444  3
   1848   1846   1852   1854     1  0.0000000  0.6508444  3
   1852   3748   3739   3740     1  0.0000000  1.6038667  3
   1852   3748   3739   3741     1  0.0000000  1.6038667  3
   1853   1852   3748   3739     1  0.0000000  1.6038667  3
   1854   1852   3748   3739     1  0.0000000  1.6038667  3
   1855   3778   3769   3770     1  0.0000000  1.6038667  3
   1855   3778   3769   3771     1  0.0000000  1.6038667  3
   1856   1855   3778   3769     1  0.0000000  1.6038667  3
   1857   1855   3778   3769     1  0.0000000  1.6038667  3
   1860   1861   1873   1874     1  0.0000000  0.6508444  3
   1860   1861   1873   1875     1  0.0000000  0.6508444  3
   1860   1864   1876   1877     1  0.0000000  0.6508444  3
   1860   1864   1876   1878     1  0.0000000  0.6508444  3
   1860   1867   1870   1871     1  0.0000000  0.6508444  3
   1860   1867   1870   1872     1  0.0000000  0.6508444  3
   1861   1860   1864   1865     1  0.0000000  0.6508444  3
   1861   1860   1864   1866     1  0.0000000  0.6508444  3
   1861   1860   1867   1868     1  0.0000000  0.6508444  3
   1861   1860   1867   1869     1  0.0000000  0.6508444  3
   1861   1873   1885   1886     1  0.0000000  0.6508444  3
   1861   1873   1885   1887     1  0.0000000  0.6508444  3
   1862   1861   1860   1864     1  0.0000000  0.6508444  3
   1862   1861   1860   1867     1  0.0000000  0.6508444  3
   1862   1861   1860   1889     1  0.0000000  0.6508444  3
   1862   1861   1873   1885     1  0.0000000  0.6508444  3
   1862   1861   1873   1874     1  0.0000000  0.6508444  3
   1862   1861   1873   1875     1  0.0000000  0.6508444  3
   1863   1861   1860   1864     1  0.0000000  0.6508444  3
   1863   1861   1860   1867     1  0.0000000  0.6508444  3
   1863   1861   1860   1889     1  0.0000000  0.6508444  3
   1863   1861   1873   1885     1  0.0000000  0.6508444  3
   1863   1861   1873   1874     1  0.0000000  0.6508444  3
   1863   1861   1873   1875     1  0.0000000  0.6508444  3
   1864   1860   1867   1868     1  0.0000000  0.6508444  3
   1864   1860   1867   1869     1  0.0000000  0.6508444  3
   1864   1876   1882   1883     1  0.0000000  0.6508444  3
   1864   1876   1882   1884     1  0.0000000  0.6508444  3
   1865   1864   1860   1867     1  0.0000000  0.6508444  3
   1865   1864   1860   1889     1  0.0000000  0.6508444  3
   1865   1864   1876   1882     1  0.0000000  0.6508444  3
   1865   1864   1876   1877     1  0.0000000  0.6508444  3
   1865   1864   1876   1878     1  0.0000000  0.6508444  3
   1866   1864   1860   1867     1  0.0000000  0.6508444  3
   1866   1864   1860   1889     1  0.0000000  0.6508444  3
   1866   1864   1876   1882     1  0.0000000  0.6508444  3
   1866   1864   1876   1877     1  0.0000000  0.6508444  3
   1866   1864   1876   1878     1  0.0000000  0.6508444  3
   1867   1870   1879   1880     1  0.0000000  0.6508444  3
   1867   1870   1879   1881     1  0.0000000  0.6508444  3
   1868   1867   1860   1889     1  0.0000000  0.6508444  3
   1868   1867   1870   1879     1  0.0000000  0.6508444  3
   1868   1867   1870   1871     1  0.0000000  0.6508444  3
   1868   1867   1870   1872     1  0.0000000  0.6508444  3
   1869   1867   1860   1889     1  0.0000000  0.6508444  3
   1869   1867   1870   1879     1  0.0000000  0.6508444  3
   1869   1867   1870   1871     1  0.0000000  0.6508444  3
   1869   1867   1870   1872     1  0.0000000  0.6508444  3
   1870   1867   1860   1889     1  0.0000000  0.6508444  3
   1871   1870   1879   1888     1  0.0000000  1.0460000  1
   1871   1870   1879   1888     1  0.0000000  0.0000000  3
   1871   1870   1879   1880     1  0.0000000  0.6508444  3
   1871   1870   1879   1881     1  0.0000000  0.6508444  3
   1872   1870   1879   1888     1  0.0000000  1.0460000  1
   1872   1870   1879   1888     1  0.0000000  0.0000000  3
   1872   1870   1879   1880     1  0.0000000  0.6508444  3
   1872   1870   1879   1881     1  0.0000000  0.6508444  3
   1873   1861   1860   1889     1  0.0000000  0.6508444  3
   1874   1873   1885   3838     1  0.0000000  1.0460000  1
   1874   1873   1885   3838     1  0.0000000  0.0000000  3
   1874   1873   1885   1886     1  0.0000000  0.6508444  3
   1874   1873   1885   1887     1  0.0000000  0.6508444  3
   1875   1873   1885   3838     1  0.0000000  1.0460000  1
   1875   1873   1885   3838     1  0.0000000  0.0000000  3
   1875   1873   1885   1886     1  0.0000000  0.6508444  3
   1875   1873   1885   1887     1  0.0000000  0.6508444  3
   1876   1864   1860   1889     1  0.0000000  0.6508444  3
   1877   1876   1882   3808     1  0.0000000  1.0460000  1
   1877   1876   1882   3808     1  0.0000000  0.0000000  3
   1877   1876   1882   1883     1  0.0000000  0.6508444  3
   1877   1876   1882   1884     1  0.0000000  0.6508444  3
   1878   1876   1882   3808     1  0.0000000  1.0460000  1
   1878   1876   1882   3808     1  0.0000000  0.0000000  3
   1878   1876   1882   1883     1  0.0000000  0.6508444  3
   1878   1876   1882   1884     1  0.0000000  0.6508444  3
   1882   3808   3799   3800     1  0.0000000  1.6038667  3
   1882   3808   3799   3801     1  0.0000000  1.6038667  3
   1883   1882   3808   3799     1  0.0000000  1.6038667  3
   1884   1882   3808   3799     1  0.0000000  1.6038667  3
   1885   3838   3829   3830     1  0.0000000  1.6038667  3
   1885   3838   3829   3831     1  0.0000000  1.6038667  3
   1886   1885   3838   3829     1  0.0000000  1.6038667  3
   1887   1885   3838   3829     1  0.0000000  1.6038667  3
   1890   1891   1903   1904     1  0.0000000  0.6508444  3
   1890   1891   1903   1905     1  0.0000000  0.6508444  3
   1890   1894   1906   1907     1  0.0000000  0.6508444  3
   1890   1894   1906   1908     1  0.0000000  0.6508444  3
   1890   1897   1900   1901     1  0.0000000  0.6508444  3
   1890   1897   1900   1902     1  0.0000000  0.6508444  3
   1891   1890   1894   1895     1  0.0000000  0.6508444  3
   1891   1890   1894   1896     1  0.0000000  0.6508444  3
   1891   1890   1897   1898     1  0.0000000  0.6508444  3
   1891   1890   1897   1899     1  0.0000000  0.6508444  3
   1891   1903   1915   1916     1  0.0000000  0.6508444  3
   1891   1903   1915   1917     1  0.0000000  0.6508444  3
   1892   1891   1890   1894     1  0.0000000  0.6508444  3
   1892   1891   1890   1897     1  0.0000000  0.6508444  3
   1892   1891   1890   1919     1  0.0000000  0.6508444  3
   1892   1891   1903   1915     1  0.0000000  0.6508444  3
   1892   1891   1903   1904     1  0.0000000  0.6508444  3
   1892   1891   1903   1905     1  0.0000000  0.6508444  3
   1893   1891   1890   1894     1  0.0000000  0.6508444  3
   1893   1891   1890   1897     1  0.0000000  0.6508444  3
   1893   1891   1890   1919     1  0.0000000  0.6508444  3
   1893   1891   1903   1915     1  0.0000000  0.6508444  3
   1893   1891   1903   1904     1  0.0000000  0.6508444  3
   1893   1891   1903   1905     1  0.0000000  0.6508444  3
   1894   1890   1897   1898     1  0.0000000  0.6508444  3
   1894   1890   1897   1899     1  0.0000000  0.6508444  3
   1894   1906   1912   1913     1  0.0000000  0.6508444  3
   1894   1906   1912   1914     1  0.0000000  0.6508444  3
   1895   1894   1890   1897     1  0.0000000  0.6508444  3
   1895   1894   1890   1919     1  0.0000000  0.6508444  3
   1895   1894   1906   1912     1  0.0000000  0.6508444  3
   1895   1894   1906   1907     1  0.0000000  0.6508444  3
   1895   1894   1906   1908     1  0.0000000  0.6508444  3
   1896   1894   1890   1897     1  0.0000000  0.6508444  3
   1896   1894   1890   1919     1  0.0000000  0.6508444  3
   1896   1894   1906   1912     1  0.0000000  0.6508444  3
   1896   1894   1906   1907     1  0.0000000  0.6508444  3
   1896   1894   1906   1908     1  0.0000000  0.6508444  3
   1897   1900   1909   1910     1  0.0000000  0.6508444  3
   1897   1900   1909   1911     1  0.0000000  0.6508444  3
   1898   1897   1890   1919     1  0.0000000  0.6508444  3
   1898   1897   1900   1909     1  0.0000000  0.6508444  3
   1898   1897   1900   1901     1  0.0000000  0.6508444  3
   1898   1897   1900   1902     1  0.0000000  0.6508444  3
   1899   1897   1890   1919     1  0.0000000  0.6508444  3
   1899   1897   1900   1909     1  0.0000000  0.6508444  3
   1899   1897   1900   1901     1  0.0000000  0.6508444  3
   1899   1897   1900   1902     1  0.0000000  0.6508444  3
   1900   1897   1890   1919     1  0.0000000  0.6508444  3
   1901   1900   1909   1918     1  0.0000000  1.0460000  1
   1901   1900   1909   1918     1  0.0000000  0.0000000  3
   1901   1900   1909   1910     1  0.0000000  0.6508444  3
   1901   1900   1909   1911     1  0.0000000  0.6508444  3
   1902   1900   1909   1918     1  0.0000000  1.0460000  1
   1902   1900   1909   1918     1  0.0000000  0.0000000  3
   1902   1900   1909   1910     1  0.0000000  0.6508444  3
   1902   1900   1909   1911     1  0.0000000  0.6508444  3
   1903   1891   1890   1919     1  0.0000000  0.6508444  3
   1904   1903   1915   3898     1  0.0000000  1.0460000  1
   1904   1903   1915   3898     1  0.0000000  0.0000000  3
   1904   1903   1915   1916     1  0.0000000  0.6508444  3
   1904   1903   1915   1917     1  0.0000000  0.6508444  3
   1905   1903   1915   3898     1  0.0000000  1.0460000  1
   1905   1903   1915   3898     1  0.0000000  0.0000000  3
   1905   1903   1915   1916     1  0.0000000  0.6508444  3
   1905   1903   1915   1917     1  0.0000000  0.6508444  3
   1906   1894   1890   1919     1  0.0000000  0.6508444  3
   1907   1906   1912   3868     1  0.0000000  1.0460000  1
   1907   1906   1912   3868     1  0.0000000  0.0000000  3
   1907   1906   1912   1913     1  0.0000000  0.6508444  3
   1907   1906   1912   1914     1  0.0000000  0.6508444  3
   1908   1906   1912   3868     1  0.0000000  1.0460000  1
   1908   1906   1912   3868     1  0.0000000  0.0000000  3
   1908   1906   1912   1913     1  0.0000000  0.6508444  3
   1908   1906   1912   1914     1  0.0000000  0.6508444  3
   1912   3868   3859   3860     1  0.0000000  1.6038667  3
   1912   3868   3859   3861     1  0.0000000  1.6038667  3
   1913   1912   3868   3859     1  0.0000000  1.6038667  3
   1914   1912   3868   3859     1  0.0000000  1.6038667  3
   1915   3898   3889   3890     1  0.0000000  1.6038667  3
   1915   3898   3889   3891     1  0.0000000  1.6038667  3
   1916   1915   3898   3889     1  0.0000000  1.6038667  3
   1917   1915   3898   3889     1  0.0000000  1.6038667  3
   1920   1921   1933   1934     1  0.0000000  0.6508444  3
   1920   1921   1933   1935     1  0.0000000  0.6508444  3
   1920   1924   1936   1937     1  0.0000000  0.6508444  3
   1920   1924   1936   1938     1  0.0000000  0.6508444  3
   1920   1927   1930   1931     1  0.0000000  0.6508444  3
   1920   1927   1930   1932     1  0.0000000  0.6508444  3
   1921   1920   1924   1925     1  0.0000000  0.6508444  3
   1921   1920   1924   1926     1  0.0000000  0.6508444  3
   1921   1920   1927   1928     1  0.0000000  0.6508444  3
   1921   1920   1927   1929     1  0.0000000  0.6508444  3
   1921   1933   1945   1946     1  0.0000000  0.6508444  3
   1921   1933   1945   1947     1  0.0000000  0.6508444  3
   1922   1921   1920   1924     1  0.0000000  0.6508444  3
   1922   1921   1920   1927     1  0.0000000  0.6508444  3
   1922   1921   1920   1949     1  0.0000000  0.6508444  3
   1922   1921   1933   1945     1  0.0000000  0.6508444  3
   1922   1921   1933   1934     1  0.0000000  0.6508444  3
   1922   1921   1933   1935     1  0.0000000  0.6508444  3
   1923   1921   1920   1924     1  0.0000000  0.6508444  3
   1923   1921   1920   1927     1  0.0000000  0.6508444  3
   1923   1921   1920   1949     1  0.0000000  0.6508444  3
   1923   1921   1933   1945     1  0.0000000  0.6508444  3
   1923   1921   1933   1934     1  0.0000000  0.6508444  3
   1923   1921   1933   1935     1  0.0000000  0.6508444  3
   1924   1920   1927   1928     1  0.0000000  0.6508444  3
   1924   1920   1927   1929     1  0.0000000  0.6508444  3
   1924   1936   1942   1943     1  0.0000000  0.6508444  3
   1924   1936   1942   1944     1  0.0000000  0.6508444  3
   1925   1924   1920   1927     1  0.0000000  0.6508444  3
   1925   1924   1920   1949     1  0.0000000  0.6508444  3
   1925   1924   1936   1942     1  0.0000000  0.6508444  3
   1925   1924   1936   1937     1  0.0000000  0.6508444  3
   1925   1924   1936   1938     1  0.0000000  0.6508444  3
   1926   1924   1920   1927     1  0.0000000  0.6508444  3
   1926   1924   1920   1949     1  0.0000000  0.6508444  3
   1926   1924   1936   1942     1  0.0000000  0.6508444  3
   1926   1924   1936   1937     1  0.0000000  0.6508444  3
   1926   1924   1936   1938     1  0.0000000  0.6508444  3
   1927   1930   1939   1940     1  0.0000000  0.6508444  3
   1927   1930   1939   1941     1  0.0000000  0.6508444  3
   1928   1927   1920   1949     1  0.0000000  0.6508444  3
   1928   1927   1930   1939     1  0.0000000  0.6508444  3
   1928   1927   1930   1931     1  0.0000000  0.6508444  3
   1928   1927   1930   1932     1  0.0000000  0.6508444  3
   1929   1927   1920   1949     1  0.0000000  0.6508444  3
   1929   1927   1930   1939     1  0.0000000  0.6508444  3
   1929   1927   1930   1931     1  0.0000000  0.6508444  3
   1929   1927   1930   1932     1  0.0000000  0.6508444  3
   1930   1927   1920   1949     1  0.0000000  0.6508444  3
   1931   1930   1939   1948     1  0.0000000  1.0460000  1
   1931   1930   1939   1948     1  0.0000000  0.0000000  3
   1931   1930   1939   1940     1  0.0000000  0.6508444  3
   1931   1930   1939   1941     1  0.0000000  0.6508444  3
   1932   1930   1939   1948     1  0.0000000  1.0460000  1
   1932   1930   1939   1948     1  0.0000000  0.0000000  3
   1932   1930   1939   1940     1  0.0000000  0.6508444  3
   1932   1930   1939   1941     1  0.0000000  0.6508444  3
   1933   1921   1920   1949     1  0.0000000  0.6508444  3
   1934   1933   1945   3958     1  0.0000000  1.0460000  1
   1934   1933   1945   3958     1  0.0000000  0.0000000  3
   1934   1933   1945   1946     1  0.0000000  0.6508444  3
   1934   1933   1945   1947     1  0.0000000  0.6508444  3
   1935   1933   1945   3958     1  0.0000000  1.0460000  1
   1935   1933   1945   3958     1  0.0000000  0.0000000  3
   1935   1933   1945   1946     1  0.0000000  0.6508444  3
   1935   1933   1945   1947     1  0.0000000  0.6508444  3
   1936   1924   1920   1949     1  0.0000000  0.6508444  3
   1937   1936   1942   3928     1  0.0000000  1.0460000  1
   1937   1936   1942   3928     1  0.0000000  0.0000000  3
   1937   1936   1942   1943     1  0.0000000  0.6508444  3
   1937   1936   1942   1944     1  0.0000000  0.6508444  3
   1938   1936   1942   3928     1  0.0000000  1.0460000  1
   1938   1936   1942   3928     1  0.0000000  0.0000000  3
   1938   1936   1942   1943     1  0.0000000  0.6508444  3
   1938   1936   1942   1944     1  0.0000000  0.6508444  3
   1942   3928   3919   3920     1  0.0000000  1.6038667  3
   1942   3928   3919   3921     1  0.0000000  1.6038667  3
   1943   1942   3928   3919     1  0.0000000  1.6038667  3
   1944   1942   3928   3919     1  0.0000000  1.6038667  3
   1945   3958   3949   3950     1  0.0000000  1.6038667  3
   1945   3958   3949   3951     1  0.0000000  1.6038667  3
   1946   1945   3958   3949     1  0.0000000  1.6038667  3
   1947   1945   3958   3949     1  0.0000000  1.6038667  3
   1950   1951   1963   1964     1  0.0000000  0.6508444  3
   1950   1951   1963   1965     1  0.0000000  0.6508444  3
   1950   1954   1966   1967     1  0.0000000  0.6508444  3
   1950   1954   1966   1968     1  0.0000000  0.6508444  3
   1950   1957   1960   1961     1  0.0000000  0.6508444  3
   1950   1957   1960   1962     1  0.0000000  0.6508444  3
   1951   1950   1954   1955     1  0.0000000  0.6508444  3
   1951   1950   1954   1956     1  0.0000000  0.6508444  3
   1951   1950   1957   1958     1  0.0000000  0.6508444  3
   1951   1950   1957   1959     1  0.0000000  0.6508444  3
   1951   1963   1975   1976     1  0.0000000  0.6508444  3
   1951   1963   1975   1977     1  0.0000000  0.6508444  3
   1952   1951   1950   1954     1  0.0000000  0.6508444  3
   1952   1951   1950   1957     1  0.0000000  0.6508444  3
   1952   1951   1950   1979     1  0.0000000  0.6508444  3
   1952   1951   1963   1975     1  0.0000000  0.6508444  3
   1952   1951   1963   1964     1  0.0000000  0.6508444  3
   1952   1951   1963   1965     1  0.0000000  0.6508444  3
   1953   1951   1950   1954     1  0.0000000  0.6508444  3
   1953   1951   1950   1957     1  0.0000000  0.6508444  3
   1953   1951   1950   1979     1  0.0000000  0.6508444  3
   1953   1951   1963   1975     1  0.0000000  0.6508444  3
   1953   1951   1963   1964     1  0.0000000  0.6508444  3
   1953   1951   1963   1965     1  0.0000000  0.6508444  3
   1954   1950   1957   1958     1  0.0000000  0.6508444  3
   1954   1950   1957   1959     1  0.0000000  0.6508444  3
   1954   1966   1972   1973     1  0.0000000  0.6508444  3
   1954   1966   1972   1974     1  0.0000000  0.6508444  3
   1955   1954   1950   1957     1  0.0000000  0.6508444  3
   1955   1954   1950   1979     1  0.0000000  0.6508444  3
   1955   1954   1966   1972     1  0.0000000  0.6508444  3
   1955   1954   1966   1967     1  0.0000000  0.6508444  3
   1955   1954   1966   1968     1  0.0000000  0.6508444  3
   1956   1954   1950   1957     1  0.0000000  0.6508444  3
   1956   1954   1950   1979     1  0.0000000  0.6508444  3
   1956   1954   1966   1972     1  0.0000000  0.6508444  3
   1956   1954   1966   1967     1  0.0000000  0.6508444  3
   1956   1954   1966   1968     1  0.0000000  0.6508444  3
   1957   1960   1969   1970     1  0.0000000  0.6508444  3
   1957   1960   1969   1971     1  0.0000000  0.6508444  3
   1958   1957   1950   1979     1  0.0000000  0.6508444  3
   1958   1957   1960   1969     1  0.0000000  0.6508444  3
   1958   1957   1960   1961     1  0.0000000  0.6508444  3
   1958   1957   1960   1962     1  0.0000000  0.6508444  3
   1959   1957   1950   1979     1  0.0000000  0.6508444  3
   1959   1957   1960   1969     1  0.0000000  0.6508444  3
   1959   1957   1960   1961     1  0.0000000  0.6508444  3
   1959   1957   1960   1962     1  0.0000000  0.6508444  3
   1960   1957   1950   1979     1  0.0000000  0.6508444  3
   1961   1960   1969   1978     1  0.0000000  1.0460000  1
   1961   1960   1969   1978     1  0.0000000  0.0000000  3
   1961   1960   1969   1970     1  0.0000000  0.6508444  3
   1961   1960   1969   1971     1  0.0000000  0.6508444  3
   1962   1960   1969   1978     1  0.0000000  1.0460000  1
   1962   1960   1969   1978     1  0.0000000  0.0000000  3
   1962   1960   1969   1970     1  0.0000000  0.6508444  3
   1962   1960   1969   1971     1  0.0000000  0.6508444  3
   1963   1951   1950   1979     1  0.0000000  0.6508444  3
   1964   1963   1975   4018     1  0.0000000  1.0460000  1
   1964   1963   1975   4018     1  0.0000000  0.0000000  3
   1964   1963   1975   1976     1  0.0000000  0.6508444  3
   1964   1963   1975   1977     1  0.0000000  0.6508444  3
   1965   1963   1975   4018     1  0.0000000  1.0460000  1
   1965   1963   1975   4018     1  0.0000000  0.0000000  3
   1965   1963   1975   1976     1  0.0000000  0.6508444  3
   1965   1963   1975   1977     1  0.0000000  0.6508444  3
   1966   1954   1950   1979     1  0.0000000  0.6508444  3
   1967   1966   1972   3988     1  0.0000000  1.0460000  1
   1967   1966   1972   3988     1  0.0000000  0.0000000  3
   1967   1966   1972   1973     1  0.0000000  0.6508444  3
   1967   1966   1972   1974     1  0.0000000  0.6508444  3
   1968   1966   1972   3988     1  0.0000000  1.0460000  1
   1968   1966   1972   3988     1  0.0000000  0.0000000  3
   1968   1966   1972   1973     1  0.0000000  0.6508444  3
   1968   1966   1972   1974     1  0.0000000  0.6508444  3
   1972   3988   3979   3980     1  0.0000000  1.6038667  3
   1972   3988   3979   3981     1  0.0000000  1.6038667  3
   1973   1972   3988   3979     1  0.0000000  1.6038667  3
   1974   1972   3988   3979     1  0.0000000  1.6038667  3
   1975   4018   4009   4010     1  0.0000000  1.6038667  3
   1975   4018   4009   4011     1  0.0000000  1.6038667  3
   1976   1975   4018   4009     1  0.0000000  1.6038667  3
   1977   1975   4018   4009     1  0.0000000  1.6038667  3
   1980   1981   1993   1994     1  0.0000000  0.6508444  3
   1980   1981   1993   1995     1  0.0000000  0.6508444  3
   1980   1984   1996   1997     1  0.0000000  0.6508444  3
   1980   1984   1996   1998     1  0.0000000  0.6508444  3
   1980   1987   1990   1991     1  0.0000000  0.6508444  3
   1980   1987   1990   1992     1  0.0000000  0.6508444  3
   1981   1980   1984   1985     1  0.0000000  0.6508444  3
   1981   1980   1984   1986     1  0.0000000  0.6508444  3
   1981   1980   1987   1988     1  0.0000000  0.6508444  3
   1981   1980   1987   1989     1  0.0000000  0.6508444  3
   1981   1993   2005   2006     1  0.0000000  0.6508444  3
   1981   1993   2005   2007     1  0.0000000  0.6508444  3
   1982   1981   1980   1984     1  0.0000000  0.6508444  3
   1982   1981   1980   1987     1  0.0000000  0.6508444  3
   1982   1981   1980   2009     1  0.0000000  0.6508444  3
   1982   1981   1993   2005     1  0.0000000  0.6508444  3
   1982   1981   1993   1994     1  0.0000000  0.6508444  3
   1982   1981   1993   1995     1  0.0000000  0.6508444  3
   1983   1981   1980   1984     1  0.0000000  0.6508444  3
   1983   1981   1980   1987     1  0.0000000  0.6508444  3
   1983   1981   1980   2009     1  0.0000000  0.6508444  3
   1983   1981   1993   2005     1  0.0000000  0.6508444  3
   1983   1981   1993   1994     1  0.0000000  0.6508444  3
   1983   1981   1993   1995     1  0.0000000  0.6508444  3
   1984   1980   1987   1988     1  0.0000000  0.6508444  3
   1984   1980   1987   1989     1  0.0000000  0.6508444  3
   1984   1996   2002   2003     1  0.0000000  0.6508444  3
   1984   1996   2002   2004     1  0.0000000  0.6508444  3
   1985   1984   1980   1987     1  0.0000000  0.6508444  3
   1985   1984   1980   2009     1  0.0000000  0.6508444  3
   1985   1984   1996   2002     1  0.0000000  0.6508444  3
   1985   1984   1996   1997     1  0.0000000  0.6508444  3
   1985   1984   1996   1998     1  0.0000000  0.6508444  3
   1986   1984   1980   1987     1  0.0000000  0.6508444  3
   1986   1984   1980   2009     1  0.0000000  0.6508444  3
   1986   1984   1996   2002     1  0.0000000  0.6508444  3
   1986   1984   1996   1997     1  0.0000000  0.6508444  3
   1986   1984   1996   1998     1  0.0000000  0.6508444  3
   1987   1990   1999   2000     1  0.0000000  0.6508444  3
   1987   1990   1999   2001     1  0.0000000  0.6508444  3
   1988   1987   1980   2009     1  0.0000000  0.6508444  3
   1988   1987   1990   1999     1  0.0000000  0.6508444  3
   1988   1987   1990   1991     1  0.0000000  0.6508444  3
   1988   1987   1990   1992     1  0.0000000  0.6508444  3
   1989   1987   1980   2009     1  0.0000000  0.6508444  3
   1989   1987   1990   1999     1  0.0000000  0.6508444  3
   1989   1987   1990   1991     1  0.0000000  0.6508444  3
   1989   1987   1990   1992     1  0.0000000  0.6508444  3
   1990   1987   1980   2009     1  0.0000000  0.6508444  3
   1991   1990   1999   2008     1  0.0000000  1.0460000  1
   1991   1990   1999   2008     1  0.0000000  0.0000000  3
   1991   1990   1999   2000     1  0.0000000  0.6508444  3
   1991   1990   1999   2001     1  0.0000000  0.6508444  3
   1992   1990   1999   2008     1  0.0000000  1.0460000  1
   1992   1990   1999   2008     1  0.0000000  0.0000000  3
   1992   1990   1999   2000     1  0.0000000  0.6508444  3
   1992   1990   1999   2001     1  0.0000000  0.6508444  3
   1993   1981   1980   2009     1  0.0000000  0.6508444  3
   1994   1993   2005   4078     1  0.0000000  1.0460000  1
   1994   1993   2005   4078     1  0.0000000  0.0000000  3
   1994   1993   2005   2006     1  0.0000000  0.6508444  3
   1994   1993   2005   2007     1  0.0000000  0.6508444  3
   1995   1993   2005   4078     1  0.0000000  1.0460000  1
   1995   1993   2005   4078     1  0.0000000  0.0000000  3
   1995   1993   2005   2006     1  0.0000000  0.6508444  3
   1995   1993   2005   2007     1  0.0000000  0.6508444  3
   1996   1984   1980   2009     1  0.0000000  0.6508444  3
   1997   1996   2002   4048     1  0.0000000  1.0460000  1
   1997   1996   2002   4048     1  0.0000000  0.0000000  3
   1997   1996   2002   2003     1  0.0000000  0.6508444  3
   1997   1996   2002   2004     1  0.0000000  0.6508444  3
   1998   1996   2002   4048     1  0.0000000  1.0460000  1
   1998   1996   2002   4048     1  0.0000000  0.0000000  3
   1998   1996   2002   2003     1  0.0000000  0.6508444  3
   1998   1996   2002   2004     1  0.0000000  0.6508444  3
   2002   4048   4039   4040     1  0.0000000  1.6038667  3
   2002   4048   4039   4041     1  0.0000000  1.6038667  3
   2003   2002   4048   4039     1  0.0000000  1.6038667  3
   2004   2002   4048   4039     1  0.0000000  1.6038667  3
   2005   4078   4069   4070     1  0.0000000  1.6038667  3
   2005   4078   4069   4071     1  0.0000000  1.6038667  3
   2006   2005   4078   4069     1  0.0000000  1.6038667  3
   2007   2005   4078   4069     1  0.0000000  1.6038667  3
   2010   2011   2023   2024     1  0.0000000  0.6508444  3
   2010   2011   2023   2025     1  0.0000000  0.6508444  3
   2010   2014   2026   2027     1  0.0000000  0.6508444  3
   2010   2014   2026   2028     1  0.0000000  0.6508444  3
   2010   2017   2020   2021     1  0.0000000  0.6508444  3
   2010   2017   2020   2022     1  0.0000000  0.6508444  3
   2011   2010   2014   2015     1  0.0000000  0.6508444  3
   2011   2010   2014   2016     1  0.0000000  0.6508444  3
   2011   2010   2017   2018     1  0.0000000  0.6508444  3
   2011   2010   2017   2019     1  0.0000000  0.6508444  3
   2011   2023   2035   2036     1  0.0000000  0.6508444  3
   2011   2023   2035   2037     1  0.0000000  0.6508444  3
   2012   2011   2010   2014     1  0.0000000  0.6508444  3
   2012   2011   2010   2017     1  0.0000000  0.6508444  3
   2012   2011   2010   2039     1  0.0000000  0.6508444  3
   2012   2011   2023   2035     1  0.0000000  0.6508444  3
   2012   2011   2023   2024     1  0.0000000  0.6508444  3
   2012   2011   2023   2025     1  0.0000000  0.6508444  3
   2013   2011   2010   2014     1  0.0000000  0.6508444  3
   2013   2011   2010   2017     1  0.0000000  0.6508444  3
   2013   2011   2010   2039     1  0.0000000  0.6508444  3
   2013   2011   2023   2035     1  0.0000000  0.6508444  3
   2013   2011   2023   2024     1  0.0000000  0.6508444  3
   2013   2011   2023   2025     1  0.0000000  0.6508444  3
   2014   2010   2017   2018     1  0.0000000  0.6508444  3
   2014   2010   2017   2019     1  0.0000000  0.6508444  3
   2014   2026   2032   2033     1  0.0000000  0.6508444  3
   2014   2026   2032   2034     1  0.0000000  0.6508444  3
   2015   2014   2010   2017     1  0.0000000  0.6508444  3
   2015   2014   2010   2039     1  0.0000000  0.6508444  3
   2015   2014   2026   2032     1  0.0000000  0.6508444  3
   2015   2014   2026   2027     1  0.0000000  0.6508444  3
   2015   2014   2026   2028     1  0.0000000  0.6508444  3
   2016   2014   2010   2017     1  0.0000000  0.6508444  3
   2016   2014   2010   2039     1  0.0000000  0.6508444  3
   2016   2014   2026   2032     1  0.0000000  0.6508444  3
   2016   2014   2026   2027     1  0.0000000  0.6508444  3
   2016   2014   2026   2028     1  0.0000000  0.6508444  3
   2017   2020   2029   2030     1  0.0000000  0.6508444  3
   2017   2020   2029   2031     1  0.0000000  0.6508444  3
   2018   2017   2010   2039     1  0.0000000  0.6508444  3
   2018   2017   2020   2029     1  0.0000000  0.6508444  3
   2018   2017   2020   2021     1  0.0000000  0.6508444  3
   2018   2017   2020   2022     1  0.0000000  0.6508444  3
   2019   2017   2010   2039     1  0.0000000  0.6508444  3
   2019   2017   2020   2029     1  0.0000000  0.6508444  3
   2019   2017   2020   2021     1  0.0000000  0.6508444  3
   2019   2017   2020   2022     1  0.0000000  0.6508444  3
   2020   2017   2010   2039     1  0.0000000  0.6508444  3
   2021   2020   2029   2038     1  0.0000000  1.0460000  1
   2021   2020   2029   2038     1  0.0000000  0.0000000  3
   2021   2020   2029   2030     1  0.0000000  0.6508444  3
   2021   2020   2029   2031     1  0.0000000  0.6508444  3
   2022   2020   2029   2038     1  0.0000000  1.0460000  1
   2022   2020   2029   2038     1  0.0000000  0.0000000  3
   2022   2020   2029   2030     1  0.0000000  0.6508444  3
   2022   2020   2029   2031     1  0.0000000  0.6508444  3
   2023   2011   2010   2039     1  0.0000000  0.6508444  3
   2024   2023   2035   4138     1  0.0000000  1.0460000  1
   2024   2023   2035   4138     1  0.0000000  0.0000000  3
   2024   2023   2035   2036     1  0.0000000  0.6508444  3
   2024   2023   2035   2037     1  0.0000000  0.6508444  3
   2025   2023   2035   4138     1  0.0000000  1.0460000  1
   2025   2023   2035   4138     1  0.0000000  0.0000000  3
   2025   2023   2035   2036     1  0.0000000  0.6508444  3
   2025   2023   2035   2037     1  0.0000000  0.6508444  3
   2026   2014   2010   2039     1  0.0000000  0.6508444  3
   2027   2026   2032   4108     1  0.0000000  1.0460000  1
   2027   2026   2032   4108     1  0.0000000  0.0000000  3
   2027   2026   2032   2033     1  0.0000000  0.6508444  3
   2027   2026   2032   2034     1  0.0000000  0.6508444  3
   2028   2026   2032   4108     1  0.0000000  1.0460000  1
   2028   2026   2032   4108     1  0.0000000  0.0000000  3
   2028   2026   2032   2033     1  0.0000000  0.6508444  3
   2028   2026   2032   2034     1  0.0000000  0.6508444  3
   2032   4108   4099   4100     1  0.0000000  1.6038667  3
   2032   4108   4099   4101     1  0.0000000  1.6038667  3
   2033   2032   4108   4099     1  0.0000000  1.6038667  3
   2034   2032   4108   4099     1  0.0000000  1.6038667  3
   2035   4138   4129   4130     1  0.0000000  1.6038667  3
   2035   4138   4129   4131     1  0.0000000  1.6038667  3
   2036   2035   4138   4129     1  0.0000000  1.6038667  3
   2037   2035   4138   4129     1  0.0000000  1.6038667  3
   2040   2041   2053   2054     1  0.0000000  0.6508444  3
   2040   2041   2053   2055     1  0.0000000  0.6508444  3
   2040   2044   2056   2057     1  0.0000000  0.6508444  3
   2040   2044   2056   2058     1  0.0000000  0.6508444  3
   2040   2047   2050   2051     1  0.0000000  0.6508444  3
   2040   2047   2050   2052     1  0.0000000  0.6508444  3
   2041   2040   2044   2045     1  0.0000000  0.6508444  3
   2041   2040   2044   2046     1  0.0000000  0.6508444  3
   2041   2040   2047   2048     1  0.0000000  0.6508444  3
   2041   2040   2047   2049     1  0.0000000  0.6508444  3
   2041   2053   2065   2066     1  0.0000000  0.6508444  3
   2041   2053   2065   2067     1  0.0000000  0.6508444  3
   2042   2041   2040   2044     1  0.0000000  0.6508444  3
   2042   2041   2040   2047     1  0.0000000  0.6508444  3
   2042   2041   2040   2069     1  0.0000000  0.6508444  3
   2042   2041   2053   2065     1  0.0000000  0.6508444  3
   2042   2041   2053   2054     1  0.0000000  0.6508444  3
   2042   2041   2053   2055     1  0.0000000  0.6508444  3
   2043   2041   2040   2044     1  0.0000000  0.6508444  3
   2043   2041   2040   2047     1  0.0000000  0.6508444  3
   2043   2041   2040   2069     1  0.0000000  0.6508444  3
   2043   2041   2053   2065     1  0.0000000  0.6508444  3
   2043   2041   2053   2054     1  0.0000000  0.6508444  3
   2043   2041   2053   2055     1  0.0000000  0.6508444  3
   2044   2040   2047   2048     1  0.0000000  0.6508444  3
   2044   2040   2047   2049     1  0.0000000  0.6508444  3
   2044   2056   2062   2063     1  0.0000000  0.6508444  3
   2044   2056   2062   2064     1  0.0000000  0.6508444  3
   2045   2044   2040   2047     1  0.0000000  0.6508444  3
   2045   2044   2040   2069     1  0.0000000  0.6508444  3
   2045   2044   2056   2062     1  0.0000000  0.6508444  3
   2045   2044   2056   2057     1  0.0000000  0.6508444  3
   2045   2044   2056   2058     1  0.0000000  0.6508444  3
   2046   2044   2040   2047     1  0.0000000  0.6508444  3
   2046   2044   2040   2069     1  0.0000000  0.6508444  3
   2046   2044   2056   2062     1  0.0000000  0.6508444  3
   2046   2044   2056   2057     1  0.0000000  0.6508444  3
   2046   2044   2056   2058     1  0.0000000  0.6508444  3
   2047   2050   2059   2060     1  0.0000000  0.6508444  3
   2047   2050   2059   2061     1  0.0000000  0.6508444  3
   2048   2047   2040   2069     1  0.0000000  0.6508444  3
   2048   2047   2050   2059     1  0.0000000  0.6508444  3
   2048   2047   2050   2051     1  0.0000000  0.6508444  3
   2048   2047   2050   2052     1  0.0000000  0.6508444  3
   2049   2047   2040   2069     1  0.0000000  0.6508444  3
   2049   2047   2050   2059     1  0.0000000  0.6508444  3
   2049   2047   2050   2051     1  0.0000000  0.6508444  3
   2049   2047   2050   2052     1  0.0000000  0.6508444  3
   2050   2047   2040   2069     1  0.0000000  0.6508444  3
   2051   2050   2059   2068     1  0.0000000  1.0460000  1
   2051   2050   2059   2068     1  0.0000000  0.0000000  3
   2051   2050   2059   2060     1  0.0000000  0.6508444  3
   2051   2050   2059   2061     1  0.0000000  0.6508444  3
   2052   2050   2059   2068     1  0.0000000  1.0460000  1
   2052   2050   2059   2068     1  0.0000000  0.0000000  3
   2052   2050   2059   2060     1  0.0000000  0.6508444  3
   2052   2050   2059   2061     1  0.0000000  0.6508444  3
   2053   2041   2040   2069     1  0.0000000  0.6508444  3
   2054   2053   2065   4198     1  0.0000000  1.0460000  1
   2054   2053   2065   4198     1  0.0000000  0.0000000  3
   2054   2053   2065   2066     1  0.0000000  0.6508444  3
   2054   2053   2065   2067     1  0.0000000  0.6508444  3
   2055   2053   2065   4198     1  0.0000000  1.0460000  1
   2055   2053   2065   4198     1  0.0000000  0.0000000  3
   2055   2053   2065   2066     1  0.0000000  0.6508444  3
   2055   2053   2065   2067     1  0.0000000  0.6508444  3
   2056   2044   2040   2069     1  0.0000000  0.6508444  3
   2057   2056   2062   4168     1  0.0000000  1.0460000  1
   2057   2056   2062   4168     1  0.0000000  0.0000000  3
   2057   2056   2062   2063     1  0.0000000  0.6508444  3
   2057   2056   2062   2064     1  0.0000000  0.6508444  3
   2058   2056   2062   4168     1  0.0000000  1.0460000  1
   2058   2056   2062   4168     1  0.0000000  0.0000000  3
   2058   2056   2062   2063     1  0.0000000  0.6508444  3
   2058   2056   2062   2064     1  0.0000000  0.6508444  3
   2062   4168   4159   4160     1  0.0000000  1.6038667  3
   2062   4168   4159   4161     1  0.0000000  1.6038667  3
   2063   2062   4168   4159     1  0.0000000  1.6038667  3
   2064   2062   4168   4159     1  0.0000000  1.6038667  3
   2065   4198   4189   4190     1  0.0000000  1.6038667  3
   2065   4198   4189   4191     1  0.0000000  1.6038667  3
   2066   2065   4198   4189     1  0.0000000  1.6038667  3
   2067   2065   4198   4189     1  0.0000000  1.6038667  3
   2070   2071   2083   2084     1  0.0000000  0.6508444  3
   2070   2071   2083   2085     1  0.0000000  0.6508444  3
   2070   2074   2086   2087     1  0.0000000  0.6508444  3
   2070   2074   2086   2088     1  0.0000000  0.6508444  3
   2070   2077   2080   2081     1  0.0000000  0.6508444  3
   2070   2077   2080   2082     1  0.0000000  0.6508444  3
   2071   2070   2074   2075     1  0.0000000  0.6508444  3
   2071   2070   2074   2076     1  0.0000000  0.6508444  3
   2071   2070   2077   2078     1  0.0000000  0.6508444  3
   2071   2070   2077   2079     1  0.0000000  0.6508444  3
   2071   2083   2095   2096     1  0.0000000  0.6508444  3
   2071   2083   2095   2097     1  0.0000000  0.6508444  3
   2072   2071   2070   2074     1  0.0000000  0.6508444  3
   2072   2071   2070   2077     1  0.0000000  0.6508444  3
   2072   2071   2070   2099     1  0.0000000  0.6508444  3
   2072   2071   2083   2095     1  0.0000000  0.6508444  3
   2072   2071   2083   2084     1  0.0000000  0.6508444  3
   2072   2071   2083   2085     1  0.0000000  0.6508444  3
   2073   2071   2070   2074     1  0.0000000  0.6508444  3
   2073   2071   2070   2077     1  0.0000000  0.6508444  3
   2073   2071   2070   2099     1  0.0000000  0.6508444  3
   2073   2071   2083   2095     1  0.0000000  0.6508444  3
   2073   2071   2083   2084     1  0.0000000  0.6508444  3
   2073   2071   2083   2085     1  0.0000000  0.6508444  3
   2074   2070   2077   2078     1  0.0000000  0.6508444  3
   2074   2070   2077   2079     1  0.0000000  0.6508444  3
   2074   2086   2092   2093     1  0.0000000  0.6508444  3
   2074   2086   2092   2094     1  0.0000000  0.6508444  3
   2075   2074   2070   2077     1  0.0000000  0.6508444  3
   2075   2074   2070   2099     1  0.0000000  0.6508444  3
   2075   2074   2086   2092     1  0.0000000  0.6508444  3
   2075   2074   2086   2087     1  0.0000000  0.6508444  3
   2075   2074   2086   2088     1  0.0000000  0.6508444  3
   2076   2074   2070   2077     1  0.0000000  0.6508444  3
   2076   2074   2070   2099     1  0.0000000  0.6508444  3
   2076   2074   2086   2092     1  0.0000000  0.6508444  3
   2076   2074   2086   2087     1  0.0000000  0.6508444  3
   2076   2074   2086   2088     1  0.0000000  0.6508444  3
   2077   2080   2089   2090     1  0.0000000  0.6508444  3
   2077   2080   2089   2091     1  0.0000000  0.6508444  3
   2078   2077   2070   2099     1  0.0000000  0.6508444  3
   2078   2077   2080   2089     1  0.0000000  0.6508444  3
   2078   2077   2080   2081     1  0.0000000  0.6508444  3
   2078   2077   2080   2082     1  0.0000000  0.6508444  3
   2079   2077   2070   2099     1  0.0000000  0.6508444  3
   2079   2077   2080   2089     1  0.0000000  0.6508444  3
   2079   2077   2080   2081     1  0.0000000  0.6508444  3
   2079   2077   2080   2082     1  0.0000000  0.6508444  3
   2080   2077   2070   2099     1  0.0000000  0.6508444  3
   2081   2080   2089   2098     1  0.0000000  1.0460000  1
   2081   2080   2089   2098     1  0.0000000  0.0000000  3
   2081   2080   2089   2090     1  0.0000000  0.6508444  3
   2081   2080   2089   2091     1  0.0000000  0.6508444  3
   2082   2080   2089   2098     1  0.0000000  1.0460000  1
   2082   2080   2089   2098     1  0.0000000  0.0000000  3
   2082   2080   2089   2090     1  0.0000000  0.6508444  3
   2082   2080   2089   2091     1  0.0000000  0.6508444  3
   2083   2071   2070   2099     1  0.0000000  0.6508444  3
   2084   2083   2095   4258     1  0.0000000  1.0460000  1
   2084   2083   2095   4258     1  0.0000000  0.0000000  3
   2084   2083   2095   2096     1  0.0000000  0.6508444  3
   2084   2083   2095   2097     1  0.0000000  0.6508444  3
   2085   2083   2095   4258     1  0.0000000  1.0460000  1
   2085   2083   2095   4258     1  0.0000000  0.0000000  3
   2085   2083   2095   2096     1  0.0000000  0.6508444  3
   2085   2083   2095   2097     1  0.0000000  0.6508444  3
   2086   2074   2070   2099     1  0.0000000  0.6508444  3
   2087   2086   2092   4228     1  0.0000000  1.0460000  1
   2087   2086   2092   4228     1  0.0000000  0.0000000  3
   2087   2086   2092   2093     1  0.0000000  0.6508444  3
   2087   2086   2092   2094     1  0.0000000  0.6508444  3
   2088   2086   2092   4228     1  0.0000000  1.0460000  1
   2088   2086   2092   4228     1  0.0000000  0.0000000  3
   2088   2086   2092   2093     1  0.0000000  0.6508444  3
   2088   2086   2092   2094     1  0.0000000  0.6508444  3
   2092   4228   4219   4220     1  0.0000000  1.6038667  3
   2092   4228   4219   4221     1  0.0000000  1.6038667  3
   2093   2092   4228   4219     1  0.0000000  1.6038667  3
   2094   2092   4228   4219     1  0.0000000  1.6038667  3
   2095   4258   4249   4250     1  0.0000000  1.6038667  3
   2095   4258   4249   4251     1  0.0000000  1.6038667  3
   2096   2095   4258   4249     1  0.0000000  1.6038667  3
   2097   2095   4258   4249     1  0.0000000  1.6038667  3
   2100   2101   2113   2114     1  0.0000000  0.6508444  3
   2100   2101   2113   2115     1  0.0000000  0.6508444  3
   2100   2104   2116   2117     1  0.0000000  0.6508444  3
   2100   2104   2116   2118     1  0.0000000  0.6508444  3
   2100   2107   2110   2111     1  0.0000000  0.6508444  3
   2100   2107   2110   2112     1  0.0000000  0.6508444  3
   2101   2100   2104   2105     1  0.0000000  0.6508444  3
   2101   2100   2104   2106     1  0.0000000  0.6508444  3
   2101   2100   2107   2108     1  0.0000000  0.6508444  3
   2101   2100   2107   2109     1  0.0000000  0.6508444  3
   2101   2113   2125   2126     1  0.0000000  0.6508444  3
   2101   2113   2125   2127     1  0.0000000  0.6508444  3
   2102   2101   2100   2104     1  0.0000000  0.6508444  3
   2102   2101   2100   2107     1  0.0000000  0.6508444  3
   2102   2101   2100   2129     1  0.0000000  0.6508444  3
   2102   2101   2113   2125     1  0.0000000  0.6508444  3
   2102   2101   2113   2114     1  0.0000000  0.6508444  3
   2102   2101   2113   2115     1  0.0000000  0.6508444  3
   2103   2101   2100   2104     1  0.0000000  0.6508444  3
   2103   2101   2100   2107     1  0.0000000  0.6508444  3
   2103   2101   2100   2129     1  0.0000000  0.6508444  3
   2103   2101   2113   2125     1  0.0000000  0.6508444  3
   2103   2101   2113   2114     1  0.0000000  0.6508444  3
   2103   2101   2113   2115     1  0.0000000  0.6508444  3
   2104   2100   2107   2108     1  0.0000000  0.6508444  3
   2104   2100   2107   2109     1  0.0000000  0.6508444  3
   2104   2116   2122   2123     1  0.0000000  0.6508444  3
   2104   2116   2122   2124     1  0.0000000  0.6508444  3
   2105   2104   2100   2107     1  0.0000000  0.6508444  3
   2105   2104   2100   2129     1  0.0000000  0.6508444  3
   2105   2104   2116   2122     1  0.0000000  0.6508444  3
   2105   2104   2116   2117     1  0.0000000  0.6508444  3
   2105   2104   2116   2118     1  0.0000000  0.6508444  3
   2106   2104   2100   2107     1  0.0000000  0.6508444  3
   2106   2104   2100   2129     1  0.0000000  0.6508444  3
   2106   2104   2116   2122     1  0.0000000  0.6508444  3
   2106   2104   2116   2117     1  0.0000000  0.6508444  3
   2106   2104   2116   2118     1  0.0000000  0.6508444  3
   2107   2110   2119   2120     1  0.0000000  0.6508444  3
   2107   2110   2119   2121     1  0.0000000  0.6508444  3
   2108   2107   2100   2129     1  0.0000000  0.6508444  3
   2108   2107   2110   2119     1  0.0000000  0.6508444  3
   2108   2107   2110   2111     1  0.0000000  0.6508444  3
   2108   2107   2110   2112     1  0.0000000  0.6508444  3
   2109   2107   2100   2129     1  0.0000000  0.6508444  3
   2109   2107   2110   2119     1  0.0000000  0.6508444  3
   2109   2107   2110   2111     1  0.0000000  0.6508444  3
   2109   2107   2110   2112     1  0.0000000  0.6508444  3
   2110   2107   2100   2129     1  0.0000000  0.6508444  3
   2111   2110   2119   2128     1  0.0000000  1.0460000  1
   2111   2110   2119   2128     1  0.0000000  0.0000000  3
   2111   2110   2119   2120     1  0.0000000  0.6508444  3
   2111   2110   2119   2121     1  0.0000000  0.6508444  3
   2112   2110   2119   2128     1  0.0000000  1.0460000  1
   2112   2110   2119   2128     1  0.0000000  0.0000000  3
   2112   2110   2119   2120     1  0.0000000  0.6508444  3
   2112   2110   2119   2121     1  0.0000000  0.6508444  3
   2113   2101   2100   2129     1  0.0000000  0.6508444  3
   2114   2113   2125   4318     1  0.0000000  1.0460000  1
   2114   2113   2125   4318     1  0.0000000  0.0000000  3
   2114   2113   2125   2126     1  0.0000000  0.6508444  3
   2114   2113   2125   2127     1  0.0000000  0.6508444  3
   2115   2113   2125   4318     1  0.0000000  1.0460000  1
   2115   2113   2125   4318     1  0.0000000  0.0000000  3
   2115   2113   2125   2126     1  0.0000000  0.6508444  3
   2115   2113   2125   2127     1  0.0000000  0.6508444  3
   2116   2104   2100   2129     1  0.0000000  0.6508444  3
   2117   2116   2122   4288     1  0.0000000  1.0460000  1
   2117   2116   2122   4288     1  0.0000000  0.0000000  3
   2117   2116   2122   2123     1  0.0000000  0.6508444  3
   2117   2116   2122   2124     1  0.0000000  0.6508444  3
   2118   2116   2122   4288     1  0.0000000  1.0460000  1
   2118   2116   2122   4288     1  0.0000000  0.0000000  3
   2118   2116   2122   2123     1  0.0000000  0.6508444  3
   2118   2116   2122   2124     1  0.0000000  0.6508444  3
   2122   4288   4279   4280     1  0.0000000  1.6038667  3
   2122   4288   4279   4281     1  0.0000000  1.6038667  3
   2123   2122   4288   4279     1  0.0000000  1.6038667  3
   2124   2122   4288   4279     1  0.0000000  1.6038667  3
   2125   4318   4309   4310     1  0.0000000  1.6038667  3
   2125   4318   4309   4311     1  0.0000000  1.6038667  3
   2126   2125   4318   4309     1  0.0000000  1.6038667  3
   2127   2125   4318   4309     1  0.0000000  1.6038667  3
   2130   2131   2143   2144     1  0.0000000  0.6508444  3
   2130   2131   2143   2145     1  0.0000000  0.6508444  3
   2130   2134   2146   2147     1  0.0000000  0.6508444  3
   2130   2134   2146   2148     1  0.0000000  0.6508444  3
   2130   2137   2140   2141     1  0.0000000  0.6508444  3
   2130   2137   2140   2142     1  0.0000000  0.6508444  3
   2131   2130   2134   2135     1  0.0000000  0.6508444  3
   2131   2130   2134   2136     1  0.0000000  0.6508444  3
   2131   2130   2137   2138     1  0.0000000  0.6508444  3
   2131   2130   2137   2139     1  0.0000000  0.6508444  3
   2131   2143   2155   2156     1  0.0000000  0.6508444  3
   2131   2143   2155   2157     1  0.0000000  0.6508444  3
   2132   2131   2130   2134     1  0.0000000  0.6508444  3
   2132   2131   2130   2137     1  0.0000000  0.6508444  3
   2132   2131   2130   2159     1  0.0000000  0.6508444  3
   2132   2131   2143   2155     1  0.0000000  0.6508444  3
   2132   2131   2143   2144     1  0.0000000  0.6508444  3
   2132   2131   2143   2145     1  0.0000000  0.6508444  3
   2133   2131   2130   2134     1  0.0000000  0.6508444  3
   2133   2131   2130   2137     1  0.0000000  0.6508444  3
   2133   2131   2130   2159     1  0.0000000  0.6508444  3
   2133   2131   2143   2155     1  0.0000000  0.6508444  3
   2133   2131   2143   2144     1  0.0000000  0.6508444  3
   2133   2131   2143   2145     1  0.0000000  0.6508444  3
   2134   2130   2137   2138     1  0.0000000  0.6508444  3
   2134   2130   2137   2139     1  0.0000000  0.6508444  3
   2134   2146   2152   2153     1  0.0000000  0.6508444  3
   2134   2146   2152   2154     1  0.0000000  0.6508444  3
   2135   2134   2130   2137     1  0.0000000  0.6508444  3
   2135   2134   2130   2159     1  0.0000000  0.6508444  3
   2135   2134   2146   2152     1  0.0000000  0.6508444  3
   2135   2134   2146   2147     1  0.0000000  0.6508444  3
   2135   2134   2146   2148     1  0.0000000  0.6508444  3
   2136   2134   2130   2137     1  0.0000000  0.6508444  3
   2136   2134   2130   2159     1  0.0000000  0.6508444  3
   2136   2134   2146   2152     1  0.0000000  0.6508444  3
   2136   2134   2146   2147     1  0.0000000  0.6508444  3
   2136   2134   2146   2148     1  0.0000000  0.6508444  3
   2137   2140   2149   2150     1  0.0000000  0.6508444  3
   2137   2140   2149   2151     1  0.0000000  0.6508444  3
   2138   2137   2130   2159     1  0.0000000  0.6508444  3
   2138   2137   2140   2149     1  0.0000000  0.6508444  3
   2138   2137   2140   2141     1  0.0000000  0.6508444  3
   2138   2137   2140   2142     1  0.0000000  0.6508444  3
   2139   2137   2130   2159     1  0.0000000  0.6508444  3
   2139   2137   2140   2149     1  0.0000000  0.6508444  3
   2139   2137   2140   2141     1  0.0000000  0.6508444  3
   2139   2137   2140   2142     1  0.0000000  0.6508444  3
   2140   2137   2130   2159     1  0.0000000  0.6508444  3
   2141   2140   2149   2158     1  0.0000000  1.0460000  1
   2141   2140   2149   2158     1  0.0000000  0.0000000  3
   2141   2140   2149   2150     1  0.0000000  0.6508444  3
   2141   2140   2149   2151     1  0.0000000  0.6508444  3
   2142   2140   2149   2158     1  0.0000000  1.0460000  1
   2142   2140   2149   2158     1  0.0000000  0.0000000  3
   2142   2140   2149   2150     1  0.0000000  0.6508444  3
   2142   2140   2149   2151     1  0.0000000  0.6508444  3
   2143   2131   2130   2159     1  0.0000000  0.6508444  3
   2144   2143   2155   4378     1  0.0000000  1.0460000  1
   2144   2143   2155   4378     1  0.0000000  0.0000000  3
   2144   2143   2155   2156     1  0.0000000  0.6508444  3
   2144   2143   2155   2157     1  0.0000000  0.6508444  3
   2145   2143   2155   4378     1  0.0000000  1.0460000  1
   2145   2143   2155   4378     1  0.0000000  0.0000000  3
   2145   2143   2155   2156     1  0.0000000  0.6508444  3
   2145   2143   2155   2157     1  0.0000000  0.6508444  3
   2146   2134   2130   2159     1  0.0000000  0.6508444  3
   2147   2146   2152   4348     1  0.0000000  1.0460000  1
   2147   2146   2152   4348     1  0.0000000  0.0000000  3
   2147   2146   2152   2153     1  0.0000000  0.6508444  3
   2147   2146   2152   2154     1  0.0000000  0.6508444  3
   2148   2146   2152   4348     1  0.0000000  1.0460000  1
   2148   2146   2152   4348     1  0.0000000  0.0000000  3
   2148   2146   2152   2153     1  0.0000000  0.6508444  3
   2148   2146   2152   2154     1  0.0000000  0.6508444  3
   2152   4348   4339   4340     1  0.0000000  1.6038667  3
   2152   4348   4339   4341     1  0.0000000  1.6038667  3
   2153   2152   4348   4339     1  0.0000000  1.6038667  3
   2154   2152   4348   4339     1  0.0000000  1.6038667  3
   2155   4378   4369   4370     1  0.0000000  1.6038667  3
   2155   4378   4369   4371     1  0.0000000  1.6038667  3
   2156   2155   4378   4369     1  0.0000000  1.6038667  3
   2157   2155   4378   4369     1  0.0000000  1.6038667  3
   2160   2161   2173   2174     1  0.0000000  0.6508444  3
   2160   2161   2173   2175     1  0.0000000  0.6508444  3
   2160   2164   2176   2177     1  0.0000000  0.6508444  3
   2160   2164   2176   2178     1  0.0000000  0.6508444  3
   2160   2167   2170   2171     1  0.0000000  0.6508444  3
   2160   2167   2170   2172     1  0.0000000  0.6508444  3
   2161   2160   2164   2165     1  0.0000000  0.6508444  3
   2161   2160   2164   2166     1  0.0000000  0.6508444  3
   2161   2160   2167   2168     1  0.0000000  0.6508444  3
   2161   2160   2167   2169     1  0.0000000  0.6508444  3
   2161   2173   2185   2186     1  0.0000000  0.6508444  3
   2161   2173   2185   2187     1  0.0000000  0.6508444  3
   2162   2161   2160   2164     1  0.0000000  0.6508444  3
   2162   2161   2160   2167     1  0.0000000  0.6508444  3
   2162   2161   2160   2189     1  0.0000000  0.6508444  3
   2162   2161   2173   2185     1  0.0000000  0.6508444  3
   2162   2161   2173   2174     1  0.0000000  0.6508444  3
   2162   2161   2173   2175     1  0.0000000  0.6508444  3
   2163   2161   2160   2164     1  0.0000000  0.6508444  3
   2163   2161   2160   2167     1  0.0000000  0.6508444  3
   2163   2161   2160   2189     1  0.0000000  0.6508444  3
   2163   2161   2173   2185     1  0.0000000  0.6508444  3
   2163   2161   2173   2174     1  0.0000000  0.6508444  3
   2163   2161   2173   2175     1  0.0000000  0.6508444  3
   2164   2160   2167   2168     1  0.0000000  0.6508444  3
   2164   2160   2167   2169     1  0.0000000  0.6508444  3
   2164   2176   2182   2183     1  0.0000000  0.6508444  3
   2164   2176   2182   2184     1  0.0000000  0.6508444  3
   2165   2164   2160   2167     1  0.0000000  0.6508444  3
   2165   2164   2160   2189     1  0.0000000  0.6508444  3
   2165   2164   2176   2182     1  0.0000000  0.6508444  3
   2165   2164   2176   2177     1  0.0000000  0.6508444  3
   2165   2164   2176   2178     1  0.0000000  0.6508444  3
   2166   2164   2160   2167     1  0.0000000  0.6508444  3
   2166   2164   2160   2189     1  0.0000000  0.6508444  3
   2166   2164   2176   2182     1  0.0000000  0.6508444  3
   2166   2164   2176   2177     1  0.0000000  0.6508444  3
   2166   2164   2176   2178     1  0.0000000  0.6508444  3
   2167   2170   2179   2180     1  0.0000000  0.6508444  3
   2167   2170   2179   2181     1  0.0000000  0.6508444  3
   2168   2167   2160   2189     1  0.0000000  0.6508444  3
   2168   2167   2170   2179     1  0.0000000  0.6508444  3
   2168   2167   2170   2171     1  0.0000000  0.6508444  3
   2168   2167   2170   2172     1  0.0000000  0.6508444  3
   2169   2167   2160   2189     1  0.0000000  0.6508444  3
   2169   2167   2170   2179     1  0.0000000  0.6508444  3
   2169   2167   2170   2171     1  0.0000000  0.6508444  3
   2169   2167   2170   2172     1  0.0000000  0.6508444  3
   2170   2167   2160   2189     1  0.0000000  0.6508444  3
   2171   2170   2179   2188     1  0.0000000  1.0460000  1
   2171   2170   2179   2188     1  0.0000000  0.0000000  3
   2171   2170   2179   2180     1  0.0000000  0.6508444  3
   2171   2170   2179   2181     1  0.0000000  0.6508444  3
   2172   2170   2179   2188     1  0.0000000  1.0460000  1
   2172   2170   2179   2188     1  0.0000000  0.0000000  3
   2172   2170   2179   2180     1  0.0000000  0.6508444  3
   2172   2170   2179   2181     1  0.0000000  0.6508444  3
   2173   2161   2160   2189     1  0.0000000  0.6508444  3
   2174   2173   2185   4438     1  0.0000000  1.0460000  1
   2174   2173   2185   4438     1  0.0000000  0.0000000  3
   2174   2173   2185   2186     1  0.0000000  0.6508444  3
   2174   2173   2185   2187     1  0.0000000  0.6508444  3
   2175   2173   2185   4438     1  0.0000000  1.0460000  1
   2175   2173   2185   4438     1  0.0000000  0.0000000  3
   2175   2173   2185   2186     1  0.0000000  0.6508444  3
   2175   2173   2185   2187     1  0.0000000  0.6508444  3
   2176   2164   2160   2189     1  0.0000000  0.6508444  3
   2177   2176   2182   4408     1  0.0000000  1.0460000  1
   2177   2176   2182   4408     1  0.0000000  0.0000000  3
   2177   2176   2182   2183     1  0.0000000  0.6508444  3
   2177   2176   2182   2184     1  0.0000000  0.6508444  3
   2178   2176   2182   4408     1  0.0000000  1.0460000  1
   2178   2176   2182   4408     1  0.0000000  0.0000000  3
   2178   2176   2182   2183     1  0.0000000  0.6508444  3
   2178   2176   2182   2184     1  0.0000000  0.6508444  3
   2182   4408   4399   4400     1  0.0000000  1.6038667  3
   2182   4408   4399   4401     1  0.0000000  1.6038667  3
   2183   2182   4408   4399     1  0.0000000  1.6038667  3
   2184   2182   4408   4399     1  0.0000000  1.6038667  3
   2185   4438   4429   4430     1  0.0000000  1.6038667  3
   2185   4438   4429   4431     1  0.0000000  1.6038667  3
   2186   2185   4438   4429     1  0.0000000  1.6038667  3
   2187   2185   4438   4429     1  0.0000000  1.6038667  3
   2190   2191   2203   2204     1  0.0000000  0.6508444  3
   2190   2191   2203   2205     1  0.0000000  0.6508444  3
   2190   2194   2206   2207     1  0.0000000  0.6508444  3
   2190   2194   2206   2208     1  0.0000000  0.6508444  3
   2190   2197   2200   2201     1  0.0000000  0.6508444  3
   2190   2197   2200   2202     1  0.0000000  0.6508444  3
   2191   2190   2194   2195     1  0.0000000  0.6508444  3
   2191   2190   2194   2196     1  0.0000000  0.6508444  3
   2191   2190   2197   2198     1  0.0000000  0.6508444  3
   2191   2190   2197   2199     1  0.0000000  0.6508444  3
   2191   2203   2215   2216     1  0.0000000  0.6508444  3
   2191   2203   2215   2217     1  0.0000000  0.6508444  3
   2192   2191   2190   2194     1  0.0000000  0.6508444  3
   2192   2191   2190   2197     1  0.0000000  0.6508444  3
   2192   2191   2190   2219     1  0.0000000  0.6508444  3
   2192   2191   2203   2215     1  0.0000000  0.6508444  3
   2192   2191   2203   2204     1  0.0000000  0.6508444  3
   2192   2191   2203   2205     1  0.0000000  0.6508444  3
   2193   2191   2190   2194     1  0.0000000  0.6508444  3
   2193   2191   2190   2197     1  0.0000000  0.6508444  3
   2193   2191   2190   2219     1  0.0000000  0.6508444  3
   2193   2191   2203   2215     1  0.0000000  0.6508444  3
   2193   2191   2203   2204     1  0.0000000  0.6508444  3
   2193   2191   2203   2205     1  0.0000000  0.6508444  3
   2194   2190   2197   2198     1  0.0000000  0.6508444  3
   2194   2190   2197   2199     1  0.0000000  0.6508444  3
   2194   2206   2212   2213     1  0.0000000  0.6508444  3
   2194   2206   2212   2214     1  0.0000000  0.6508444  3
   2195   2194   2190   2197     1  0.0000000  0.6508444  3
   2195   2194   2190   2219     1  0.0000000  0.6508444  3
   2195   2194   2206   2212     1  0.0000000  0.6508444  3
   2195   2194   2206   2207     1  0.0000000  0.6508444  3
   2195   2194   2206   2208     1  0.0000000  0.6508444  3
   2196   2194   2190   2197     1  0.0000000  0.6508444  3
   2196   2194   2190   2219     1  0.0000000  0.6508444  3
   2196   2194   2206   2212     1  0.0000000  0.6508444  3
   2196   2194   2206   2207     1  0.0000000  0.6508444  3
   2196   2194   2206   2208     1  0.0000000  0.6508444  3
   2197   2200   2209   2210     1  0.0000000  0.6508444  3
   2197   2200   2209   2211     1  0.0000000  0.6508444  3
   2198   2197   2190   2219     1  0.0000000  0.6508444  3
   2198   2197   2200   2209     1  0.0000000  0.6508444  3
   2198   2197   2200   2201     1  0.0000000  0.6508444  3
   2198   2197   2200   2202     1  0.0000000  0.6508444  3
   2199   2197   2190   2219     1  0.0000000  0.6508444  3
   2199   2197   2200   2209     1  0.0000000  0.6508444  3
   2199   2197   2200   2201     1  0.0000000  0.6508444  3
   2199   2197   2200   2202     1  0.0000000  0.6508444  3
   2200   2197   2190   2219     1  0.0000000  0.6508444  3
   2201   2200   2209   2218     1  0.0000000  1.0460000  1
   2201   2200   2209   2218     1  0.0000000  0.0000000  3
   2201   2200   2209   2210     1  0.0000000  0.6508444  3
   2201   2200   2209   2211     1  0.0000000  0.6508444  3
   2202   2200   2209   2218     1  0.0000000  1.0460000  1
   2202   2200   2209   2218     1  0.0000000  0.0000000  3
   2202   2200   2209   2210     1  0.0000000  0.6508444  3
   2202   2200   2209   2211     1  0.0000000  0.6508444  3
   2203   2191   2190   2219     1  0.0000000  0.6508444  3
   2204   2203   2215   4498     1  0.0000000  1.0460000  1
   2204   2203   2215   4498     1  0.0000000  0.0000000  3
   2204   2203   2215   2216     1  0.0000000  0.6508444  3
   2204   2203   2215   2217     1  0.0000000  0.6508444  3
   2205   2203   2215   4498     1  0.0000000  1.0460000  1
   2205   2203   2215   4498     1  0.0000000  0.0000000  3
   2205   2203   2215   2216     1  0.0000000  0.6508444  3
   2205   2203   2215   2217     1  0.0000000  0.6508444  3
   2206   2194   2190   2219     1  0.0000000  0.6508444  3
   2207   2206   2212   4468     1  0.0000000  1.0460000  1
   2207   2206   2212   4468     1  0.0000000  0.0000000  3
   2207   2206   2212   2213     1  0.0000000  0.6508444  3
   2207   2206   2212   2214     1  0.0000000  0.6508444  3
   2208   2206   2212   4468     1  0.0000000  1.0460000  1
   2208   2206   2212   4468     1  0.0000000  0.0000000  3
   2208   2206   2212   2213     1  0.0000000  0.6508444  3
   2208   2206   2212   2214     1  0.0000000  0.6508444  3
   2212   4468   4459   4460     1  0.0000000  1.6038667  3
   2212   4468   4459   4461     1  0.0000000  1.6038667  3
   2213   2212   4468   4459     1  0.0000000  1.6038667  3
   2214   2212   4468   4459     1  0.0000000  1.6038667  3
   2215   4498   4489   4490     1  0.0000000  1.6038667  3
   2215   4498   4489   4491     1  0.0000000  1.6038667  3
   2216   2215   4498   4489     1  0.0000000  1.6038667  3
   2217   2215   4498   4489     1  0.0000000  1.6038667  3
   2220   2221   2233   2234     1  0.0000000  0.6508444  3
   2220   2221   2233   2235     1  0.0000000  0.6508444  3
   2220   2224   2236   2237     1  0.0000000  0.6508444  3
   2220   2224   2236   2238     1  0.0000000  0.6508444  3
   2220   2227   2230   2231     1  0.0000000  0.6508444  3
   2220   2227   2230   2232     1  0.0000000  0.6508444  3
   2221   2220   2224   2225     1  0.0000000  0.6508444  3
   2221   2220   2224   2226     1  0.0000000  0.6508444  3
   2221   2220   2227   2228     1  0.0000000  0.6508444  3
   2221   2220   2227   2229     1  0.0000000  0.6508444  3
   2221   2233   2245   2246     1  0.0000000  0.6508444  3
   2221   2233   2245   2247     1  0.0000000  0.6508444  3
   2222   2221   2220   2224     1  0.0000000  0.6508444  3
   2222   2221   2220   2227     1  0.0000000  0.6508444  3
   2222   2221   2220   2249     1  0.0000000  0.6508444  3
   2222   2221   2233   2245     1  0.0000000  0.6508444  3
   2222   2221   2233   2234     1  0.0000000  0.6508444  3
   2222   2221   2233   2235     1  0.0000000  0.6508444  3
   2223   2221   2220   2224     1  0.0000000  0.6508444  3
   2223   2221   2220   2227     1  0.0000000  0.6508444  3
   2223   2221   2220   2249     1  0.0000000  0.6508444  3
   2223   2221   2233   2245     1  0.0000000  0.6508444  3
   2223   2221   2233   2234     1  0.0000000  0.6508444  3
   2223   2221   2233   2235     1  0.0000000  0.6508444  3
   2224   2220   2227   2228     1  0.0000000  0.6508444  3
   2224   2220   2227   2229     1  0.0000000  0.6508444  3
   2224   2236   2242   2243     1  0.0000000  0.6508444  3
   2224   2236   2242   2244     1  0.0000000  0.6508444  3
   2225   2224   2220   2227     1  0.0000000  0.6508444  3
   2225   2224   2220   2249     1  0.0000000  0.6508444  3
   2225   2224   2236   2242     1  0.0000000  0.6508444  3
   2225   2224   2236   2237     1  0.0000000  0.6508444  3
   2225   2224   2236   2238     1  0.0000000  0.6508444  3
   2226   2224   2220   2227     1  0.0000000  0.6508444  3
   2226   2224   2220   2249     1  0.0000000  0.6508444  3
   2226   2224   2236   2242     1  0.0000000  0.6508444  3
   2226   2224   2236   2237     1  0.0000000  0.6508444  3
   2226   2224   2236   2238     1  0.0000000  0.6508444  3
   2227   2230   2239   2240     1  0.0000000  0.6508444  3
   2227   2230   2239   2241     1  0.0000000  0.6508444  3
   2228   2227   2220   2249     1  0.0000000  0.6508444  3
   2228   2227   2230   2239     1  0.0000000  0.6508444  3
   2228   2227   2230   2231     1  0.0000000  0.6508444  3
   2228   2227   2230   2232     1  0.0000000  0.6508444  3
   2229   2227   2220   2249     1  0.0000000  0.6508444  3
   2229   2227   2230   2239     1  0.0000000  0.6508444  3
   2229   2227   2230   2231     1  0.0000000  0.6508444  3
   2229   2227   2230   2232     1  0.0000000  0.6508444  3
   2230   2227   2220   2249     1  0.0000000  0.6508444  3
   2231   2230   2239   2248     1  0.0000000  1.0460000  1
   2231   2230   2239   2248     1  0.0000000  0.0000000  3
   2231   2230   2239   2240     1  0.0000000  0.6508444  3
   2231   2230   2239   2241     1  0.0000000  0.6508444  3
   2232   2230   2239   2248     1  0.0000000  1.0460000  1
   2232   2230   2239   2248     1  0.0000000  0.0000000  3
   2232   2230   2239   2240     1  0.0000000  0.6508444  3
   2232   2230   2239   2241     1  0.0000000  0.6508444  3
   2233   2221   2220   2249     1  0.0000000  0.6508444  3
   2234   2233   2245   4558     1  0.0000000  1.0460000  1
   2234   2233   2245   4558     1  0.0000000  0.0000000  3
   2234   2233   2245   2246     1  0.0000000  0.6508444  3
   2234   2233   2245   2247     1  0.0000000  0.6508444  3
   2235   2233   2245   4558     1  0.0000000  1.0460000  1
   2235   2233   2245   4558     1  0.0000000  0.0000000  3
   2235   2233   2245   2246     1  0.0000000  0.6508444  3
   2235   2233   2245   2247     1  0.0000000  0.6508444  3
   2236   2224   2220   2249     1  0.0000000  0.6508444  3
   2237   2236   2242   4528     1  0.0000000  1.0460000  1
   2237   2236   2242   4528     1  0.0000000  0.0000000  3
   2237   2236   2242   2243     1  0.0000000  0.6508444  3
   2237   2236   2242   2244     1  0.0000000  0.6508444  3
   2238   2236   2242   4528     1  0.0000000  1.0460000  1
   2238   2236   2242   4528     1  0.0000000  0.0000000  3
   2238   2236   2242   2243     1  0.0000000  0.6508444  3
   2238   2236   2242   2244     1  0.0000000  0.6508444  3
   2242   4528   4519   4520     1  0.0000000  1.6038667  3
   2242   4528   4519   4521     1  0.0000000  1.6038667  3
   2243   2242   4528   4519     1  0.0000000  1.6038667  3
   2244   2242   4528   4519     1  0.0000000  1.6038667  3
   2245   4558   4549   4550     1  0.0000000  1.6038667  3
   2245   4558   4549   4551     1  0.0000000  1.6038667  3
   2246   2245   4558   4549     1  0.0000000  1.6038667  3
   2247   2245   4558   4549     1  0.0000000  1.6038667  3
   2250   2251   2263   2264     1  0.0000000  0.6508444  3
   2250   2251   2263   2265     1  0.0000000  0.6508444  3
   2250   2254   2266   2267     1  0.0000000  0.6508444  3
   2250   2254   2266   2268     1  0.0000000  0.6508444  3
   2250   2257   2260   2261     1  0.0000000  0.6508444  3
   2250   2257   2260   2262     1  0.0000000  0.6508444  3
   2251   2250   2254   2255     1  0.0000000  0.6508444  3
   2251   2250   2254   2256     1  0.0000000  0.6508444  3
   2251   2250   2257   2258     1  0.0000000  0.6508444  3
   2251   2250   2257   2259     1  0.0000000  0.6508444  3
   2251   2263   2275   2276     1  0.0000000  0.6508444  3
   2251   2263   2275   2277     1  0.0000000  0.6508444  3
   2252   2251   2250   2254     1  0.0000000  0.6508444  3
   2252   2251   2250   2257     1  0.0000000  0.6508444  3
   2252   2251   2250   2279     1  0.0000000  0.6508444  3
   2252   2251   2263   2275     1  0.0000000  0.6508444  3
   2252   2251   2263   2264     1  0.0000000  0.6508444  3
   2252   2251   2263   2265     1  0.0000000  0.6508444  3
   2253   2251   2250   2254     1  0.0000000  0.6508444  3
   2253   2251   2250   2257     1  0.0000000  0.6508444  3
   2253   2251   2250   2279     1  0.0000000  0.6508444  3
   2253   2251   2263   2275     1  0.0000000  0.6508444  3
   2253   2251   2263   2264     1  0.0000000  0.6508444  3
   2253   2251   2263   2265     1  0.0000000  0.6508444  3
   2254   2250   2257   2258     1  0.0000000  0.6508444  3
   2254   2250   2257   2259     1  0.0000000  0.6508444  3
   2254   2266   2272   2273     1  0.0000000  0.6508444  3
   2254   2266   2272   2274     1  0.0000000  0.6508444  3
   2255   2254   2250   2257     1  0.0000000  0.6508444  3
   2255   2254   2250   2279     1  0.0000000  0.6508444  3
   2255   2254   2266   2272     1  0.0000000  0.6508444  3
   2255   2254   2266   2267     1  0.0000000  0.6508444  3
   2255   2254   2266   2268     1  0.0000000  0.6508444  3
   2256   2254   2250   2257     1  0.0000000  0.6508444  3
   2256   2254   2250   2279     1  0.0000000  0.6508444  3
   2256   2254   2266   2272     1  0.0000000  0.6508444  3
   2256   2254   2266   2267     1  0.0000000  0.6508444  3
   2256   2254   2266   2268     1  0.0000000  0.6508444  3
   2257   2260   2269   2270     1  0.0000000  0.6508444  3
   2257   2260   2269   2271     1  0.0000000  0.6508444  3
   2258   2257   2250   2279     1  0.0000000  0.6508444  3
   2258   2257   2260   2269     1  0.0000000  0.6508444  3
   2258   2257   2260   2261     1  0.0000000  0.6508444  3
   2258   2257   2260   2262     1  0.0000000  0.6508444  3
   2259   2257   2250   2279     1  0.0000000  0.6508444  3
   2259   2257   2260   2269     1  0.0000000  0.6508444  3
   2259   2257   2260   2261     1  0.0000000  0.6508444  3
   2259   2257   2260   2262     1  0.0000000  0.6508444  3
   2260   2257   2250   2279     1  0.0000000  0.6508444  3
   2261   2260   2269   2278     1  0.0000000  1.0460000  1
   2261   2260   2269   2278     1  0.0000000  0.0000000  3
   2261   2260   2269   2270     1  0.0000000  0.6508444  3
   2261   2260   2269   2271     1  0.0000000  0.6508444  3
   2262   2260   2269   2278     1  0.0000000  1.0460000  1
   2262   2260   2269   2278     1  0.0000000  0.0000000  3
   2262   2260   2269   2270     1  0.0000000  0.6508444  3
   2262   2260   2269   2271     1  0.0000000  0.6508444  3
   2263   2251   2250   2279     1  0.0000000  0.6508444  3
   2264   2263   2275   4618     1  0.0000000  1.0460000  1
   2264   2263   2275   4618     1  0.0000000  0.0000000  3
   2264   2263   2275   2276     1  0.0000000  0.6508444  3
   2264   2263   2275   2277     1  0.0000000  0.6508444  3
   2265   2263   2275   4618     1  0.0000000  1.0460000  1
   2265   2263   2275   4618     1  0.0000000  0.0000000  3
   2265   2263   2275   2276     1  0.0000000  0.6508444  3
   2265   2263   2275   2277     1  0.0000000  0.6508444  3
   2266   2254   2250   2279     1  0.0000000  0.6508444  3
   2267   2266   2272   4588     1  0.0000000  1.0460000  1
   2267   2266   2272   4588     1  0.0000000  0.0000000  3
   2267   2266   2272   2273     1  0.0000000  0.6508444  3
   2267   2266   2272   2274     1  0.0000000  0.6508444  3
   2268   2266   2272   4588     1  0.0000000  1.0460000  1
   2268   2266   2272   4588     1  0.0000000  0.0000000  3
   2268   2266   2272   2273     1  0.0000000  0.6508444  3
   2268   2266   2272   2274     1  0.0000000  0.6508444  3
   2272   4588   4579   4580     1  0.0000000  1.6038667  3
   2272   4588   4579   4581     1  0.0000000  1.6038667  3
   2273   2272   4588   4579     1  0.0000000  1.6038667  3
   2274   2272   4588   4579     1  0.0000000  1.6038667  3
   2275   4618   4609   4610     1  0.0000000  1.6038667  3
   2275   4618   4609   4611     1  0.0000000  1.6038667  3
   2276   2275   4618   4609     1  0.0000000  1.6038667  3
   2277   2275   4618   4609     1  0.0000000  1.6038667  3
   2280   2281   2293   2294     1  0.0000000  0.6508444  3
   2280   2281   2293   2295     1  0.0000000  0.6508444  3
   2280   2284   2296   2297     1  0.0000000  0.6508444  3
   2280   2284   2296   2298     1  0.0000000  0.6508444  3
   2280   2287   2290   2291     1  0.0000000  0.6508444  3
   2280   2287   2290   2292     1  0.0000000  0.6508444  3
   2281   2280   2284   2285     1  0.0000000  0.6508444  3
   2281   2280   2284   2286     1  0.0000000  0.6508444  3
   2281   2280   2287   2288     1  0.0000000  0.6508444  3
   2281   2280   2287   2289     1  0.0000000  0.6508444  3
   2281   2293   2305   2306     1  0.0000000  0.6508444  3
   2281   2293   2305   2307     1  0.0000000  0.6508444  3
   2282   2281   2280   2284     1  0.0000000  0.6508444  3
   2282   2281   2280   2287     1  0.0000000  0.6508444  3
   2282   2281   2280   2309     1  0.0000000  0.6508444  3
   2282   2281   2293   2305     1  0.0000000  0.6508444  3
   2282   2281   2293   2294     1  0.0000000  0.6508444  3
   2282   2281   2293   2295     1  0.0000000  0.6508444  3
   2283   2281   2280   2284     1  0.0000000  0.6508444  3
   2283   2281   2280   2287     1  0.0000000  0.6508444  3
   2283   2281   2280   2309     1  0.0000000  0.6508444  3
   2283   2281   2293   2305     1  0.0000000  0.6508444  3
   2283   2281   2293   2294     1  0.0000000  0.6508444  3
   2283   2281   2293   2295     1  0.0000000  0.6508444  3
   2284   2280   2287   2288     1  0.0000000  0.6508444  3
   2284   2280   2287   2289     1  0.0000000  0.6508444  3
   2284   2296   2302   2303     1  0.0000000  0.6508444  3
   2284   2296   2302   2304     1  0.0000000  0.6508444  3
   2285   2284   2280   2287     1  0.0000000  0.6508444  3
   2285   2284   2280   2309     1  0.0000000  0.6508444  3
   2285   2284   2296   2302     1  0.0000000  0.6508444  3
   2285   2284   2296   2297     1  0.0000000  0.6508444  3
   2285   2284   2296   2298     1  0.0000000  0.6508444  3
   2286   2284   2280   2287     1  0.0000000  0.6508444  3
   2286   2284   2280   2309     1  0.0000000  0.6508444  3
   2286   2284   2296   2302     1  0.0000000  0.6508444  3
   2286   2284   2296   2297     1  0.0000000  0.6508444  3
   2286   2284   2296   2298     1  0.0000000  0.6508444  3
   2287   2290   2299   2300     1  0.0000000  0.6508444  3
   2287   2290   2299   2301     1  0.0000000  0.6508444  3
   2288   2287   2280   2309     1  0.0000000  0.6508444  3
   2288   2287   2290   2299     1  0.0000000  0.6508444  3
   2288   2287   2290   2291     1  0.0000000  0.6508444  3
   2288   2287   2290   2292     1  0.0000000  0.6508444  3
   2289   2287   2280   2309     1  0.0000000  0.6508444  3
   2289   2287   2290   2299     1  0.0000000  0.6508444  3
   2289   2287   2290   2291     1  0.0000000  0.6508444  3
   2289   2287   2290   2292     1  0.0000000  0.6508444  3
   2290   2287   2280   2309     1  0.0000000  0.6508444  3
   2291   2290   2299   2308     1  0.0000000  1.0460000  1
   2291   2290   2299   2308     1  0.0000000  0.0000000  3
   2291   2290   2299   2300     1  0.0000000  0.6508444  3
   2291   2290   2299   2301     1  0.0000000  0.6508444  3
   2292   2290   2299   2308     1  0.0000000  1.0460000  1
   2292   2290   2299   2308     1  0.0000000  0.0000000  3
   2292   2290   2299   2300     1  0.0000000  0.6508444  3
   2292   2290   2299   2301     1  0.0000000  0.6508444  3
   2293   2281   2280   2309     1  0.0000000  0.6508444  3
   2294   2293   2305   4678     1  0.0000000  1.0460000  1
   2294   2293   2305   4678     1  0.0000000  0.0000000  3
   2294   2293   2305   2306     1  0.0000000  0.6508444  3
   2294   2293   2305   2307     1  0.0000000  0.6508444  3
   2295   2293   2305   4678     1  0.0000000  1.0460000  1
   2295   2293   2305   4678     1  0.0000000  0.0000000  3
   2295   2293   2305   2306     1  0.0000000  0.6508444  3
   2295   2293   2305   2307     1  0.0000000  0.6508444  3
   2296   2284   2280   2309     1  0.0000000  0.6508444  3
   2297   2296   2302   4648     1  0.0000000  1.0460000  1
   2297   2296   2302   4648     1  0.0000000  0.0000000  3
   2297   2296   2302   2303     1  0.0000000  0.6508444  3
   2297   2296   2302   2304     1  0.0000000  0.6508444  3
   2298   2296   2302   4648     1  0.0000000  1.0460000  1
   2298   2296   2302   4648     1  0.0000000  0.0000000  3
   2298   2296   2302   2303     1  0.0000000  0.6508444  3
   2298   2296   2302   2304     1  0.0000000  0.6508444  3
   2302   4648   4639   4640     1  0.0000000  1.6038667  3
   2302   4648   4639   4641     1  0.0000000  1.6038667  3
   2303   2302   4648   4639     1  0.0000000  1.6038667  3
   2304   2302   4648   4639     1  0.0000000  1.6038667  3
   2305   4678   4669   4670     1  0.0000000  1.6038667  3
   2305   4678   4669   4671     1  0.0000000  1.6038667  3
   2306   2305   4678   4669     1  0.0000000  1.6038667  3
   2307   2305   4678   4669     1  0.0000000  1.6038667  3
   2310   2311   2323   2324     1  0.0000000  0.6508444  3
   2310   2311   2323   2325     1  0.0000000  0.6508444  3
   2310   2314   2326   2327     1  0.0000000  0.6508444  3
   2310   2314   2326   2328     1  0.0000000  0.6508444  3
   2310   2317   2320   2321     1  0.0000000  0.6508444  3
   2310   2317   2320   2322     1  0.0000000  0.6508444  3
   2311   2310   2314   2315     1  0.0000000  0.6508444  3
   2311   2310   2314   2316     1  0.0000000  0.6508444  3
   2311   2310   2317   2318     1  0.0000000  0.6508444  3
   2311   2310   2317   2319     1  0.0000000  0.6508444  3
   2311   2323   2335   2336     1  0.0000000  0.6508444  3
   2311   2323   2335   2337     1  0.0000000  0.6508444  3
   2312   2311   2310   2314     1  0.0000000  0.6508444  3
   2312   2311   2310   2317     1  0.0000000  0.6508444  3
   2312   2311   2310   2339     1  0.0000000  0.6508444  3
   2312   2311   2323   2335     1  0.0000000  0.6508444  3
   2312   2311   2323   2324     1  0.0000000  0.6508444  3
   2312   2311   2323   2325     1  0.0000000  0.6508444  3
   2313   2311   2310   2314     1  0.0000000  0.6508444  3
   2313   2311   2310   2317     1  0.0000000  0.6508444  3
   2313   2311   2310   2339     1  0.0000000  0.6508444  3
   2313   2311   2323   2335     1  0.0000000  0.6508444  3
   2313   2311   2323   2324     1  0.0000000  0.6508444  3
   2313   2311   2323   2325     1  0.0000000  0.6508444  3
   2314   2310   2317   2318     1  0.0000000  0.6508444  3
   2314   2310   2317   2319     1  0.0000000  0.6508444  3
   2314   2326   2332   2333     1  0.0000000  0.6508444  3
   2314   2326   2332   2334     1  0.0000000  0.6508444  3
   2315   2314   2310   2317     1  0.0000000  0.6508444  3
   2315   2314   2310   2339     1  0.0000000  0.6508444  3
   2315   2314   2326   2332     1  0.0000000  0.6508444  3
   2315   2314   2326   2327     1  0.0000000  0.6508444  3
   2315   2314   2326   2328     1  0.0000000  0.6508444  3
   2316   2314   2310   2317     1  0.0000000  0.6508444  3
   2316   2314   2310   2339     1  0.0000000  0.6508444  3
   2316   2314   2326   2332     1  0.0000000  0.6508444  3
   2316   2314   2326   2327     1  0.0000000  0.6508444  3
   2316   2314   2326   2328     1  0.0000000  0.6508444  3
   2317   2320   2329   2330     1  0.0000000  0.6508444  3
   2317   2320   2329   2331     1  0.0000000  0.6508444  3
   2318   2317   2310   2339     1  0.0000000  0.6508444  3
   2318   2317   2320   2329     1  0.0000000  0.6508444  3
   2318   2317   2320   2321     1  0.0000000  0.6508444  3
   2318   2317   2320   2322     1  0.0000000  0.6508444  3
   2319   2317   2310   2339     1  0.0000000  0.6508444  3
   2319   2317   2320   2329     1  0.0000000  0.6508444  3
   2319   2317   2320   2321     1  0.0000000  0.6508444  3
   2319   2317   2320   2322     1  0.0000000  0.6508444  3
   2320   2317   2310   2339     1  0.0000000  0.6508444  3
   2321   2320   2329   2338     1  0.0000000  1.0460000  1
   2321   2320   2329   2338     1  0.0000000  0.0000000  3
   2321   2320   2329   2330     1  0.0000000  0.6508444  3
   2321   2320   2329   2331     1  0.0000000  0.6508444  3
   2322   2320   2329   2338     1  0.0000000  1.0460000  1
   2322   2320   2329   2338     1  0.0000000  0.0000000  3
   2322   2320   2329   2330     1  0.0000000  0.6508444  3
   2322   2320   2329   2331     1  0.0000000  0.6508444  3
   2323   2311   2310   2339     1  0.0000000  0.6508444  3
   2324   2323   2335   4738     1  0.0000000  1.0460000  1
   2324   2323   2335   4738     1  0.0000000  0.0000000  3
   2324   2323   2335   2336     1  0.0000000  0.6508444  3
   2324   2323   2335   2337     1  0.0000000  0.6508444  3
   2325   2323   2335   4738     1  0.0000000  1.0460000  1
   2325   2323   2335   4738     1  0.0000000  0.0000000  3
   2325   2323   2335   2336     1  0.0000000  0.6508444  3
   2325   2323   2335   2337     1  0.0000000  0.6508444  3
   2326   2314   2310   2339     1  0.0000000  0.6508444  3
   2327   2326   2332   4708     1  0.0000000  1.0460000  1
   2327   2326   2332   4708     1  0.0000000  0.0000000  3
   2327   2326   2332   2333     1  0.0000000  0.6508444  3
   2327   2326   2332   2334     1  0.0000000  0.6508444  3
   2328   2326   2332   4708     1  0.0000000  1.0460000  1
   2328   2326   2332   4708     1  0.0000000  0.0000000  3
   2328   2326   2332   2333     1  0.0000000  0.6508444  3
   2328   2326   2332   2334     1  0.0000000  0.6508444  3
   2332   4708   4699   4700     1  0.0000000  1.6038667  3
   2332   4708   4699   4701     1  0.0000000  1.6038667  3
   2333   2332   4708   4699     1  0.0000000  1.6038667  3
   2334   2332   4708   4699     1  0.0000000  1.6038667  3
   2335   4738   4729   4730     1  0.0000000  1.6038667  3
   2335   4738   4729   4731     1  0.0000000  1.6038667  3
   2336   2335   4738   4729     1  0.0000000  1.6038667  3
   2337   2335   4738   4729     1  0.0000000  1.6038667  3
   2340   2341   2353   2354     1  0.0000000  0.6508444  3
   2340   2341   2353   2355     1  0.0000000  0.6508444  3
   2340   2344   2356   2357     1  0.0000000  0.6508444  3
   2340   2344   2356   2358     1  0.0000000  0.6508444  3
   2340   2347   2350   2351     1  0.0000000  0.6508444  3
   2340   2347   2350   2352     1  0.0000000  0.6508444  3
   2341   2340   2344   2345     1  0.0000000  0.6508444  3
   2341   2340   2344   2346     1  0.0000000  0.6508444  3
   2341   2340   2347   2348     1  0.0000000  0.6508444  3
   2341   2340   2347   2349     1  0.0000000  0.6508444  3
   2341   2353   2365   2366     1  0.0000000  0.6508444  3
   2341   2353   2365   2367     1  0.0000000  0.6508444  3
   2342   2341   2340   2344     1  0.0000000  0.6508444  3
   2342   2341   2340   2347     1  0.0000000  0.6508444  3
   2342   2341   2340   2369     1  0.0000000  0.6508444  3
   2342   2341   2353   2365     1  0.0000000  0.6508444  3
   2342   2341   2353   2354     1  0.0000000  0.6508444  3
   2342   2341   2353   2355     1  0.0000000  0.6508444  3
   2343   2341   2340   2344     1  0.0000000  0.6508444  3
   2343   2341   2340   2347     1  0.0000000  0.6508444  3
   2343   2341   2340   2369     1  0.0000000  0.6508444  3
   2343   2341   2353   2365     1  0.0000000  0.6508444  3
   2343   2341   2353   2354     1  0.0000000  0.6508444  3
   2343   2341   2353   2355     1  0.0000000  0.6508444  3
   2344   2340   2347   2348     1  0.0000000  0.6508444  3
   2344   2340   2347   2349     1  0.0000000  0.6508444  3
   2344   2356   2362   2363     1  0.0000000  0.6508444  3
   2344   2356   2362   2364     1  0.0000000  0.6508444  3
   2345   2344   2340   2347     1  0.0000000  0.6508444  3
   2345   2344   2340   2369     1  0.0000000  0.6508444  3
   2345   2344   2356   2362     1  0.0000000  0.6508444  3
   2345   2344   2356   2357     1  0.0000000  0.6508444  3
   2345   2344   2356   2358     1  0.0000000  0.6508444  3
   2346   2344   2340   2347     1  0.0000000  0.6508444  3
   2346   2344   2340   2369     1  0.0000000  0.6508444  3
   2346   2344   2356   2362     1  0.0000000  0.6508444  3
   2346   2344   2356   2357     1  0.0000000  0.6508444  3
   2346   2344   2356   2358     1  0.0000000  0.6508444  3
   2347   2350   2359   2360     1  0.0000000  0.6508444  3
   2347   2350   2359   2361     1  0.0000000  0.6508444  3
   2348   2347   2340   2369     1  0.0000000  0.6508444  3
   2348   2347   2350   2359     1  0.0000000  0.6508444  3
   2348   2347   2350   2351     1  0.0000000  0.6508444  3
   2348   2347   2350   2352     1  0.0000000  0.6508444  3
   2349   2347   2340   2369     1  0.0000000  0.6508444  3
   2349   2347   2350   2359     1  0.0000000  0.6508444  3
   2349   2347   2350   2351     1  0.0000000  0.6508444  3
   2349   2347   2350   2352     1  0.0000000  0.6508444  3
   2350   2347   2340   2369     1  0.0000000  0.6508444  3
   2351   2350   2359   2368     1  0.0000000  1.0460000  1
   2351   2350   2359   2368     1  0.0000000  0.0000000  3
   2351   2350   2359   2360     1  0.0000000  0.6508444  3
   2351   2350   2359   2361     1  0.0000000  0.6508444  3
   2352   2350   2359   2368     1  0.0000000  1.0460000  1
   2352   2350   2359   2368     1  0.0000000  0.0000000  3
   2352   2350   2359   2360     1  0.0000000  0.6508444  3
   2352   2350   2359   2361     1  0.0000000  0.6508444  3
   2353   2341   2340   2369     1  0.0000000  0.6508444  3
   2354   2353   2365   4798     1  0.0000000  1.0460000  1
   2354   2353   2365   4798     1  0.0000000  0.0000000  3
   2354   2353   2365   2366     1  0.0000000  0.6508444  3
   2354   2353   2365   2367     1  0.0000000  0.6508444  3
   2355   2353   2365   4798     1  0.0000000  1.0460000  1
   2355   2353   2365   4798     1  0.0000000  0.0000000  3
   2355   2353   2365   2366     1  0.0000000  0.6508444  3
   2355   2353   2365   2367     1  0.0000000  0.6508444  3
   2356   2344   2340   2369     1  0.0000000  0.6508444  3
   2357   2356   2362   4768     1  0.0000000  1.0460000  1
   2357   2356   2362   4768     1  0.0000000  0.0000000  3
   2357   2356   2362   2363     1  0.0000000  0.6508444  3
   2357   2356   2362   2364     1  0.0000000  0.6508444  3
   2358   2356   2362   4768     1  0.0000000  1.0460000  1
   2358   2356   2362   4768     1  0.0000000  0.0000000  3
   2358   2356   2362   2363     1  0.0000000  0.6508444  3
   2358   2356   2362   2364     1  0.0000000  0.6508444  3
   2362   4768   4759   4760     1  0.0000000  1.6038667  3
   2362   4768   4759   4761     1  0.0000000  1.6038667  3
   2363   2362   4768   4759     1  0.0000000  1.6038667  3
   2364   2362   4768   4759     1  0.0000000  1.6038667  3
   2365   4798   4789   4790     1  0.0000000  1.6038667  3
   2365   4798   4789   4791     1  0.0000000  1.6038667  3
   2366   2365   4798   4789     1  0.0000000  1.6038667  3
   2367   2365   4798   4789     1  0.0000000  1.6038667  3
   2370   2371   2383   2384     1  0.0000000  0.6508444  3
   2370   2371   2383   2385     1  0.0000000  0.6508444  3
   2370   2374   2386   2387     1  0.0000000  0.6508444  3
   2370   2374   2386   2388     1  0.0000000  0.6508444  3
   2370   2377   2380   2381     1  0.0000000  0.6508444  3
   2370   2377   2380   2382     1  0.0000000  0.6508444  3
   2371   2370   2374   2375     1  0.0000000  0.6508444  3
   2371   2370   2374   2376     1  0.0000000  0.6508444  3
   2371   2370   2377   2378     1  0.0000000  0.6508444  3
   2371   2370   2377   2379     1  0.0000000  0.6508444  3
   2371   2383   2395   2396     1  0.0000000  0.6508444  3
   2371   2383   2395   2397     1  0.0000000  0.6508444  3
   2372   2371   2370   2374     1  0.0000000  0.6508444  3
   2372   2371   2370   2377     1  0.0000000  0.6508444  3
   2372   2371   2370   2399     1  0.0000000  0.6508444  3
   2372   2371   2383   2395     1  0.0000000  0.6508444  3
   2372   2371   2383   2384     1  0.0000000  0.6508444  3
   2372   2371   2383   2385     1  0.0000000  0.6508444  3
   2373   2371   2370   2374     1  0.0000000  0.6508444  3
   2373   2371   2370   2377     1  0.0000000  0.6508444  3
   2373   2371   2370   2399     1  0.0000000  0.6508444  3
   2373   2371   2383   2395     1  0.0000000  0.6508444  3
   2373   2371   2383   2384     1  0.0000000  0.6508444  3
   2373   2371   2383   2385     1  0.0000000  0.6508444  3
   2374   2370   2377   2378     1  0.0000000  0.6508444  3
   2374   2370   2377   2379     1  0.0000000  0.6508444  3
   2374   2386   2392   2393     1  0.0000000  0.6508444  3
   2374   2386   2392   2394     1  0.0000000  0.6508444  3
   2375   2374   2370   2377     1  0.0000000  0.6508444  3
   2375   2374   2370   2399     1  0.0000000  0.6508444  3
   2375   2374   2386   2392     1  0.0000000  0.6508444  3
   2375   2374   2386   2387     1  0.0000000  0.6508444  3
   2375   2374   2386   2388     1  0.0000000  0.6508444  3
   2376   2374   2370   2377     1  0.0000000  0.6508444  3
   2376   2374   2370   2399     1  0.0000000  0.6508444  3
   2376   2374   2386   2392     1  0.0000000  0.6508444  3
   2376   2374   2386   2387     1  0.0000000  0.6508444  3
   2376   2374   2386   2388     1  0.0000000  0.6508444  3
   2377   2380   2389   2390     1  0.0000000  0.6508444  3
   2377   2380   2389   2391     1  0.0000000  0.6508444  3
   2378   2377   2370   2399     1  0.0000000  0.6508444  3
   2378   2377   2380   2389     1  0.0000000  0.6508444  3
   2378   2377   2380   2381     1  0.0000000  0.6508444  3
   2378   2377   2380   2382     1  0.0000000  0.6508444  3
   2379   2377   2370   2399     1  0.0000000  0.6508444  3
   2379   2377   2380   2389     1  0.0000000  0.6508444  3
   2379   2377   2380   2381     1  0.0000000  0.6508444  3
   2379   2377   2380   2382     1  0.0000000  0.6508444  3
   2380   2377   2370   2399     1  0.0000000  0.6508444  3
   2381   2380   2389   2398     1  0.0000000  1.0460000  1
   2381   2380   2389   2398     1  0.0000000  0.0000000  3
   2381   2380   2389   2390     1  0.0000000  0.6508444  3
   2381   2380   2389   2391     1  0.0000000  0.6508444  3
   2382   2380   2389   2398     1  0.0000000  1.0460000  1
   2382   2380   2389   2398     1  0.0000000  0.0000000  3
   2382   2380   2389   2390     1  0.0000000  0.6508444  3
   2382   2380   2389   2391     1  0.0000000  0.6508444  3
   2383   2371   2370   2399     1  0.0000000  0.6508444  3
   2384   2383   2395   4858     1  0.0000000  1.0460000  1
   2384   2383   2395   4858     1  0.0000000  0.0000000  3
   2384   2383   2395   2396     1  0.0000000  0.6508444  3
   2384   2383   2395   2397     1  0.0000000  0.6508444  3
   2385   2383   2395   4858     1  0.0000000  1.0460000  1
   2385   2383   2395   4858     1  0.0000000  0.0000000  3
   2385   2383   2395   2396     1  0.0000000  0.6508444  3
   2385   2383   2395   2397     1  0.0000000  0.6508444  3
   2386   2374   2370   2399     1  0.0000000  0.6508444  3
   2387   2386   2392   4828     1  0.0000000  1.0460000  1
   2387   2386   2392   4828     1  0.0000000  0.0000000  3
   2387   2386   2392   2393     1  0.0000000  0.6508444  3
   2387   2386   2392   2394     1  0.0000000  0.6508444  3
   2388   2386   2392   4828     1  0.0000000  1.0460000  1
   2388   2386   2392   4828     1  0.0000000  0.0000000  3
   2388   2386   2392   2393     1  0.0000000  0.6508444  3
   2388   2386   2392   2394     1  0.0000000  0.6508444  3
   2392   4828   4819   4820     1  0.0000000  1.6038667  3
   2392   4828   4819   4821     1  0.0000000  1.6038667  3
   2393   2392   4828   4819     1  0.0000000  1.6038667  3
   2394   2392   4828   4819     1  0.0000000  1.6038667  3
   2395   4858   4849   4850     1  0.0000000  1.6038667  3
   2395   4858   4849   4851     1  0.0000000  1.6038667  3
   2396   2395   4858   4849     1  0.0000000  1.6038667  3
   2397   2395   4858   4849     1  0.0000000  1.6038667  3
   2400   2401   2413   2414     1  0.0000000  0.6508444  3
   2400   2401   2413   2415     1  0.0000000  0.6508444  3
   2400   2404   2416   2417     1  0.0000000  0.6508444  3
   2400   2404   2416   2418     1  0.0000000  0.6508444  3
   2400   2407   2410   2411     1  0.0000000  0.6508444  3
   2400   2407   2410   2412     1  0.0000000  0.6508444  3
   2401   2400   2404   2405     1  0.0000000  0.6508444  3
   2401   2400   2404   2406     1  0.0000000  0.6508444  3
   2401   2400   2407   2408     1  0.0000000  0.6508444  3
   2401   2400   2407   2409     1  0.0000000  0.6508444  3
   2401   2413   2425   2426     1  0.0000000  0.6508444  3
   2401   2413   2425   2427     1  0.0000000  0.6508444  3
   2402   2401   2400   2404     1  0.0000000  0.6508444  3
   2402   2401   2400   2407     1  0.0000000  0.6508444  3
   2402   2401   2400   2429     1  0.0000000  0.6508444  3
   2402   2401   2413   2425     1  0.0000000  0.6508444  3
   2402   2401   2413   2414     1  0.0000000  0.6508444  3
   2402   2401   2413   2415     1  0.0000000  0.6508444  3
   2403   2401   2400   2404     1  0.0000000  0.6508444  3
   2403   2401   2400   2407     1  0.0000000  0.6508444  3
   2403   2401   2400   2429     1  0.0000000  0.6508444  3
   2403   2401   2413   2425     1  0.0000000  0.6508444  3
   2403   2401   2413   2414     1  0.0000000  0.6508444  3
   2403   2401   2413   2415     1  0.0000000  0.6508444  3
   2404   2400   2407   2408     1  0.0000000  0.6508444  3
   2404   2400   2407   2409     1  0.0000000  0.6508444  3
   2404   2416   2422   2423     1  0.0000000  0.6508444  3
   2404   2416   2422   2424     1  0.0000000  0.6508444  3
   2405   2404   2400   2407     1  0.0000000  0.6508444  3
   2405   2404   2400   2429     1  0.0000000  0.6508444  3
   2405   2404   2416   2422     1  0.0000000  0.6508444  3
   2405   2404   2416   2417     1  0.0000000  0.6508444  3
   2405   2404   2416   2418     1  0.0000000  0.6508444  3
   2406   2404   2400   2407     1  0.0000000  0.6508444  3
   2406   2404   2400   2429     1  0.0000000  0.6508444  3
   2406   2404   2416   2422     1  0.0000000  0.6508444  3
   2406   2404   2416   2417     1  0.0000000  0.6508444  3
   2406   2404   2416   2418     1  0.0000000  0.6508444  3
   2407   2410   2419   2420     1  0.0000000  0.6508444  3
   2407   2410   2419   2421     1  0.0000000  0.6508444  3
   2408   2407   2400   2429     1  0.0000000  0.6508444  3
   2408   2407   2410   2419     1  0.0000000  0.6508444  3
   2408   2407   2410   2411     1  0.0000000  0.6508444  3
   2408   2407   2410   2412     1  0.0000000  0.6508444  3
   2409   2407   2400   2429     1  0.0000000  0.6508444  3
   2409   2407   2410   2419     1  0.0000000  0.6508444  3
   2409   2407   2410   2411     1  0.0000000  0.6508444  3
   2409   2407   2410   2412     1  0.0000000  0.6508444  3
   2410   2407   2400   2429     1  0.0000000  0.6508444  3
   2411   2410   2419   2428     1  0.0000000  1.0460000  1
   2411   2410   2419   2428     1  0.0000000  0.0000000  3
   2411   2410   2419   2420     1  0.0000000  0.6508444  3
   2411   2410   2419   2421     1  0.0000000  0.6508444  3
   2412   2410   2419   2428     1  0.0000000  1.0460000  1
   2412   2410   2419   2428     1  0.0000000  0.0000000  3
   2412   2410   2419   2420     1  0.0000000  0.6508444  3
   2412   2410   2419   2421     1  0.0000000  0.6508444  3
   2413   2401   2400   2429     1  0.0000000  0.6508444  3
   2414   2413   2425   4918     1  0.0000000  1.0460000  1
   2414   2413   2425   4918     1  0.0000000  0.0000000  3
   2414   2413   2425   2426     1  0.0000000  0.6508444  3
   2414   2413   2425   2427     1  0.0000000  0.6508444  3
   2415   2413   2425   4918     1  0.0000000  1.0460000  1
   2415   2413   2425   4918     1  0.0000000  0.0000000  3
   2415   2413   2425   2426     1  0.0000000  0.6508444  3
   2415   2413   2425   2427     1  0.0000000  0.6508444  3
   2416   2404   2400   2429     1  0.0000000  0.6508444  3
   2417   2416   2422   4888     1  0.0000000  1.0460000  1
   2417   2416   2422   4888     1  0.0000000  0.0000000  3
   2417   2416   2422   2423     1  0.0000000  0.6508444  3
   2417   2416   2422   2424     1  0.0000000  0.6508444  3
   2418   2416   2422   4888     1  0.0000000  1.0460000  1
   2418   2416   2422   4888     1  0.0000000  0.0000000  3
   2418   2416   2422   2423     1  0.0000000  0.6508444  3
   2418   2416   2422   2424     1  0.0000000  0.6508444  3
   2422   4888   4879   4880     1  0.0000000  1.6038667  3
   2422   4888   4879   4881     1  0.0000000  1.6038667  3
   2423   2422   4888   4879     1  0.0000000  1.6038667  3
   2424   2422   4888   4879     1  0.0000000  1.6038667  3
   2425   4918   4909   4910     1  0.0000000  1.6038667  3
   2425   4918   4909   4911     1  0.0000000  1.6038667  3
   2426   2425   4918   4909     1  0.0000000  1.6038667  3
   2427   2425   4918   4909     1  0.0000000  1.6038667  3
   2430   2431   2443   2444     1  0.0000000  0.6508444  3
   2430   2431   2443   2445     1  0.0000000  0.6508444  3
   2430   2434   2446   2447     1  0.0000000  0.6508444  3
   2430   2434   2446   2448     1  0.0000000  0.6508444  3
   2430   2437   2440   2441     1  0.0000000  0.6508444  3
   2430   2437   2440   2442     1  0.0000000  0.6508444  3
   2431   2430   2434   2435     1  0.0000000  0.6508444  3
   2431   2430   2434   2436     1  0.0000000  0.6508444  3
   2431   2430   2437   2438     1  0.0000000  0.6508444  3
   2431   2430   2437   2439     1  0.0000000  0.6508444  3
   2431   2443   2455   2456     1  0.0000000  0.6508444  3
   2431   2443   2455   2457     1  0.0000000  0.6508444  3
   2432   2431   2430   2434     1  0.0000000  0.6508444  3
   2432   2431   2430   2437     1  0.0000000  0.6508444  3
   2432   2431   2430   2459     1  0.0000000  0.6508444  3
   2432   2431   2443   2455     1  0.0000000  0.6508444  3
   2432   2431   2443   2444     1  0.0000000  0.6508444  3
   2432   2431   2443   2445     1  0.0000000  0.6508444  3
   2433   2431   2430   2434     1  0.0000000  0.6508444  3
   2433   2431   2430   2437     1  0.0000000  0.6508444  3
   2433   2431   2430   2459     1  0.0000000  0.6508444  3
   2433   2431   2443   2455     1  0.0000000  0.6508444  3
   2433   2431   2443   2444     1  0.0000000  0.6508444  3
   2433   2431   2443   2445     1  0.0000000  0.6508444  3
   2434   2430   2437   2438     1  0.0000000  0.6508444  3
   2434   2430   2437   2439     1  0.0000000  0.6508444  3
   2434   2446   2452   2453     1  0.0000000  0.6508444  3
   2434   2446   2452   2454     1  0.0000000  0.6508444  3
   2435   2434   2430   2437     1  0.0000000  0.6508444  3
   2435   2434   2430   2459     1  0.0000000  0.6508444  3
   2435   2434   2446   2452     1  0.0000000  0.6508444  3
   2435   2434   2446   2447     1  0.0000000  0.6508444  3
   2435   2434   2446   2448     1  0.0000000  0.6508444  3
   2436   2434   2430   2437     1  0.0000000  0.6508444  3
   2436   2434   2430   2459     1  0.0000000  0.6508444  3
   2436   2434   2446   2452     1  0.0000000  0.6508444  3
   2436   2434   2446   2447     1  0.0000000  0.6508444  3
   2436   2434   2446   2448     1  0.0000000  0.6508444  3
   2437   2440   2449   2450     1  0.0000000  0.6508444  3
   2437   2440   2449   2451     1  0.0000000  0.6508444  3
   2438   2437   2430   2459     1  0.0000000  0.6508444  3
   2438   2437   2440   2449     1  0.0000000  0.6508444  3
   2438   2437   2440   2441     1  0.0000000  0.6508444  3
   2438   2437   2440   2442     1  0.0000000  0.6508444  3
   2439   2437   2430   2459     1  0.0000000  0.6508444  3
   2439   2437   2440   2449     1  0.0000000  0.6508444  3
   2439   2437   2440   2441     1  0.0000000  0.6508444  3
   2439   2437   2440   2442     1  0.0000000  0.6508444  3
   2440   2437   2430   2459     1  0.0000000  0.6508444  3
   2441   2440   2449   2458     1  0.0000000  1.0460000  1
   2441   2440   2449   2458     1  0.0000000  0.0000000  3
   2441   2440   2449   2450     1  0.0000000  0.6508444  3
   2441   2440   2449   2451     1  0.0000000  0.6508444  3
   2442   2440   2449   2458     1  0.0000000  1.0460000  1
   2442   2440   2449   2458     1  0.0000000  0.0000000  3
   2442   2440   2449   2450     1  0.0000000  0.6508444  3
   2442   2440   2449   2451     1  0.0000000  0.6508444  3
   2443   2431   2430   2459     1  0.0000000  0.6508444  3
   2444   2443   2455   4978     1  0.0000000  1.0460000  1
   2444   2443   2455   4978     1  0.0000000  0.0000000  3
   2444   2443   2455   2456     1  0.0000000  0.6508444  3
   2444   2443   2455   2457     1  0.0000000  0.6508444  3
   2445   2443   2455   4978     1  0.0000000  1.0460000  1
   2445   2443   2455   4978     1  0.0000000  0.0000000  3
   2445   2443   2455   2456     1  0.0000000  0.6508444  3
   2445   2443   2455   2457     1  0.0000000  0.6508444  3
   2446   2434   2430   2459     1  0.0000000  0.6508444  3
   2447   2446   2452   4948     1  0.0000000  1.0460000  1
   2447   2446   2452   4948     1  0.0000000  0.0000000  3
   2447   2446   2452   2453     1  0.0000000  0.6508444  3
   2447   2446   2452   2454     1  0.0000000  0.6508444  3
   2448   2446   2452   4948     1  0.0000000  1.0460000  1
   2448   2446   2452   4948     1  0.0000000  0.0000000  3
   2448   2446   2452   2453     1  0.0000000  0.6508444  3
   2448   2446   2452   2454     1  0.0000000  0.6508444  3
   2452   4948   4939   4940     1  0.0000000  1.6038667  3
   2452   4948   4939   4941     1  0.0000000  1.6038667  3
   2453   2452   4948   4939     1  0.0000000  1.6038667  3
   2454   2452   4948   4939     1  0.0000000  1.6038667  3
   2455   4978   4969   4970     1  0.0000000  1.6038667  3
   2455   4978   4969   4971     1  0.0000000  1.6038667  3
   2456   2455   4978   4969     1  0.0000000  1.6038667  3
   2457   2455   4978   4969     1  0.0000000  1.6038667  3
   2460   2461   2473   2474     1  0.0000000  0.6508444  3
   2460   2461   2473   2475     1  0.0000000  0.6508444  3
   2460   2464   2476   2477     1  0.0000000  0.6508444  3
   2460   2464   2476   2478     1  0.0000000  0.6508444  3
   2460   2467   2470   2471     1  0.0000000  0.6508444  3
   2460   2467   2470   2472     1  0.0000000  0.6508444  3
   2461   2460   2464   2465     1  0.0000000  0.6508444  3
   2461   2460   2464   2466     1  0.0000000  0.6508444  3
   2461   2460   2467   2468     1  0.0000000  0.6508444  3
   2461   2460   2467   2469     1  0.0000000  0.6508444  3
   2461   2473   2485   2486     1  0.0000000  0.6508444  3
   2461   2473   2485   2487     1  0.0000000  0.6508444  3
   2462   2461   2460   2464     1  0.0000000  0.6508444  3
   2462   2461   2460   2467     1  0.0000000  0.6508444  3
   2462   2461   2460   2489     1  0.0000000  0.6508444  3
   2462   2461   2473   2485     1  0.0000000  0.6508444  3
   2462   2461   2473   2474     1  0.0000000  0.6508444  3
   2462   2461   2473   2475     1  0.0000000  0.6508444  3
   2463   2461   2460   2464     1  0.0000000  0.6508444  3
   2463   2461   2460   2467     1  0.0000000  0.6508444  3
   2463   2461   2460   2489     1  0.0000000  0.6508444  3
   2463   2461   2473   2485     1  0.0000000  0.6508444  3
   2463   2461   2473   2474     1  0.0000000  0.6508444  3
   2463   2461   2473   2475     1  0.0000000  0.6508444  3
   2464   2460   2467   2468     1  0.0000000  0.6508444  3
   2464   2460   2467   2469     1  0.0000000  0.6508444  3
   2464   2476   2482   2483     1  0.0000000  0.6508444  3
   2464   2476   2482   2484     1  0.0000000  0.6508444  3
   2465   2464   2460   2467     1  0.0000000  0.6508444  3
   2465   2464   2460   2489     1  0.0000000  0.6508444  3
   2465   2464   2476   2482     1  0.0000000  0.6508444  3
   2465   2464   2476   2477     1  0.0000000  0.6508444  3
   2465   2464   2476   2478     1  0.0000000  0.6508444  3
   2466   2464   2460   2467     1  0.0000000  0.6508444  3
   2466   2464   2460   2489     1  0.0000000  0.6508444  3
   2466   2464   2476   2482     1  0.0000000  0.6508444  3
   2466   2464   2476   2477     1  0.0000000  0.6508444  3
   2466   2464   2476   2478     1  0.0000000  0.6508444  3
   2467   2470   2479   2480     1  0.0000000  0.6508444  3
   2467   2470   2479   2481     1  0.0000000  0.6508444  3
   2468   2467   2460   2489     1  0.0000000  0.6508444  3
   2468   2467   2470   2479     1  0.0000000  0.6508444  3
   2468   2467   2470   2471     1  0.0000000  0.6508444  3
   2468   2467   2470   2472     1  0.0000000  0.6508444  3
   2469   2467   2460   2489     1  0.0000000  0.6508444  3
   2469   2467   2470   2479     1  0.0000000  0.6508444  3
   2469   2467   2470   2471     1  0.0000000  0.6508444  3
   2469   2467   2470   2472     1  0.0000000  0.6508444  3
   2470   2467   2460   2489     1  0.0000000  0.6508444  3
   2471   2470   2479   2488     1  0.0000000  1.0460000  1
   2471   2470   2479   2488     1  0.0000000  0.0000000  3
   2471   2470   2479   2480     1  0.0000000  0.6508444  3
   2471   2470   2479   2481     1  0.0000000  0.6508444  3
   2472   2470   2479   2488     1  0.0000000  1.0460000  1
   2472   2470   2479   2488     1  0.0000000  0.0000000  3
   2472   2470   2479   2480     1  0.0000000  0.6508444  3
   2472   2470   2479   2481     1  0.0000000  0.6508444  3
   2473   2461   2460   2489     1  0.0000000  0.6508444  3
   2474   2473   2485   5038     1  0.0000000  1.0460000  1
   2474   2473   2485   5038     1  0.0000000  0.0000000  3
   2474   2473   2485   2486     1  0.0000000  0.6508444  3
   2474   2473   2485   2487     1  0.0000000  0.6508444  3
   2475   2473   2485   5038     1  0.0000000  1.0460000  1
   2475   2473   2485   5038     1  0.0000000  0.0000000  3
   2475   2473   2485   2486     1  0.0000000  0.6508444  3
   2475   2473   2485   2487     1  0.0000000  0.6508444  3
   2476   2464   2460   2489     1  0.0000000  0.6508444  3
   2477   2476   2482   5008     1  0.0000000  1.0460000  1
   2477   2476   2482   5008     1  0.0000000  0.0000000  3
   2477   2476   2482   2483     1  0.0000000  0.6508444  3
   2477   2476   2482   2484     1  0.0000000  0.6508444  3
   2478   2476   2482   5008     1  0.0000000  1.0460000  1
   2478   2476   2482   5008     1  0.0000000  0.0000000  3
   2478   2476   2482   2483     1  0.0000000  0.6508444  3
   2478   2476   2482   2484     1  0.0000000  0.6508444  3
   2482   5008   4999   5000     1  0.0000000  1.6038667  3
   2482   5008   4999   5001     1  0.0000000  1.6038667  3
   2483   2482   5008   4999     1  0.0000000  1.6038667  3
   2484   2482   5008   4999     1  0.0000000  1.6038667  3
   2485   5038   5029   5030     1  0.0000000  1.6038667  3
   2485   5038   5029   5031     1  0.0000000  1.6038667  3
   2486   2485   5038   5029     1  0.0000000  1.6038667  3
   2487   2485   5038   5029     1  0.0000000  1.6038667  3
   2490   2491   2503   2504     1  0.0000000  0.6508444  3
   2490   2491   2503   2505     1  0.0000000  0.6508444  3
   2490   2494   2506   2507     1  0.0000000  0.6508444  3
   2490   2494   2506   2508     1  0.0000000  0.6508444  3
   2490   2497   2500   2501     1  0.0000000  0.6508444  3
   2490   2497   2500   2502     1  0.0000000  0.6508444  3
   2491   2490   2494   2495     1  0.0000000  0.6508444  3
   2491   2490   2494   2496     1  0.0000000  0.6508444  3
   2491   2490   2497   2498     1  0.0000000  0.6508444  3
   2491   2490   2497   2499     1  0.0000000  0.6508444  3
   2491   2503   2515   2516     1  0.0000000  0.6508444  3
   2491   2503   2515   2517     1  0.0000000  0.6508444  3
   2492   2491   2490   2494     1  0.0000000  0.6508444  3
   2492   2491   2490   2497     1  0.0000000  0.6508444  3
   2492   2491   2490   2519     1  0.0000000  0.6508444  3
   2492   2491   2503   2515     1  0.0000000  0.6508444  3
   2492   2491   2503   2504     1  0.0000000  0.6508444  3
   2492   2491   2503   2505     1  0.0000000  0.6508444  3
   2493   2491   2490   2494     1  0.0000000  0.6508444  3
   2493   2491   2490   2497     1  0.0000000  0.6508444  3
   2493   2491   2490   2519     1  0.0000000  0.6508444  3
   2493   2491   2503   2515     1  0.0000000  0.6508444  3
   2493   2491   2503   2504     1  0.0000000  0.6508444  3
   2493   2491   2503   2505     1  0.0000000  0.6508444  3
   2494   2490   2497   2498     1  0.0000000  0.6508444  3
   2494   2490   2497   2499     1  0.0000000  0.6508444  3
   2494   2506   2512   2513     1  0.0000000  0.6508444  3
   2494   2506   2512   2514     1  0.0000000  0.6508444  3
   2495   2494   2490   2497     1  0.0000000  0.6508444  3
   2495   2494   2490   2519     1  0.0000000  0.6508444  3
   2495   2494   2506   2512     1  0.0000000  0.6508444  3
   2495   2494   2506   2507     1  0.0000000  0.6508444  3
   2495   2494   2506   2508     1  0.0000000  0.6508444  3
   2496   2494   2490   2497     1  0.0000000  0.6508444  3
   2496   2494   2490   2519     1  0.0000000  0.6508444  3
   2496   2494   2506   2512     1  0.0000000  0.6508444  3
   2496   2494   2506   2507     1  0.0000000  0.6508444  3
   2496   2494   2506   2508     1  0.0000000  0.6508444  3
   2497   2500   2509   2510     1  0.0000000  0.6508444  3
   2497   2500   2509   2511     1  0.0000000  0.6508444  3
   2498   2497   2490   2519     1  0.0000000  0.6508444  3
   2498   2497   2500   2509     1  0.0000000  0.6508444  3
   2498   2497   2500   2501     1  0.0000000  0.6508444  3
   2498   2497   2500   2502     1  0.0000000  0.6508444  3
   2499   2497   2490   2519     1  0.0000000  0.6508444  3
   2499   2497   2500   2509     1  0.0000000  0.6508444  3
   2499   2497   2500   2501     1  0.0000000  0.6508444  3
   2499   2497   2500   2502     1  0.0000000  0.6508444  3
   2500   2497   2490   2519     1  0.0000000  0.6508444  3
   2501   2500   2509   2518     1  0.0000000  1.0460000  1
   2501   2500   2509   2518     1  0.0000000  0.0000000  3
   2501   2500   2509   2510     1  0.0000000  0.6508444  3
   2501   2500   2509   2511     1  0.0000000  0.6508444  3
   2502   2500   2509   2518     1  0.0000000  1.0460000  1
   2502   2500   2509   2518     1  0.0000000  0.0000000  3
   2502   2500   2509   2510     1  0.0000000  0.6508444  3
   2502   2500   2509   2511     1  0.0000000  0.6508444  3
   2503   2491   2490   2519     1  0.0000000  0.6508444  3
   2504   2503   2515   5098     1  0.0000000  1.0460000  1
   2504   2503   2515   5098     1  0.0000000  0.0000000  3
   2504   2503   2515   2516     1  0.0000000  0.6508444  3
   2504   2503   2515   2517     1  0.0000000  0.6508444  3
   2505   2503   2515   5098     1  0.0000000  1.0460000  1
   2505   2503   2515   5098     1  0.0000000  0.0000000  3
   2505   2503   2515   2516     1  0.0000000  0.6508444  3
   2505   2503   2515   2517     1  0.0000000  0.6508444  3
   2506   2494   2490   2519     1  0.0000000  0.6508444  3
   2507   2506   2512   5068     1  0.0000000  1.0460000  1
   2507   2506   2512   5068     1  0.0000000  0.0000000  3
   2507   2506   2512   2513     1  0.0000000  0.6508444  3
   2507   2506   2512   2514     1  0.0000000  0.6508444  3
   2508   2506   2512   5068     1  0.0000000  1.0460000  1
   2508   2506   2512   5068     1  0.0000000  0.0000000  3
   2508   2506   2512   2513     1  0.0000000  0.6508444  3
   2508   2506   2512   2514     1  0.0000000  0.6508444  3
   2512   5068   5059   5060     1  0.0000000  1.6038667  3
   2512   5068   5059   5061     1  0.0000000  1.6038667  3
   2513   2512   5068   5059     1  0.0000000  1.6038667  3
   2514   2512   5068   5059     1  0.0000000  1.6038667  3
   2515   5098   5089   5090     1  0.0000000  1.6038667  3
   2515   5098   5089   5091     1  0.0000000  1.6038667  3
   2516   2515   5098   5089     1  0.0000000  1.6038667  3
   2517   2515   5098   5089     1  0.0000000  1.6038667  3
   2520   2521   2533   2534     1  0.0000000  0.6508444  3
   2520   2521   2533   2535     1  0.0000000  0.6508444  3
   2520   2524   2536   2537     1  0.0000000  0.6508444  3
   2520   2524   2536   2538     1  0.0000000  0.6508444  3
   2520   2527   2530   2531     1  0.0000000  0.6508444  3
   2520   2527   2530   2532     1  0.0000000  0.6508444  3
   2521   2520   2524   2525     1  0.0000000  0.6508444  3
   2521   2520   2524   2526     1  0.0000000  0.6508444  3
   2521   2520   2527   2528     1  0.0000000  0.6508444  3
   2521   2520   2527   2529     1  0.0000000  0.6508444  3
   2521   2533   2545   2546     1  0.0000000  0.6508444  3
   2521   2533   2545   2547     1  0.0000000  0.6508444  3
   2522   2521   2520   2524     1  0.0000000  0.6508444  3
   2522   2521   2520   2527     1  0.0000000  0.6508444  3
   2522   2521   2520   2549     1  0.0000000  0.6508444  3
   2522   2521   2533   2545     1  0.0000000  0.6508444  3
   2522   2521   2533   2534     1  0.0000000  0.6508444  3
   2522   2521   2533   2535     1  0.0000000  0.6508444  3
   2523   2521   2520   2524     1  0.0000000  0.6508444  3
   2523   2521   2520   2527     1  0.0000000  0.6508444  3
   2523   2521   2520   2549     1  0.0000000  0.6508444  3
   2523   2521   2533   2545     1  0.0000000  0.6508444  3
   2523   2521   2533   2534     1  0.0000000  0.6508444  3
   2523   2521   2533   2535     1  0.0000000  0.6508444  3
   2524   2520   2527   2528     1  0.0000000  0.6508444  3
   2524   2520   2527   2529     1  0.0000000  0.6508444  3
   2524   2536   2542   2543     1  0.0000000  0.6508444  3
   2524   2536   2542   2544     1  0.0000000  0.6508444  3
   2525   2524   2520   2527     1  0.0000000  0.6508444  3
   2525   2524   2520   2549     1  0.0000000  0.6508444  3
   2525   2524   2536   2542     1  0.0000000  0.6508444  3
   2525   2524   2536   2537     1  0.0000000  0.6508444  3
   2525   2524   2536   2538     1  0.0000000  0.6508444  3
   2526   2524   2520   2527     1  0.0000000  0.6508444  3
   2526   2524   2520   2549     1  0.0000000  0.6508444  3
   2526   2524   2536   2542     1  0.0000000  0.6508444  3
   2526   2524   2536   2537     1  0.0000000  0.6508444  3
   2526   2524   2536   2538     1  0.0000000  0.6508444  3
   2527   2530   2539   2540     1  0.0000000  0.6508444  3
   2527   2530   2539   2541     1  0.0000000  0.6508444  3
   2528   2527   2520   2549     1  0.0000000  0.6508444  3
   2528   2527   2530   2539     1  0.0000000  0.6508444  3
   2528   2527   2530   2531     1  0.0000000  0.6508444  3
   2528   2527   2530   2532     1  0.0000000  0.6508444  3
   2529   2527   2520   2549     1  0.0000000  0.6508444  3
   2529   2527   2530   2539     1  0.0000000  0.6508444  3
   2529   2527   2530   2531     1  0.0000000  0.6508444  3
   2529   2527   2530   2532     1  0.0000000  0.6508444  3
   2530   2527   2520   2549     1  0.0000000  0.6508444  3
   2531   2530   2539   2548     1  0.0000000  1.0460000  1
   2531   2530   2539   2548     1  0.0000000  0.0000000  3
   2531   2530   2539   2540     1  0.0000000  0.6508444  3
   2531   2530   2539   2541     1  0.0000000  0.6508444  3
   2532   2530   2539   2548     1  0.0000000  1.0460000  1
   2532   2530   2539   2548     1  0.0000000  0.0000000  3
   2532   2530   2539   2540     1  0.0000000  0.6508444  3
   2532   2530   2539   2541     1  0.0000000  0.6508444  3
   2533   2521   2520   2549     1  0.0000000  0.6508444  3
   2534   2533   2545   5158     1  0.0000000  1.0460000  1
   2534   2533   2545   5158     1  0.0000000  0.0000000  3
   2534   2533   2545   2546     1  0.0000000  0.6508444  3
   2534   2533   2545   2547     1  0.0000000  0.6508444  3
   2535   2533   2545   5158     1  0.0000000  1.0460000  1
   2535   2533   2545   5158     1  0.0000000  0.0000000  3
   2535   2533   2545   2546     1  0.0000000  0.6508444  3
   2535   2533   2545   2547     1  0.0000000  0.6508444  3
   2536   2524   2520   2549     1  0.0000000  0.6508444  3
   2537   2536   2542   5128     1  0.0000000  1.0460000  1
   2537   2536   2542   5128     1  0.0000000  0.0000000  3
   2537   2536   2542   2543     1  0.0000000  0.6508444  3
   2537   2536   2542   2544     1  0.0000000  0.6508444  3
   2538   2536   2542   5128     1  0.0000000  1.0460000  1
   2538   2536   2542   5128     1  0.0000000  0.0000000  3
   2538   2536   2542   2543     1  0.0000000  0.6508444  3
   2538   2536   2542   2544     1  0.0000000  0.6508444  3
   2542   5128   5119   5120     1  0.0000000  1.6038667  3
   2542   5128   5119   5121     1  0.0000000  1.6038667  3
   2543   2542   5128   5119     1  0.0000000  1.6038667  3
   2544   2542   5128   5119     1  0.0000000  1.6038667  3
   2545   5158   5149   5150     1  0.0000000  1.6038667  3
   2545   5158   5149   5151     1  0.0000000  1.6038667  3
   2546   2545   5158   5149     1  0.0000000  1.6038667  3
   2547   2545   5158   5149     1  0.0000000  1.6038667  3
   2550   2551   2563   2564     1  0.0000000  0.6508444  3
   2550   2551   2563   2565     1  0.0000000  0.6508444  3
   2550   2554   2566   2567     1  0.0000000  0.6508444  3
   2550   2554   2566   2568     1  0.0000000  0.6508444  3
   2550   2557   2560   2561     1  0.0000000  0.6508444  3
   2550   2557   2560   2562     1  0.0000000  0.6508444  3
   2551   2550   2554   2555     1  0.0000000  0.6508444  3
   2551   2550   2554   2556     1  0.0000000  0.6508444  3
   2551   2550   2557   2558     1  0.0000000  0.6508444  3
   2551   2550   2557   2559     1  0.0000000  0.6508444  3
   2551   2563   2575   2576     1  0.0000000  0.6508444  3
   2551   2563   2575   2577     1  0.0000000  0.6508444  3
   2552   2551   2550   2554     1  0.0000000  0.6508444  3
   2552   2551   2550   2557     1  0.0000000  0.6508444  3
   2552   2551   2550   2579     1  0.0000000  0.6508444  3
   2552   2551   2563   2575     1  0.0000000  0.6508444  3
   2552   2551   2563   2564     1  0.0000000  0.6508444  3
   2552   2551   2563   2565     1  0.0000000  0.6508444  3
   2553   2551   2550   2554     1  0.0000000  0.6508444  3
   2553   2551   2550   2557     1  0.0000000  0.6508444  3
   2553   2551   2550   2579     1  0.0000000  0.6508444  3
   2553   2551   2563   2575     1  0.0000000  0.6508444  3
   2553   2551   2563   2564     1  0.0000000  0.6508444  3
   2553   2551   2563   2565     1  0.0000000  0.6508444  3
   2554   2550   2557   2558     1  0.0000000  0.6508444  3
   2554   2550   2557   2559     1  0.0000000  0.6508444  3
   2554   2566   2572   2573     1  0.0000000  0.6508444  3
   2554   2566   2572   2574     1  0.0000000  0.6508444  3
   2555   2554   2550   2557     1  0.0000000  0.6508444  3
   2555   2554   2550   2579     1  0.0000000  0.6508444  3
   2555   2554   2566   2572     1  0.0000000  0.6508444  3
   2555   2554   2566   2567     1  0.0000000  0.6508444  3
   2555   2554   2566   2568     1  0.0000000  0.6508444  3
   2556   2554   2550   2557     1  0.0000000  0.6508444  3
   2556   2554   2550   2579     1  0.0000000  0.6508444  3
   2556   2554   2566   2572     1  0.0000000  0.6508444  3
   2556   2554   2566   2567     1  0.0000000  0.6508444  3
   2556   2554   2566   2568     1  0.0000000  0.6508444  3
   2557   2560   2569   2570     1  0.0000000  0.6508444  3
   2557   2560   2569   2571     1  0.0000000  0.6508444  3
   2558   2557   2550   2579     1  0.0000000  0.6508444  3
   2558   2557   2560   2569     1  0.0000000  0.6508444  3
   2558   2557   2560   2561     1  0.0000000  0.6508444  3
   2558   2557   2560   2562     1  0.0000000  0.6508444  3
   2559   2557   2550   2579     1  0.0000000  0.6508444  3
   2559   2557   2560   2569     1  0.0000000  0.6508444  3
   2559   2557   2560   2561     1  0.0000000  0.6508444  3
   2559   2557   2560   2562     1  0.0000000  0.6508444  3
   2560   2557   2550   2579     1  0.0000000  0.6508444  3
   2561   2560   2569   2578     1  0.0000000  1.0460000  1
   2561   2560   2569   2578     1  0.0000000  0.0000000  3
   2561   2560   2569   2570     1  0.0000000  0.6508444  3
   2561   2560   2569   2571     1  0.0000000  0.6508444  3
   2562   2560   2569   2578     1  0.0000000  1.0460000  1
   2562   2560   2569   2578     1  0.0000000  0.0000000  3
   2562   2560   2569   2570     1  0.0000000  0.6508444  3
   2562   2560   2569   2571     1  0.0000000  0.6508444  3
   2563   2551   2550   2579     1  0.0000000  0.6508444  3
   2564   2563   2575   5218     1  0.0000000  1.0460000  1
   2564   2563   2575   5218     1  0.0000000  0.0000000  3
   2564   2563   2575   2576     1  0.0000000  0.6508444  3
   2564   2563   2575   2577     1  0.0000000  0.6508444  3
   2565   2563   2575   5218     1  0.0000000  1.0460000  1
   2565   2563   2575   5218     1  0.0000000  0.0000000  3
   2565   2563   2575   2576     1  0.0000000  0.6508444  3
   2565   2563   2575   2577     1  0.0000000  0.6508444  3
   2566   2554   2550   2579     1  0.0000000  0.6508444  3
   2567   2566   2572   5188     1  0.0000000  1.0460000  1
   2567   2566   2572   5188     1  0.0000000  0.0000000  3
   2567   2566   2572   2573     1  0.0000000  0.6508444  3
   2567   2566   2572   2574     1  0.0000000  0.6508444  3
   2568   2566   2572   5188     1  0.0000000  1.0460000  1
   2568   2566   2572   5188     1  0.0000000  0.0000000  3
   2568   2566   2572   2573     1  0.0000000  0.6508444  3
   2568   2566   2572   2574     1  0.0000000  0.6508444  3
   2572   5188   5179   5180     1  0.0000000  1.6038667  3
   2572   5188   5179   5181     1  0.0000000  1.6038667  3
   2573   2572   5188   5179     1  0.0000000  1.6038667  3
   2574   2572   5188   5179     1  0.0000000  1.6038667  3
   2575   5218   5209   5210     1  0.0000000  1.6038667  3
   2575   5218   5209   5211     1  0.0000000  1.6038667  3
   2576   2575   5218   5209     1  0.0000000  1.6038667  3
   2577   2575   5218   5209     1  0.0000000  1.6038667  3
   2580   2581   2593   2594     1  0.0000000  0.6508444  3
   2580   2581   2593   2595     1  0.0000000  0.6508444  3
   2580   2584   2596   2597     1  0.0000000  0.6508444  3
   2580   2584   2596   2598     1  0.0000000  0.6508444  3
   2580   2587   2590   2591     1  0.0000000  0.6508444  3
   2580   2587   2590   2592     1  0.0000000  0.6508444  3
   2581   2580   2584   2585     1  0.0000000  0.6508444  3
   2581   2580   2584   2586     1  0.0000000  0.6508444  3
   2581   2580   2587   2588     1  0.0000000  0.6508444  3
   2581   2580   2587   2589     1  0.0000000  0.6508444  3
   2581   2593   2605   2606     1  0.0000000  0.6508444  3
   2581   2593   2605   2607     1  0.0000000  0.6508444  3
   2582   2581   2580   2584     1  0.0000000  0.6508444  3
   2582   2581   2580   2587     1  0.0000000  0.6508444  3
   2582   2581   2580   2609     1  0.0000000  0.6508444  3
   2582   2581   2593   2605     1  0.0000000  0.6508444  3
   2582   2581   2593   2594     1  0.0000000  0.6508444  3
   2582   2581   2593   2595     1  0.0000000  0.6508444  3
   2583   2581   2580   2584     1  0.0000000  0.6508444  3
   2583   2581   2580   2587     1  0.0000000  0.6508444  3
   2583   2581   2580   2609     1  0.0000000  0.6508444  3
   2583   2581   2593   2605     1  0.0000000  0.6508444  3
   2583   2581   2593   2594     1  0.0000000  0.6508444  3
   2583   2581   2593   2595     1  0.0000000  0.6508444  3
   2584   2580   2587   2588     1  0.0000000  0.6508444  3
   2584   2580   2587   2589     1  0.0000000  0.6508444  3
   2584   2596   2602   2603     1  0.0000000  0.6508444  3
   2584   2596   2602   2604     1  0.0000000  0.6508444  3
   2585   2584   2580   2587     1  0.0000000  0.6508444  3
   2585   2584   2580   2609     1  0.0000000  0.6508444  3
   2585   2584   2596   2602     1  0.0000000  0.6508444  3
   2585   2584   2596   2597     1  0.0000000  0.6508444  3
   2585   2584   2596   2598     1  0.0000000  0.6508444  3
   2586   2584   2580   2587     1  0.0000000  0.6508444  3
   2586   2584   2580   2609     1  0.0000000  0.6508444  3
   2586   2584   2596   2602     1  0.0000000  0.6508444  3
   2586   2584   2596   2597     1  0.0000000  0.6508444  3
   2586   2584   2596   2598     1  0.0000000  0.6508444  3
   2587   2590   2599   2600     1  0.0000000  0.6508444  3
   2587   2590   2599   2601     1  0.0000000  0.6508444  3
   2588   2587   2580   2609     1  0.0000000  0.6508444  3
   2588   2587   2590   2599     1  0.0000000  0.6508444  3
   2588   2587   2590   2591     1  0.0000000  0.6508444  3
   2588   2587   2590   2592     1  0.0000000  0.6508444  3
   2589   2587   2580   2609     1  0.0000000  0.6508444  3
   2589   2587   2590   2599     1  0.0000000  0.6508444  3
   2589   2587   2590   2591     1  0.0000000  0.6508444  3
   2589   2587   2590   2592     1  0.0000000  0.6508444  3
   2590   2587   2580   2609     1  0.0000000  0.6508444  3
   2591   2590   2599   2608     1  0.0000000  1.0460000  1
   2591   2590   2599   2608     1  0.0000000  0.0000000  3
   2591   2590   2599   2600     1  0.0000000  0.6508444  3
   2591   2590   2599   2601     1  0.0000000  0.6508444  3
   2592   2590   2599   2608     1  0.0000000  1.0460000  1
   2592   2590   2599   2608     1  0.0000000  0.0000000  3
   2592   2590   2599   2600     1  0.0000000  0.6508444  3
   2592   2590   2599   2601     1  0.0000000  0.6508444  3
   2593   2581   2580   2609     1  0.0000000  0.6508444  3
   2594   2593   2605   5278     1  0.0000000  1.0460000  1
   2594   2593   2605   5278     1  0.0000000  0.0000000  3
   2594   2593   2605   2606     1  0.0000000  0.6508444  3
   2594   2593   2605   2607     1  0.0000000  0.6508444  3
   2595   2593   2605   5278     1  0.0000000  1.0460000  1
   2595   2593   2605   5278     1  0.0000000  0.0000000  3
   2595   2593   2605   2606     1  0.0000000  0.6508444  3
   2595   2593   2605   2607     1  0.0000000  0.6508444  3
   2596   2584   2580   2609     1  0.0000000  0.6508444  3
   2597   2596   2602   5248     1  0.0000000  1.0460000  1
   2597   2596   2602   5248     1  0.0000000  0.0000000  3
   2597   2596   2602   2603     1  0.0000000  0.6508444  3
   2597   2596   2602   2604     1  0.0000000  0.6508444  3
   2598   2596   2602   5248     1  0.0000000  1.0460000  1
   2598   2596   2602   5248     1  0.0000000  0.0000000  3
   2598   2596   2602   2603     1  0.0000000  0.6508444  3
   2598   2596   2602   2604     1  0.0000000  0.6508444  3
   2602   5248   5239   5240     1  0.0000000  1.6038667  3
   2602   5248   5239   5241     1  0.0000000  1.6038667  3
   2603   2602   5248   5239     1  0.0000000  1.6038667  3
   2604   2602   5248   5239     1  0.0000000  1.6038667  3
   2605   5278   5269   5270     1  0.0000000  1.6038667  3
   2605   5278   5269   5271     1  0.0000000  1.6038667  3
   2606   2605   5278   5269     1  0.0000000  1.6038667  3
   2607   2605   5278   5269     1  0.0000000  1.6038667  3
   2610   2611   2623   2624     1  0.0000000  0.6508444  3
   2610   2611   2623   2625     1  0.0000000  0.6508444  3
   2610   2614   2626   2627     1  0.0000000  0.6508444  3
   2610   2614   2626   2628     1  0.0000000  0.6508444  3
   2610   2617   2620   2621     1  0.0000000  0.6508444  3
   2610   2617   2620   2622     1  0.0000000  0.6508444  3
   2611   2610   2614   2615     1  0.0000000  0.6508444  3
   2611   2610   2614   2616     1  0.0000000  0.6508444  3
   2611   2610   2617   2618     1  0.0000000  0.6508444  3
   2611   2610   2617   2619     1  0.0000000  0.6508444  3
   2611   2623   2635   2636     1  0.0000000  0.6508444  3
   2611   2623   2635   2637     1  0.0000000  0.6508444  3
   2612   2611   2610   2614     1  0.0000000  0.6508444  3
   2612   2611   2610   2617     1  0.0000000  0.6508444  3
   2612   2611   2610   2639     1  0.0000000  0.6508444  3
   2612   2611   2623   2635     1  0.0000000  0.6508444  3
   2612   2611   2623   2624     1  0.0000000  0.6508444  3
   2612   2611   2623   2625     1  0.0000000  0.6508444  3
   2613   2611   2610   2614     1  0.0000000  0.6508444  3
   2613   2611   2610   2617     1  0.0000000  0.6508444  3
   2613   2611   2610   2639     1  0.0000000  0.6508444  3
   2613   2611   2623   2635     1  0.0000000  0.6508444  3
   2613   2611   2623   2624     1  0.0000000  0.6508444  3
   2613   2611   2623   2625     1  0.0000000  0.6508444  3
   2614   2610   2617   2618     1  0.0000000  0.6508444  3
   2614   2610   2617   2619     1  0.0000000  0.6508444  3
   2614   2626   2632   2633     1  0.0000000  0.6508444  3
   2614   2626   2632   2634     1  0.0000000  0.6508444  3
   2615   2614   2610   2617     1  0.0000000  0.6508444  3
   2615   2614   2610   2639     1  0.0000000  0.6508444  3
   2615   2614   2626   2632     1  0.0000000  0.6508444  3
   2615   2614   2626   2627     1  0.0000000  0.6508444  3
   2615   2614   2626   2628     1  0.0000000  0.6508444  3
   2616   2614   2610   2617     1  0.0000000  0.6508444  3
   2616   2614   2610   2639     1  0.0000000  0.6508444  3
   2616   2614   2626   2632     1  0.0000000  0.6508444  3
   2616   2614   2626   2627     1  0.0000000  0.6508444  3
   2616   2614   2626   2628     1  0.0000000  0.6508444  3
   2617   2620   2629   2630     1  0.0000000  0.6508444  3
   2617   2620   2629   2631     1  0.0000000  0.6508444  3
   2618   2617   2610   2639     1  0.0000000  0.6508444  3
   2618   2617   2620   2629     1  0.0000000  0.6508444  3
   2618   2617   2620   2621     1  0.0000000  0.6508444  3
   2618   2617   2620   2622     1  0.0000000  0.6508444  3
   2619   2617   2610   2639     1  0.0000000  0.6508444  3
   2619   2617   2620   2629     1  0.0000000  0.6508444  3
   2619   2617   2620   2621     1  0.0000000  0.6508444  3
   2619   2617   2620   2622     1  0.0000000  0.6508444  3
   2620   2617   2610   2639     1  0.0000000  0.6508444  3
   2621   2620   2629   2638     1  0.0000000  1.0460000  1
   2621   2620   2629   2638     1  0.0000000  0.0000000  3
   2621   2620   2629   2630     1  0.0000000  0.6508444  3
   2621   2620   2629   2631     1  0.0000000  0.6508444  3
   2622   2620   2629   2638     1  0.0000000  1.0460000  1
   2622   2620   2629   2638     1  0.0000000  0.0000000  3
   2622   2620   2629   2630     1  0.0000000  0.6508444  3
   2622   2620   2629   2631     1  0.0000000  0.6508444  3
   2623   2611   2610   2639     1  0.0000000  0.6508444  3
   2624   2623   2635   5338     1  0.0000000  1.0460000  1
   2624   2623   2635   5338     1  0.0000000  0.0000000  3
   2624   2623   2635   2636     1  0.0000000  0.6508444  3
   2624   2623   2635   2637     1  0.0000000  0.6508444  3
   2625   2623   2635   5338     1  0.0000000  1.0460000  1
   2625   2623   2635   5338     1  0.0000000  0.0000000  3
   2625   2623   2635   2636     1  0.0000000  0.6508444  3
   2625   2623   2635   2637     1  0.0000000  0.6508444  3
   2626   2614   2610   2639     1  0.0000000  0.6508444  3
   2627   2626   2632   5308     1  0.0000000  1.0460000  1
   2627   2626   2632   5308     1  0.0000000  0.0000000  3
   2627   2626   2632   2633     1  0.0000000  0.6508444  3
   2627   2626   2632   2634     1  0.0000000  0.6508444  3
   2628   2626   2632   5308     1  0.0000000  1.0460000  1
   2628   2626   2632   5308     1  0.0000000  0.0000000  3
   2628   2626   2632   2633     1  0.0000000  0.6508444  3
   2628   2626   2632   2634     1  0.0000000  0.6508444  3
   2632   5308   5299   5300     1  0.0000000  1.6038667  3
   2632   5308   5299   5301     1  0.0000000  1.6038667  3
   2633   2632   5308   5299     1  0.0000000  1.6038667  3
   2634   2632   5308   5299     1  0.0000000  1.6038667  3
   2635   5338   5329   5330     1  0.0000000  1.6038667  3
   2635   5338   5329   5331     1  0.0000000  1.6038667  3
   2636   2635   5338   5329     1  0.0000000  1.6038667  3
   2637   2635   5338   5329     1  0.0000000  1.6038667  3
   2640   2641   2653   2654     1  0.0000000  0.6508444  3
   2640   2641   2653   2655     1  0.0000000  0.6508444  3
   2640   2644   2656   2657     1  0.0000000  0.6508444  3
   2640   2644   2656   2658     1  0.0000000  0.6508444  3
   2640   2647   2650   2651     1  0.0000000  0.6508444  3
   2640   2647   2650   2652     1  0.0000000  0.6508444  3
   2641   2640   2644   2645     1  0.0000000  0.6508444  3
   2641   2640   2644   2646     1  0.0000000  0.6508444  3
   2641   2640   2647   2648     1  0.0000000  0.6508444  3
   2641   2640   2647   2649     1  0.0000000  0.6508444  3
   2641   2653   2665   2666     1  0.0000000  0.6508444  3
   2641   2653   2665   2667     1  0.0000000  0.6508444  3
   2642   2641   2640   2644     1  0.0000000  0.6508444  3
   2642   2641   2640   2647     1  0.0000000  0.6508444  3
   2642   2641   2640   2669     1  0.0000000  0.6508444  3
   2642   2641   2653   2665     1  0.0000000  0.6508444  3
   2642   2641   2653   2654     1  0.0000000  0.6508444  3
   2642   2641   2653   2655     1  0.0000000  0.6508444  3
   2643   2641   2640   2644     1  0.0000000  0.6508444  3
   2643   2641   2640   2647     1  0.0000000  0.6508444  3
   2643   2641   2640   2669     1  0.0000000  0.6508444  3
   2643   2641   2653   2665     1  0.0000000  0.6508444  3
   2643   2641   2653   2654     1  0.0000000  0.6508444  3
   2643   2641   2653   2655     1  0.0000000  0.6508444  3
   2644   2640   2647   2648     1  0.0000000  0.6508444  3
   2644   2640   2647   2649     1  0.0000000  0.6508444  3
   2644   2656   2662   2663     1  0.0000000  0.6508444  3
   2644   2656   2662   2664     1  0.0000000  0.6508444  3
   2645   2644   2640   2647     1  0.0000000  0.6508444  3
   2645   2644   2640   2669     1  0.0000000  0.6508444  3
   2645   2644   2656   2662     1  0.0000000  0.6508444  3
   2645   2644   2656   2657     1  0.0000000  0.6508444  3
   2645   2644   2656   2658     1  0.0000000  0.6508444  3
   2646   2644   2640   2647     1  0.0000000  0.6508444  3
   2646   2644   2640   2669     1  0.0000000  0.6508444  3
   2646   2644   2656   2662     1  0.0000000  0.6508444  3
   2646   2644   2656   2657     1  0.0000000  0.6508444  3
   2646   2644   2656   2658     1  0.0000000  0.6508444  3
   2647   2650   2659   2660     1  0.0000000  0.6508444  3
   2647   2650   2659   2661     1  0.0000000  0.6508444  3
   2648   2647   2640   2669     1  0.0000000  0.6508444  3
   2648   2647   2650   2659     1  0.0000000  0.6508444  3
   2648   2647   2650   2651     1  0.0000000  0.6508444  3
   2648   2647   2650   2652     1  0.0000000  0.6508444  3
   2649   2647   2640   2669     1  0.0000000  0.6508444  3
   2649   2647   2650   2659     1  0.0000000  0.6508444  3
   2649   2647   2650   2651     1  0.0000000  0.6508444  3
   2649   2647   2650   2652     1  0.0000000  0.6508444  3
   2650   2647   2640   2669     1  0.0000000  0.6508444  3
   2651   2650   2659   2668     1  0.0000000  1.0460000  1
   2651   2650   2659   2668     1  0.0000000  0.0000000  3
   2651   2650   2659   2660     1  0.0000000  0.6508444  3
   2651   2650   2659   2661     1  0.0000000  0.6508444  3
   2652   2650   2659   2668     1  0.0000000  1.0460000  1
   2652   2650   2659   2668     1  0.0000000  0.0000000  3
   2652   2650   2659   2660     1  0.0000000  0.6508444  3
   2652   2650   2659   2661     1  0.0000000  0.6508444  3
   2653   2641   2640   2669     1  0.0000000  0.6508444  3
   2654   2653   2665   5398     1  0.0000000  1.0460000  1
   2654   2653   2665   5398     1  0.0000000  0.0000000  3
   2654   2653   2665   2666     1  0.0000000  0.6508444  3
   2654   2653   2665   2667     1  0.0000000  0.6508444  3
   2655   2653   2665   5398     1  0.0000000  1.0460000  1
   2655   2653   2665   5398     1  0.0000000  0.0000000  3
   2655   2653   2665   2666     1  0.0000000  0.6508444  3
   2655   2653   2665   2667     1  0.0000000  0.6508444  3
   2656   2644   2640   2669     1  0.0000000  0.6508444  3
   2657   2656   2662   5368     1  0.0000000  1.0460000  1
   2657   2656   2662   5368     1  0.0000000  0.0000000  3
   2657   2656   2662   2663     1  0.0000000  0.6508444  3
   2657   2656   2662   2664     1  0.0000000  0.6508444  3
   2658   2656   2662   5368     1  0.0000000  1.0460000  1
   2658   2656   2662   5368     1  0.0000000  0.0000000  3
   2658   2656   2662   2663     1  0.0000000  0.6508444  3
   2658   2656   2662   2664     1  0.0000000  0.6508444  3
   2662   5368   5359   5360     1  0.0000000  1.6038667  3
   2662   5368   5359   5361     1  0.0000000  1.6038667  3
   2663   2662   5368   5359     1  0.0000000  1.6038667  3
   2664   2662   5368   5359     1  0.0000000  1.6038667  3
   2665   5398   5389   5390     1  0.0000000  1.6038667  3
   2665   5398   5389   5391     1  0.0000000  1.6038667  3
   2666   2665   5398   5389     1  0.0000000  1.6038667  3
   2667   2665   5398   5389     1  0.0000000  1.6038667  3
   2670   2671   2683   2684     1  0.0000000  0.6508444  3
   2670   2671   2683   2685     1  0.0000000  0.6508444  3
   2670   2674   2686   2687     1  0.0000000  0.6508444  3
   2670   2674   2686   2688     1  0.0000000  0.6508444  3
   2670   2677   2680   2681     1  0.0000000  0.6508444  3
   2670   2677   2680   2682     1  0.0000000  0.6508444  3
   2671   2670   2674   2675     1  0.0000000  0.6508444  3
   2671   2670   2674   2676     1  0.0000000  0.6508444  3
   2671   2670   2677   2678     1  0.0000000  0.6508444  3
   2671   2670   2677   2679     1  0.0000000  0.6508444  3
   2671   2683   2695   2696     1  0.0000000  0.6508444  3
   2671   2683   2695   2697     1  0.0000000  0.6508444  3
   2672   2671   2670   2674     1  0.0000000  0.6508444  3
   2672   2671   2670   2677     1  0.0000000  0.6508444  3
   2672   2671   2670   2699     1  0.0000000  0.6508444  3
   2672   2671   2683   2695     1  0.0000000  0.6508444  3
   2672   2671   2683   2684     1  0.0000000  0.6508444  3
   2672   2671   2683   2685     1  0.0000000  0.6508444  3
   2673   2671   2670   2674     1  0.0000000  0.6508444  3
   2673   2671   2670   2677     1  0.0000000  0.6508444  3
   2673   2671   2670   2699     1  0.0000000  0.6508444  3
   2673   2671   2683   2695     1  0.0000000  0.6508444  3
   2673   2671   2683   2684     1  0.0000000  0.6508444  3
   2673   2671   2683   2685     1  0.0000000  0.6508444  3
   2674   2670   2677   2678     1  0.0000000  0.6508444  3
   2674   2670   2677   2679     1  0.0000000  0.6508444  3
   2674   2686   2692   2693     1  0.0000000  0.6508444  3
   2674   2686   2692   2694     1  0.0000000  0.6508444  3
   2675   2674   2670   2677     1  0.0000000  0.6508444  3
   2675   2674   2670   2699     1  0.0000000  0.6508444  3
   2675   2674   2686   2692     1  0.0000000  0.6508444  3
   2675   2674   2686   2687     1  0.0000000  0.6508444  3
   2675   2674   2686   2688     1  0.0000000  0.6508444  3
   2676   2674   2670   2677     1  0.0000000  0.6508444  3
   2676   2674   2670   2699     1  0.0000000  0.6508444  3
   2676   2674   2686   2692     1  0.0000000  0.6508444  3
   2676   2674   2686   2687     1  0.0000000  0.6508444  3
   2676   2674   2686   2688     1  0.0000000  0.6508444  3
   2677   2680   2689   2690     1  0.0000000  0.6508444  3
   2677   2680   2689   2691     1  0.0000000  0.6508444  3
   2678   2677   2670   2699     1  0.0000000  0.6508444  3
   2678   2677   2680   2689     1  0.0000000  0.6508444  3
   2678   2677   2680   2681     1  0.0000000  0.6508444  3
   2678   2677   2680   2682     1  0.0000000  0.6508444  3
   2679   2677   2670   2699     1  0.0000000  0.6508444  3
   2679   2677   2680   2689     1  0.0000000  0.6508444  3
   2679   2677   2680   2681     1  0.0000000  0.6508444  3
   2679   2677   2680   2682     1  0.0000000  0.6508444  3
   2680   2677   2670   2699     1  0.0000000  0.6508444  3
   2681   2680   2689   2698     1  0.0000000  1.0460000  1
   2681   2680   2689   2698     1  0.0000000  0.0000000  3
   2681   2680   2689   2690     1  0.0000000  0.6508444  3
   2681   2680   2689   2691     1  0.0000000  0.6508444  3
   2682   2680   2689   2698     1  0.0000000  1.0460000  1
   2682   2680   2689   2698     1  0.0000000  0.0000000  3
   2682   2680   2689   2690     1  0.0000000  0.6508444  3
   2682   2680   2689   2691     1  0.0000000  0.6508444  3
   2683   2671   2670   2699     1  0.0000000  0.6508444  3
   2684   2683   2695   5458     1  0.0000000  1.0460000  1
   2684   2683   2695   5458     1  0.0000000  0.0000000  3
   2684   2683   2695   2696     1  0.0000000  0.6508444  3
   2684   2683   2695   2697     1  0.0000000  0.6508444  3
   2685   2683   2695   5458     1  0.0000000  1.0460000  1
   2685   2683   2695   5458     1  0.0000000  0.0000000  3
   2685   2683   2695   2696     1  0.0000000  0.6508444  3
   2685   2683   2695   2697     1  0.0000000  0.6508444  3
   2686   2674   2670   2699     1  0.0000000  0.6508444  3
   2687   2686   2692   5428     1  0.0000000  1.0460000  1
   2687   2686   2692   5428     1  0.0000000  0.0000000  3
   2687   2686   2692   2693     1  0.0000000  0.6508444  3
   2687   2686   2692   2694     1  0.0000000  0.6508444  3
   2688   2686   2692   5428     1  0.0000000  1.0460000  1
   2688   2686   2692   5428     1  0.0000000  0.0000000  3
   2688   2686   2692   2693     1  0.0000000  0.6508444  3
   2688   2686   2692   2694     1  0.0000000  0.6508444  3
   2692   5428   5419   5420     1  0.0000000  1.6038667  3
   2692   5428   5419   5421     1  0.0000000  1.6038667  3
   2693   2692   5428   5419     1  0.0000000  1.6038667  3
   2694   2692   5428   5419     1  0.0000000  1.6038667  3
   2695   5458   5449   5450     1  0.0000000  1.6038667  3
   2695   5458   5449   5451     1  0.0000000  1.6038667  3
   2696   2695   5458   5449     1  0.0000000  1.6038667  3
   2697   2695   5458   5449     1  0.0000000  1.6038667  3
   2700   2701   2713   2714     1  0.0000000  0.6508444  3
   2700   2701   2713   2715     1  0.0000000  0.6508444  3
   2700   2704   2716   2717     1  0.0000000  0.6508444  3
   2700   2704   2716   2718     1  0.0000000  0.6508444  3
   2700   2707   2710   2711     1  0.0000000  0.6508444  3
   2700   2707   2710   2712     1  0.0000000  0.6508444  3
   2701   2700   2704   2705     1  0.0000000  0.6508444  3
   2701   2700   2704   2706     1  0.0000000  0.6508444  3
   2701   2700   2707   2708     1  0.0000000  0.6508444  3
   2701   2700   2707   2709     1  0.0000000  0.6508444  3
   2701   2713   2725   2726     1  0.0000000  0.6508444  3
   2701   2713   2725   2727     1  0.0000000  0.6508444  3
   2702   2701   2700   2704     1  0.0000000  0.6508444  3
   2702   2701   2700   2707     1  0.0000000  0.6508444  3
   2702   2701   2700   2729     1  0.0000000  0.6508444  3
   2702   2701   2713   2725     1  0.0000000  0.6508444  3
   2702   2701   2713   2714     1  0.0000000  0.6508444  3
   2702   2701   2713   2715     1  0.0000000  0.6508444  3
   2703   2701   2700   2704     1  0.0000000  0.6508444  3
   2703   2701   2700   2707     1  0.0000000  0.6508444  3
   2703   2701   2700   2729     1  0.0000000  0.6508444  3
   2703   2701   2713   2725     1  0.0000000  0.6508444  3
   2703   2701   2713   2714     1  0.0000000  0.6508444  3
   2703   2701   2713   2715     1  0.0000000  0.6508444  3
   2704   2700   2707   2708     1  0.0000000  0.6508444  3
   2704   2700   2707   2709     1  0.0000000  0.6508444  3
   2704   2716   2722   2723     1  0.0000000  0.6508444  3
   2704   2716   2722   2724     1  0.0000000  0.6508444  3
   2705   2704   2700   2707     1  0.0000000  0.6508444  3
   2705   2704   2700   2729     1  0.0000000  0.6508444  3
   2705   2704   2716   2722     1  0.0000000  0.6508444  3
   2705   2704   2716   2717     1  0.0000000  0.6508444  3
   2705   2704   2716   2718     1  0.0000000  0.6508444  3
   2706   2704   2700   2707     1  0.0000000  0.6508444  3
   2706   2704   2700   2729     1  0.0000000  0.6508444  3
   2706   2704   2716   2722     1  0.0000000  0.6508444  3
   2706   2704   2716   2717     1  0.0000000  0.6508444  3
   2706   2704   2716   2718     1  0.0000000  0.6508444  3
   2707   2710   2719   2720     1  0.0000000  0.6508444  3
   2707   2710   2719   2721     1  0.0000000  0.6508444  3
   2708   2707   2700   2729     1  0.0000000  0.6508444  3
   2708   2707   2710   2719     1  0.0000000  0.6508444  3
   2708   2707   2710   2711     1  0.0000000  0.6508444  3
   2708   2707   2710   2712     1  0.0000000  0.6508444  3
   2709   2707   2700   2729     1  0.0000000  0.6508444  3
   2709   2707   2710   2719     1  0.0000000  0.6508444  3
   2709   2707   2710   2711     1  0.0000000  0.6508444  3
   2709   2707   2710   2712     1  0.0000000  0.6508444  3
   2710   2707   2700   2729     1  0.0000000  0.6508444  3
   2711   2710   2719   2728     1  0.0000000  1.0460000  1
   2711   2710   2719   2728     1  0.0000000  0.0000000  3
   2711   2710   2719   2720     1  0.0000000  0.6508444  3
   2711   2710   2719   2721     1  0.0000000  0.6508444  3
   2712   2710   2719   2728     1  0.0000000  1.0460000  1
   2712   2710   2719   2728     1  0.0000000  0.0000000  3
   2712   2710   2719   2720     1  0.0000000  0.6508444  3
   2712   2710   2719   2721     1  0.0000000  0.6508444  3
   2713   2701   2700   2729     1  0.0000000  0.6508444  3
   2714   2713   2725   5518     1  0.0000000  1.0460000  1
   2714   2713   2725   5518     1  0.0000000  0.0000000  3
   2714   2713   2725   2726     1  0.0000000  0.6508444  3
   2714   2713   2725   2727     1  0.0000000  0.6508444  3
   2715   2713   2725   5518     1  0.0000000  1.0460000  1
   2715   2713   2725   5518     1  0.0000000  0.0000000  3
   2715   2713   2725   2726     1  0.0000000  0.6508444  3
   2715   2713   2725   2727     1  0.0000000  0.6508444  3
   2716   2704   2700   2729     1  0.0000000  0.6508444  3
   2717   2716   2722   5488     1  0.0000000  1.0460000  1
   2717   2716   2722   5488     1  0.0000000  0.0000000  3
   2717   2716   2722   2723     1  0.0000000  0.6508444  3
   2717   2716   2722   2724     1  0.0000000  0.6508444  3
   2718   2716   2722   5488     1  0.0000000  1.0460000  1
   2718   2716   2722   5488     1  0.0000000  0.0000000  3
   2718   2716   2722   2723     1  0.0000000  0.6508444  3
   2718   2716   2722   2724     1  0.0000000  0.6508444  3
   2722   5488   5479   5480     1  0.0000000  1.6038667  3
   2722   5488   5479   5481     1  0.0000000  1.6038667  3
   2723   2722   5488   5479     1  0.0000000  1.6038667  3
   2724   2722   5488   5479     1  0.0000000  1.6038667  3
   2725   5518   5509   5510     1  0.0000000  1.6038667  3
   2725   5518   5509   5511     1  0.0000000  1.6038667  3
   2726   2725   5518   5509     1  0.0000000  1.6038667  3
   2727   2725   5518   5509     1  0.0000000  1.6038667  3
   2730   2731   2743   2744     1  0.0000000  0.6508444  3
   2730   2731   2743   2745     1  0.0000000  0.6508444  3
   2730   2734   2746   2747     1  0.0000000  0.6508444  3
   2730   2734   2746   2748     1  0.0000000  0.6508444  3
   2730   2737   2740   2741     1  0.0000000  0.6508444  3
   2730   2737   2740   2742     1  0.0000000  0.6508444  3
   2731   2730   2734   2735     1  0.0000000  0.6508444  3
   2731   2730   2734   2736     1  0.0000000  0.6508444  3
   2731   2730   2737   2738     1  0.0000000  0.6508444  3
   2731   2730   2737   2739     1  0.0000000  0.6508444  3
   2731   2743   2755   2756     1  0.0000000  0.6508444  3
   2731   2743   2755   2757     1  0.0000000  0.6508444  3
   2732   2731   2730   2734     1  0.0000000  0.6508444  3
   2732   2731   2730   2737     1  0.0000000  0.6508444  3
   2732   2731   2730   2759     1  0.0000000  0.6508444  3
   2732   2731   2743   2755     1  0.0000000  0.6508444  3
   2732   2731   2743   2744     1  0.0000000  0.6508444  3
   2732   2731   2743   2745     1  0.0000000  0.6508444  3
   2733   2731   2730   2734     1  0.0000000  0.6508444  3
   2733   2731   2730   2737     1  0.0000000  0.6508444  3
   2733   2731   2730   2759     1  0.0000000  0.6508444  3
   2733   2731   2743   2755     1  0.0000000  0.6508444  3
   2733   2731   2743   2744     1  0.0000000  0.6508444  3
   2733   2731   2743   2745     1  0.0000000  0.6508444  3
   2734   2730   2737   2738     1  0.0000000  0.6508444  3
   2734   2730   2737   2739     1  0.0000000  0.6508444  3
   2734   2746   2752   2753     1  0.0000000  0.6508444  3
   2734   2746   2752   2754     1  0.0000000  0.6508444  3
   2735   2734   2730   2737     1  0.0000000  0.6508444  3
   2735   2734   2730   2759     1  0.0000000  0.6508444  3
   2735   2734   2746   2752     1  0.0000000  0.6508444  3
   2735   2734   2746   2747     1  0.0000000  0.6508444  3
   2735   2734   2746   2748     1  0.0000000  0.6508444  3
   2736   2734   2730   2737     1  0.0000000  0.6508444  3
   2736   2734   2730   2759     1  0.0000000  0.6508444  3
   2736   2734   2746   2752     1  0.0000000  0.6508444  3
   2736   2734   2746   2747     1  0.0000000  0.6508444  3
   2736   2734   2746   2748     1  0.0000000  0.6508444  3
   2737   2740   2749   2750     1  0.0000000  0.6508444  3
   2737   2740   2749   2751     1  0.0000000  0.6508444  3
   2738   2737   2730   2759     1  0.0000000  0.6508444  3
   2738   2737   2740   2749     1  0.0000000  0.6508444  3
   2738   2737   2740   2741     1  0.0000000  0.6508444  3
   2738   2737   2740   2742     1  0.0000000  0.6508444  3
   2739   2737   2730   2759     1  0.0000000  0.6508444  3
   2739   2737   2740   2749     1  0.0000000  0.6508444  3
   2739   2737   2740   2741     1  0.0000000  0.6508444  3
   2739   2737   2740   2742     1  0.0000000  0.6508444  3
   2740   2737   2730   2759     1  0.0000000  0.6508444  3
   2741   2740   2749   2758     1  0.0000000  1.0460000  1
   2741   2740   2749   2758     1  0.0000000  0.0000000  3
   2741   2740   2749   2750     1  0.0000000  0.6508444  3
   2741   2740   2749   2751     1  0.0000000  0.6508444  3
   2742   2740   2749   2758     1  0.0000000  1.0460000  1
   2742   2740   2749   2758     1  0.0000000  0.0000000  3
   2742   2740   2749   2750     1  0.0000000  0.6508444  3
   2742   2740   2749   2751     1  0.0000000  0.6508444  3
   2743   2731   2730   2759     1  0.0000000  0.6508444  3
   2744   2743   2755   5578     1  0.0000000  1.0460000  1
   2744   2743   2755   5578     1  0.0000000  0.0000000  3
   2744   2743   2755   2756     1  0.0000000  0.6508444  3
   2744   2743   2755   2757     1  0.0000000  0.6508444  3
   2745   2743   2755   5578     1  0.0000000  1.0460000  1
   2745   2743   2755   5578     1  0.0000000  0.0000000  3
   2745   2743   2755   2756     1  0.0000000  0.6508444  3
   2745   2743   2755   2757     1  0.0000000  0.6508444  3
   2746   2734   2730   2759     1  0.0000000  0.6508444  3
   2747   2746   2752   5548     1  0.0000000  1.0460000  1
   2747   2746   2752   5548     1  0.0000000  0.0000000  3
   2747   2746   2752   2753     1  0.0000000  0.6508444  3
   2747   2746   2752   2754     1  0.0000000  0.6508444  3
   2748   2746   2752   5548     1  0.0000000  1.0460000  1
   2748   2746   2752   5548     1  0.0000000  0.0000000  3
   2748   2746   2752   2753     1  0.0000000  0.6508444  3
   2748   2746   2752   2754     1  0.0000000  0.6508444  3
   2752   5548   5539   5540     1  0.0000000  1.6038667  3
   2752   5548   5539   5541     1  0.0000000  1.6038667  3
   2753   2752   5548   5539     1  0.0000000  1.6038667  3
   2754   2752   5548   5539     1  0.0000000  1.6038667  3
   2755   5578   5569   5570     1  0.0000000  1.6038667  3
   2755   5578   5569   5571     1  0.0000000  1.6038667  3
   2756   2755   5578   5569     1  0.0000000  1.6038667  3
   2757   2755   5578   5569     1  0.0000000  1.6038667  3
   2760   2761   2773   2774     1  0.0000000  0.6508444  3
   2760   2761   2773   2775     1  0.0000000  0.6508444  3
   2760   2764   2776   2777     1  0.0000000  0.6508444  3
   2760   2764   2776   2778     1  0.0000000  0.6508444  3
   2760   2767   2770   2771     1  0.0000000  0.6508444  3
   2760   2767   2770   2772     1  0.0000000  0.6508444  3
   2761   2760   2764   2765     1  0.0000000  0.6508444  3
   2761   2760   2764   2766     1  0.0000000  0.6508444  3
   2761   2760   2767   2768     1  0.0000000  0.6508444  3
   2761   2760   2767   2769     1  0.0000000  0.6508444  3
   2761   2773   2785   2786     1  0.0000000  0.6508444  3
   2761   2773   2785   2787     1  0.0000000  0.6508444  3
   2762   2761   2760   2764     1  0.0000000  0.6508444  3
   2762   2761   2760   2767     1  0.0000000  0.6508444  3
   2762   2761   2760   2789     1  0.0000000  0.6508444  3
   2762   2761   2773   2785     1  0.0000000  0.6508444  3
   2762   2761   2773   2774     1  0.0000000  0.6508444  3
   2762   2761   2773   2775     1  0.0000000  0.6508444  3
   2763   2761   2760   2764     1  0.0000000  0.6508444  3
   2763   2761   2760   2767     1  0.0000000  0.6508444  3
   2763   2761   2760   2789     1  0.0000000  0.6508444  3
   2763   2761   2773   2785     1  0.0000000  0.6508444  3
   2763   2761   2773   2774     1  0.0000000  0.6508444  3
   2763   2761   2773   2775     1  0.0000000  0.6508444  3
   2764   2760   2767   2768     1  0.0000000  0.6508444  3
   2764   2760   2767   2769     1  0.0000000  0.6508444  3
   2764   2776   2782   2783     1  0.0000000  0.6508444  3
   2764   2776   2782   2784     1  0.0000000  0.6508444  3
   2765   2764   2760   2767     1  0.0000000  0.6508444  3
   2765   2764   2760   2789     1  0.0000000  0.6508444  3
   2765   2764   2776   2782     1  0.0000000  0.6508444  3
   2765   2764   2776   2777     1  0.0000000  0.6508444  3
   2765   2764   2776   2778     1  0.0000000  0.6508444  3
   2766   2764   2760   2767     1  0.0000000  0.6508444  3
   2766   2764   2760   2789     1  0.0000000  0.6508444  3
   2766   2764   2776   2782     1  0.0000000  0.6508444  3
   2766   2764   2776   2777     1  0.0000000  0.6508444  3
   2766   2764   2776   2778     1  0.0000000  0.6508444  3
   2767   2770   2779   2780     1  0.0000000  0.6508444  3
   2767   2770   2779   2781     1  0.0000000  0.6508444  3
   2768   2767   2760   2789     1  0.0000000  0.6508444  3
   2768   2767   2770   2779     1  0.0000000  0.6508444  3
   2768   2767   2770   2771     1  0.0000000  0.6508444  3
   2768   2767   2770   2772     1  0.0000000  0.6508444  3
   2769   2767   2760   2789     1  0.0000000  0.6508444  3
   2769   2767   2770   2779     1  0.0000000  0.6508444  3
   2769   2767   2770   2771     1  0.0000000  0.6508444  3
   2769   2767   2770   2772     1  0.0000000  0.6508444  3
   2770   2767   2760   2789     1  0.0000000  0.6508444  3
   2771   2770   2779   2788     1  0.0000000  1.0460000  1
   2771   2770   2779   2788     1  0.0000000  0.0000000  3
   2771   2770   2779   2780     1  0.0000000  0.6508444  3
   2771   2770   2779   2781     1  0.0000000  0.6508444  3
   2772   2770   2779   2788     1  0.0000000  1.0460000  1
   2772   2770   2779   2788     1  0.0000000  0.0000000  3
   2772   2770   2779   2780     1  0.0000000  0.6508444  3
   2772   2770   2779   2781     1  0.0000000  0.6508444  3
   2773   2761   2760   2789     1  0.0000000  0.6508444  3
   2774   2773   2785   5638     1  0.0000000  1.0460000  1
   2774   2773   2785   5638     1  0.0000000  0.0000000  3
   2774   2773   2785   2786     1  0.0000000  0.6508444  3
   2774   2773   2785   2787     1  0.0000000  0.6508444  3
   2775   2773   2785   5638     1  0.0000000  1.0460000  1
   2775   2773   2785   5638     1  0.0000000  0.0000000  3
   2775   2773   2785   2786     1  0.0000000  0.6508444  3
   2775   2773   2785   2787     1  0.0000000  0.6508444  3
   2776   2764   2760   2789     1  0.0000000  0.6508444  3
   2777   2776   2782   5608     1  0.0000000  1.0460000  1
   2777   2776   2782   5608     1  0.0000000  0.0000000  3
   2777   2776   2782   2783     1  0.0000000  0.6508444  3
   2777   2776   2782   2784     1  0.0000000  0.6508444  3
   2778   2776   2782   5608     1  0.0000000  1.0460000  1
   2778   2776   2782   5608     1  0.0000000  0.0000000  3
   2778   2776   2782   2783     1  0.0000000  0.6508444  3
   2778   2776   2782   2784     1  0.0000000  0.6508444  3
   2782   5608   5599   5600     1  0.0000000  1.6038667  3
   2782   5608   5599   5601     1  0.0000000  1.6038667  3
   2783   2782   5608   5599     1  0.0000000  1.6038667  3
   2784   2782   5608   5599     1  0.0000000  1.6038667  3
   2785   5638   5629   5630     1  0.0000000  1.6038667  3
   2785   5638   5629   5631     1  0.0000000  1.6038667  3
   2786   2785   5638   5629     1  0.0000000  1.6038667  3
   2787   2785   5638   5629     1  0.0000000  1.6038667  3
   2790   2791   2803   2804     1  0.0000000  0.6508444  3
   2790   2791   2803   2805     1  0.0000000  0.6508444  3
   2790   2794   2806   2807     1  0.0000000  0.6508444  3
   2790   2794   2806   2808     1  0.0000000  0.6508444  3
   2790   2797   2800   2801     1  0.0000000  0.6508444  3
   2790   2797   2800   2802     1  0.0000000  0.6508444  3
   2791   2790   2794   2795     1  0.0000000  0.6508444  3
   2791   2790   2794   2796     1  0.0000000  0.6508444  3
   2791   2790   2797   2798     1  0.0000000  0.6508444  3
   2791   2790   2797   2799     1  0.0000000  0.6508444  3
   2791   2803   2815   2816     1  0.0000000  0.6508444  3
   2791   2803   2815   2817     1  0.0000000  0.6508444  3
   2792   2791   2790   2794     1  0.0000000  0.6508444  3
   2792   2791   2790   2797     1  0.0000000  0.6508444  3
   2792   2791   2790   2819     1  0.0000000  0.6508444  3
   2792   2791   2803   2815     1  0.0000000  0.6508444  3
   2792   2791   2803   2804     1  0.0000000  0.6508444  3
   2792   2791   2803   2805     1  0.0000000  0.6508444  3
   2793   2791   2790   2794     1  0.0000000  0.6508444  3
   2793   2791   2790   2797     1  0.0000000  0.6508444  3
   2793   2791   2790   2819     1  0.0000000  0.6508444  3
   2793   2791   2803   2815     1  0.0000000  0.6508444  3
   2793   2791   2803   2804     1  0.0000000  0.6508444  3
   2793   2791   2803   2805     1  0.0000000  0.6508444  3
   2794   2790   2797   2798     1  0.0000000  0.6508444  3
   2794   2790   2797   2799     1  0.0000000  0.6508444  3
   2794   2806   2812   2813     1  0.0000000  0.6508444  3
   2794   2806   2812   2814     1  0.0000000  0.6508444  3
   2795   2794   2790   2797     1  0.0000000  0.6508444  3
   2795   2794   2790   2819     1  0.0000000  0.6508444  3
   2795   2794   2806   2812     1  0.0000000  0.6508444  3
   2795   2794   2806   2807     1  0.0000000  0.6508444  3
   2795   2794   2806   2808     1  0.0000000  0.6508444  3
   2796   2794   2790   2797     1  0.0000000  0.6508444  3
   2796   2794   2790   2819     1  0.0000000  0.6508444  3
   2796   2794   2806   2812     1  0.0000000  0.6508444  3
   2796   2794   2806   2807     1  0.0000000  0.6508444  3
   2796   2794   2806   2808     1  0.0000000  0.6508444  3
   2797   2800   2809   2810     1  0.0000000  0.6508444  3
   2797   2800   2809   2811     1  0.0000000  0.6508444  3
   2798   2797   2790   2819     1  0.0000000  0.6508444  3
   2798   2797   2800   2809     1  0.0000000  0.6508444  3
   2798   2797   2800   2801     1  0.0000000  0.6508444  3
   2798   2797   2800   2802     1  0.0000000  0.6508444  3
   2799   2797   2790   2819     1  0.0000000  0.6508444  3
   2799   2797   2800   2809     1  0.0000000  0.6508444  3
   2799   2797   2800   2801     1  0.0000000  0.6508444  3
   2799   2797   2800   2802     1  0.0000000  0.6508444  3
   2800   2797   2790   2819     1  0.0000000  0.6508444  3
   2801   2800   2809   2818     1  0.0000000  1.0460000  1
   2801   2800   2809   2818     1  0.0000000  0.0000000  3
   2801   2800   2809   2810     1  0.0000000  0.6508444  3
   2801   2800   2809   2811     1  0.0000000  0.6508444  3
   2802   2800   2809   2818     1  0.0000000  1.0460000  1
   2802   2800   2809   2818     1  0.0000000  0.0000000  3
   2802   2800   2809   2810     1  0.0000000  0.6508444  3
   2802   2800   2809   2811     1  0.0000000  0.6508444  3
   2803   2791   2790   2819     1  0.0000000  0.6508444  3
   2804   2803   2815   5698     1  0.0000000  1.0460000  1
   2804   2803   2815   5698     1  0.0000000  0.0000000  3
   2804   2803   2815   2816     1  0.0000000  0.6508444  3
   2804   2803   2815   2817     1  0.0000000  0.6508444  3
   2805   2803   2815   5698     1  0.0000000  1.0460000  1
   2805   2803   2815   5698     1  0.0000000  0.0000000  3
   2805   2803   2815   2816     1  0.0000000  0.6508444  3
   2805   2803   2815   2817     1  0.0000000  0.6508444  3
   2806   2794   2790   2819     1  0.0000000  0.6508444  3
   2807   2806   2812   5668     1  0.0000000  1.0460000  1
   2807   2806   2812   5668     1  0.0000000  0.0000000  3
   2807   2806   2812   2813     1  0.0000000  0.6508444  3
   2807   2806   2812   2814     1  0.0000000  0.6508444  3
   2808   2806   2812   5668     1  0.0000000  1.0460000  1
   2808   2806   2812   5668     1  0.0000000  0.0000000  3
   2808   2806   2812   2813     1  0.0000000  0.6508444  3
   2808   2806   2812   2814     1  0.0000000  0.6508444  3
   2812   5668   5659   5660     1  0.0000000  1.6038667  3
   2812   5668   5659   5661     1  0.0000000  1.6038667  3
   2813   2812   5668   5659     1  0.0000000  1.6038667  3
   2814   2812   5668   5659     1  0.0000000  1.6038667  3
   2815   5698   5689   5690     1  0.0000000  1.6038667  3
   2815   5698   5689   5691     1  0.0000000  1.6038667  3
   2816   2815   5698   5689     1  0.0000000  1.6038667  3
   2817   2815   5698   5689     1  0.0000000  1.6038667  3
   2820   2821   2833   2834     1  0.0000000  0.6508444  3
   2820   2821   2833   2835     1  0.0000000  0.6508444  3
   2820   2824   2836   2837     1  0.0000000  0.6508444  3
   2820   2824   2836   2838     1  0.0000000  0.6508444  3
   2820   2827   2830   2831     1  0.0000000  0.6508444  3
   2820   2827   2830   2832     1  0.0000000  0.6508444  3
   2821   2820   2824   2825     1  0.0000000  0.6508444  3
   2821   2820   2824   2826     1  0.0000000  0.6508444  3
   2821   2820   2827   2828     1  0.0000000  0.6508444  3
   2821   2820   2827   2829     1  0.0000000  0.6508444  3
   2821   2833   2845   2846     1  0.0000000  0.6508444  3
   2821   2833   2845   2847     1  0.0000000  0.6508444  3
   2822   2821   2820   2824     1  0.0000000  0.6508444  3
   2822   2821   2820   2827     1  0.0000000  0.6508444  3
   2822   2821   2820   2849     1  0.0000000  0.6508444  3
   2822   2821   2833   2845     1  0.0000000  0.6508444  3
   2822   2821   2833   2834     1  0.0000000  0.6508444  3
   2822   2821   2833   2835     1  0.0000000  0.6508444  3
   2823   2821   2820   2824     1  0.0000000  0.6508444  3
   2823   2821   2820   2827     1  0.0000000  0.6508444  3
   2823   2821   2820   2849     1  0.0000000  0.6508444  3
   2823   2821   2833   2845     1  0.0000000  0.6508444  3
   2823   2821   2833   2834     1  0.0000000  0.6508444  3
   2823   2821   2833   2835     1  0.0000000  0.6508444  3
   2824   2820   2827   2828     1  0.0000000  0.6508444  3
   2824   2820   2827   2829     1  0.0000000  0.6508444  3
   2824   2836   2842   2843     1  0.0000000  0.6508444  3
   2824   2836   2842   2844     1  0.0000000  0.6508444  3
   2825   2824   2820   2827     1  0.0000000  0.6508444  3
   2825   2824   2820   2849     1  0.0000000  0.6508444  3
   2825   2824   2836   2842     1  0.0000000  0.6508444  3
   2825   2824   2836   2837     1  0.0000000  0.6508444  3
   2825   2824   2836   2838     1  0.0000000  0.6508444  3
   2826   2824   2820   2827     1  0.0000000  0.6508444  3
   2826   2824   2820   2849     1  0.0000000  0.6508444  3
   2826   2824   2836   2842     1  0.0000000  0.6508444  3
   2826   2824   2836   2837     1  0.0000000  0.6508444  3
   2826   2824   2836   2838     1  0.0000000  0.6508444  3
   2827   2830   2839   2840     1  0.0000000  0.6508444  3
   2827   2830   2839   2841     1  0.0000000  0.6508444  3
   2828   2827   2820   2849     1  0.0000000  0.6508444  3
   2828   2827   2830   2839     1  0.0000000  0.6508444  3
   2828   2827   2830   2831     1  0.0000000  0.6508444  3
   2828   2827   2830   2832     1  0.0000000  0.6508444  3
   2829   2827   2820   2849     1  0.0000000  0.6508444  3
   2829   2827   2830   2839     1  0.0000000  0.6508444  3
   2829   2827   2830   2831     1  0.0000000  0.6508444  3
   2829   2827   2830   2832     1  0.0000000  0.6508444  3
   2830   2827   2820   2849     1  0.0000000  0.6508444  3
   2831   2830   2839   2848     1  0.0000000  1.0460000  1
   2831   2830   2839   2848     1  0.0000000  0.0000000  3
   2831   2830   2839   2840     1  0.0000000  0.6508444  3
   2831   2830   2839   2841     1  0.0000000  0.6508444  3
   2832   2830   2839   2848     1  0.0000000  1.0460000  1
   2832   2830   2839   2848     1  0.0000000  0.0000000  3
   2832   2830   2839   2840     1  0.0000000  0.6508444  3
   2832   2830   2839   2841     1  0.0000000  0.6508444  3
   2833   2821   2820   2849     1  0.0000000  0.6508444  3
   2834   2833   2845   5758     1  0.0000000  1.0460000  1
   2834   2833   2845   5758     1  0.0000000  0.0000000  3
   2834   2833   2845   2846     1  0.0000000  0.6508444  3
   2834   2833   2845   2847     1  0.0000000  0.6508444  3
   2835   2833   2845   5758     1  0.0000000  1.0460000  1
   2835   2833   2845   5758     1  0.0000000  0.0000000  3
   2835   2833   2845   2846     1  0.0000000  0.6508444  3
   2835   2833   2845   2847     1  0.0000000  0.6508444  3
   2836   2824   2820   2849     1  0.0000000  0.6508444  3
   2837   2836   2842   5728     1  0.0000000  1.0460000  1
   2837   2836   2842   5728     1  0.0000000  0.0000000  3
   2837   2836   2842   2843     1  0.0000000  0.6508444  3
   2837   2836   2842   2844     1  0.0000000  0.6508444  3
   2838   2836   2842   5728     1  0.0000000  1.0460000  1
   2838   2836   2842   5728     1  0.0000000  0.0000000  3
   2838   2836   2842   2843     1  0.0000000  0.6508444  3
   2838   2836   2842   2844     1  0.0000000  0.6508444  3
   2842   5728   5719   5720     1  0.0000000  1.6038667  3
   2842   5728   5719   5721     1  0.0000000  1.6038667  3
   2843   2842   5728   5719     1  0.0000000  1.6038667  3
   2844   2842   5728   5719     1  0.0000000  1.6038667  3
   2845   5758   5749   5750     1  0.0000000  1.6038667  3
   2845   5758   5749   5751     1  0.0000000  1.6038667  3
   2846   2845   5758   5749     1  0.0000000  1.6038667  3
   2847   2845   5758   5749     1  0.0000000  1.6038667  3
   2850   2851   2863   2864     1  0.0000000  0.6508444  3
   2850   2851   2863   2865     1  0.0000000  0.6508444  3
   2850   2854   2866   2867     1  0.0000000  0.6508444  3
   2850   2854   2866   2868     1  0.0000000  0.6508444  3
   2850   2857   2860   2861     1  0.0000000  0.6508444  3
   2850   2857   2860   2862     1  0.0000000  0.6508444  3
   2851   2850   2854   2855     1  0.0000000  0.6508444  3
   2851   2850   2854   2856     1  0.0000000  0.6508444  3
   2851   2850   2857   2858     1  0.0000000  0.6508444  3
   2851   2850   2857   2859     1  0.0000000  0.6508444  3
   2851   2863   2875   2876     1  0.0000000  0.6508444  3
   2851   2863   2875   2877     1  0.0000000  0.6508444  3
   2852   2851   2850   2854     1  0.0000000  0.6508444  3
   2852   2851   2850   2857     1  0.0000000  0.6508444  3
   2852   2851   2850   2879     1  0.0000000  0.6508444  3
   2852   2851   2863   2875     1  0.0000000  0.6508444  3
   2852   2851   2863   2864     1  0.0000000  0.6508444  3
   2852   2851   2863   2865     1  0.0000000  0.6508444  3
   2853   2851   2850   2854     1  0.0000000  0.6508444  3
   2853   2851   2850   2857     1  0.0000000  0.6508444  3
   2853   2851   2850   2879     1  0.0000000  0.6508444  3
   2853   2851   2863   2875     1  0.0000000  0.6508444  3
   2853   2851   2863   2864     1  0.0000000  0.6508444  3
   2853   2851   2863   2865     1  0.0000000  0.6508444  3
   2854   2850   2857   2858     1  0.0000000  0.6508444  3
   2854   2850   2857   2859     1  0.0000000  0.6508444  3
   2854   2866   2872   2873     1  0.0000000  0.6508444  3
   2854   2866   2872   2874     1  0.0000000  0.6508444  3
   2855   2854   2850   2857     1  0.0000000  0.6508444  3
   2855   2854   2850   2879     1  0.0000000  0.6508444  3
   2855   2854   2866   2872     1  0.0000000  0.6508444  3
   2855   2854   2866   2867     1  0.0000000  0.6508444  3
   2855   2854   2866   2868     1  0.0000000  0.6508444  3
   2856   2854   2850   2857     1  0.0000000  0.6508444  3
   2856   2854   2850   2879     1  0.0000000  0.6508444  3
   2856   2854   2866   2872     1  0.0000000  0.6508444  3
   2856   2854   2866   2867     1  0.0000000  0.6508444  3
   2856   2854   2866   2868     1  0.0000000  0.6508444  3
   2857   2860   2869   2870     1  0.0000000  0.6508444  3
   2857   2860   2869   2871     1  0.0000000  0.6508444  3
   2858   2857   2850   2879     1  0.0000000  0.6508444  3
   2858   2857   2860   2869     1  0.0000000  0.6508444  3
   2858   2857   2860   2861     1  0.0000000  0.6508444  3
   2858   2857   2860   2862     1  0.0000000  0.6508444  3
   2859   2857   2850   2879     1  0.0000000  0.6508444  3
   2859   2857   2860   2869     1  0.0000000  0.6508444  3
   2859   2857   2860   2861     1  0.0000000  0.6508444  3
   2859   2857   2860   2862     1  0.0000000  0.6508444  3
   2860   2857   2850   2879     1  0.0000000  0.6508444  3
   2861   2860   2869   2878     1  0.0000000  1.0460000  1
   2861   2860   2869   2878     1  0.0000000  0.0000000  3
   2861   2860   2869   2870     1  0.0000000  0.6508444  3
   2861   2860   2869   2871     1  0.0000000  0.6508444  3
   2862   2860   2869   2878     1  0.0000000  1.0460000  1
   2862   2860   2869   2878     1  0.0000000  0.0000000  3
   2862   2860   2869   2870     1  0.0000000  0.6508444  3
   2862   2860   2869   2871     1  0.0000000  0.6508444  3
   2863   2851   2850   2879     1  0.0000000  0.6508444  3
   2864   2863   2875   5818     1  0.0000000  1.0460000  1
   2864   2863   2875   5818     1  0.0000000  0.0000000  3
   2864   2863   2875   2876     1  0.0000000  0.6508444  3
   2864   2863   2875   2877     1  0.0000000  0.6508444  3
   2865   2863   2875   5818     1  0.0000000  1.0460000  1
   2865   2863   2875   5818     1  0.0000000  0.0000000  3
   2865   2863   2875   2876     1  0.0000000  0.6508444  3
   2865   2863   2875   2877     1  0.0000000  0.6508444  3
   2866   2854   2850   2879     1  0.0000000  0.6508444  3
   2867   2866   2872   5788     1  0.0000000  1.0460000  1
   2867   2866   2872   5788     1  0.0000000  0.0000000  3
   2867   2866   2872   2873     1  0.0000000  0.6508444  3
   2867   2866   2872   2874     1  0.0000000  0.6508444  3
   2868   2866   2872   5788     1  0.0000000  1.0460000  1
   2868   2866   2872   5788     1  0.0000000  0.0000000  3
   2868   2866   2872   2873     1  0.0000000  0.6508444  3
   2868   2866   2872   2874     1  0.0000000  0.6508444  3
   2872   5788   5779   5780     1  0.0000000  1.6038667  3
   2872   5788   5779   5781     1  0.0000000  1.6038667  3
   2873   2872   5788   5779     1  0.0000000  1.6038667  3
   2874   2872   5788   5779     1  0.0000000  1.6038667  3
   2875   5818   5809   5810     1  0.0000000  1.6038667  3
   2875   5818   5809   5811     1  0.0000000  1.6038667  3
   2876   2875   5818   5809     1  0.0000000  1.6038667  3
   2877   2875   5818   5809     1  0.0000000  1.6038667  3
   2880   2881   2893   2894     1  0.0000000  0.6508444  3
   2880   2881   2893   2895     1  0.0000000  0.6508444  3
   2880   2884   2896   2897     1  0.0000000  0.6508444  3
   2880   2884   2896   2898     1  0.0000000  0.6508444  3
   2880   2887   2890   2891     1  0.0000000  0.6508444  3
   2880   2887   2890   2892     1  0.0000000  0.6508444  3
   2881   2880   2884   2885     1  0.0000000  0.6508444  3
   2881   2880   2884   2886     1  0.0000000  0.6508444  3
   2881   2880   2887   2888     1  0.0000000  0.6508444  3
   2881   2880   2887   2889     1  0.0000000  0.6508444  3
   2881   2893   2905   2906     1  0.0000000  0.6508444  3
   2881   2893   2905   2907     1  0.0000000  0.6508444  3
   2882   2881   2880   2884     1  0.0000000  0.6508444  3
   2882   2881   2880   2887     1  0.0000000  0.6508444  3
   2882   2881   2880   2909     1  0.0000000  0.6508444  3
   2882   2881   2893   2905     1  0.0000000  0.6508444  3
   2882   2881   2893   2894     1  0.0000000  0.6508444  3
   2882   2881   2893   2895     1  0.0000000  0.6508444  3
   2883   2881   2880   2884     1  0.0000000  0.6508444  3
   2883   2881   2880   2887     1  0.0000000  0.6508444  3
   2883   2881   2880   2909     1  0.0000000  0.6508444  3
   2883   2881   2893   2905     1  0.0000000  0.6508444  3
   2883   2881   2893   2894     1  0.0000000  0.6508444  3
   2883   2881   2893   2895     1  0.0000000  0.6508444  3
   2884   2880   2887   2888     1  0.0000000  0.6508444  3
   2884   2880   2887   2889     1  0.0000000  0.6508444  3
   2884   2896   2902   2903     1  0.0000000  0.6508444  3
   2884   2896   2902   2904     1  0.0000000  0.6508444  3
   2885   2884   2880   2887     1  0.0000000  0.6508444  3
   2885   2884   2880   2909     1  0.0000000  0.6508444  3
   2885   2884   2896   2902     1  0.0000000  0.6508444  3
   2885   2884   2896   2897     1  0.0000000  0.6508444  3
   2885   2884   2896   2898     1  0.0000000  0.6508444  3
   2886   2884   2880   2887     1  0.0000000  0.6508444  3
   2886   2884   2880   2909     1  0.0000000  0.6508444  3
   2886   2884   2896   2902     1  0.0000000  0.6508444  3
   2886   2884   2896   2897     1  0.0000000  0.6508444  3
   2886   2884   2896   2898     1  0.0000000  0.6508444  3
   2887   2890   2899   2900     1  0.0000000  0.6508444  3
   2887   2890   2899   2901     1  0.0000000  0.6508444  3
   2888   2887   2880   2909     1  0.0000000  0.6508444  3
   2888   2887   2890   2899     1  0.0000000  0.6508444  3
   2888   2887   2890   2891     1  0.0000000  0.6508444  3
   2888   2887   2890   2892     1  0.0000000  0.6508444  3
   2889   2887   2880   2909     1  0.0000000  0.6508444  3
   2889   2887   2890   2899     1  0.0000000  0.6508444  3
   2889   2887   2890   2891     1  0.0000000  0.6508444  3
   2889   2887   2890   2892     1  0.0000000  0.6508444  3
   2890   2887   2880   2909     1  0.0000000  0.6508444  3
   2891   2890   2899   2908     1  0.0000000  1.0460000  1
   2891   2890   2899   2908     1  0.0000000  0.0000000  3
   2891   2890   2899   2900     1  0.0000000  0.6508444  3
   2891   2890   2899   2901     1  0.0000000  0.6508444  3
   2892   2890   2899   2908     1  0.0000000  1.0460000  1
   2892   2890   2899   2908     1  0.0000000  0.0000000  3
   2892   2890   2899   2900     1  0.0000000  0.6508444  3
   2892   2890   2899   2901     1  0.0000000  0.6508444  3
   2893   2881   2880   2909     1  0.0000000  0.6508444  3
   2894   2893   2905   5878     1  0.0000000  1.0460000  1
   2894   2893   2905   5878     1  0.0000000  0.0000000  3
   2894   2893   2905   2906     1  0.0000000  0.6508444  3
   2894   2893   2905   2907     1  0.0000000  0.6508444  3
   2895   2893   2905   5878     1  0.0000000  1.0460000  1
   2895   2893   2905   5878     1  0.0000000  0.0000000  3
   2895   2893   2905   2906     1  0.0000000  0.6508444  3
   2895   2893   2905   2907     1  0.0000000  0.6508444  3
   2896   2884   2880   2909     1  0.0000000  0.6508444  3
   2897   2896   2902   5848     1  0.0000000  1.0460000  1
   2897   2896   2902   5848     1  0.0000000  0.0000000  3
   2897   2896   2902   2903     1  0.0000000  0.6508444  3
   2897   2896   2902   2904     1  0.0000000  0.6508444  3
   2898   2896   2902   5848     1  0.0000000  1.0460000  1
   2898   2896   2902   5848     1  0.0000000  0.0000000  3
   2898   2896   2902   2903     1  0.0000000  0.6508444  3
   2898   2896   2902   2904     1  0.0000000  0.6508444  3
   2902   5848   5839   5840     1  0.0000000  1.6038667  3
   2902   5848   5839   5841     1  0.0000000  1.6038667  3
   2903   2902   5848   5839     1  0.0000000  1.6038667  3
   2904   2902   5848   5839     1  0.0000000  1.6038667  3
   2905   5878   5869   5870     1  0.0000000  1.6038667  3
   2905   5878   5869   5871     1  0.0000000  1.6038667  3
   2906   2905   5878   5869     1  0.0000000  1.6038667  3
   2907   2905   5878   5869     1  0.0000000  1.6038667  3
   2910   2911   2923   2924     1  0.0000000  0.6508444  3
   2910   2911   2923   2925     1  0.0000000  0.6508444  3
   2910   2914   2926   2927     1  0.0000000  0.6508444  3
   2910   2914   2926   2928     1  0.0000000  0.6508444  3
   2910   2917   2920   2921     1  0.0000000  0.6508444  3
   2910   2917   2920   2922     1  0.0000000  0.6508444  3
   2911   2910   2914   2915     1  0.0000000  0.6508444  3
   2911   2910   2914   2916     1  0.0000000  0.6508444  3
   2911   2910   2917   2918     1  0.0000000  0.6508444  3
   2911   2910   2917   2919     1  0.0000000  0.6508444  3
   2911   2923   2935   2936     1  0.0000000  0.6508444  3
   2911   2923   2935   2937     1  0.0000000  0.6508444  3
   2912   2911   2910   2914     1  0.0000000  0.6508444  3
   2912   2911   2910   2917     1  0.0000000  0.6508444  3
   2912   2911   2910   2939     1  0.0000000  0.6508444  3
   2912   2911   2923   2935     1  0.0000000  0.6508444  3
   2912   2911   2923   2924     1  0.0000000  0.6508444  3
   2912   2911   2923   2925     1  0.0000000  0.6508444  3
   2913   2911   2910   2914     1  0.0000000  0.6508444  3
   2913   2911   2910   2917     1  0.0000000  0.6508444  3
   2913   2911   2910   2939     1  0.0000000  0.6508444  3
   2913   2911   2923   2935     1  0.0000000  0.6508444  3
   2913   2911   2923   2924     1  0.0000000  0.6508444  3
   2913   2911   2923   2925     1  0.0000000  0.6508444  3
   2914   2910   2917   2918     1  0.0000000  0.6508444  3
   2914   2910   2917   2919     1  0.0000000  0.6508444  3
   2914   2926   2932   2933     1  0.0000000  0.6508444  3
   2914   2926   2932   2934     1  0.0000000  0.6508444  3
   2915   2914   2910   2917     1  0.0000000  0.6508444  3
   2915   2914   2910   2939     1  0.0000000  0.6508444  3
   2915   2914   2926   2932     1  0.0000000  0.6508444  3
   2915   2914   2926   2927     1  0.0000000  0.6508444  3
   2915   2914   2926   2928     1  0.0000000  0.6508444  3
   2916   2914   2910   2917     1  0.0000000  0.6508444  3
   2916   2914   2910   2939     1  0.0000000  0.6508444  3
   2916   2914   2926   2932     1  0.0000000  0.6508444  3
   2916   2914   2926   2927     1  0.0000000  0.6508444  3
   2916   2914   2926   2928     1  0.0000000  0.6508444  3
   2917   2920   2929   2930     1  0.0000000  0.6508444  3
   2917   2920   2929   2931     1  0.0000000  0.6508444  3
   2918   2917   2910   2939     1  0.0000000  0.6508444  3
   2918   2917   2920   2929     1  0.0000000  0.6508444  3
   2918   2917   2920   2921     1  0.0000000  0.6508444  3
   2918   2917   2920   2922     1  0.0000000  0.6508444  3
   2919   2917   2910   2939     1  0.0000000  0.6508444  3
   2919   2917   2920   2929     1  0.0000000  0.6508444  3
   2919   2917   2920   2921     1  0.0000000  0.6508444  3
   2919   2917   2920   2922     1  0.0000000  0.6508444  3
   2920   2917   2910   2939     1  0.0000000  0.6508444  3
   2921   2920   2929   2938     1  0.0000000  1.0460000  1
   2921   2920   2929   2938     1  0.0000000  0.0000000  3
   2921   2920   2929   2930     1  0.0000000  0.6508444  3
   2921   2920   2929   2931     1  0.0000000  0.6508444  3
   2922   2920   2929   2938     1  0.0000000  1.0460000  1
   2922   2920   2929   2938     1  0.0000000  0.0000000  3
   2922   2920   2929   2930     1  0.0000000  0.6508444  3
   2922   2920   2929   2931     1  0.0000000  0.6508444  3
   2923   2911   2910   2939     1  0.0000000  0.6508444  3
   2924   2923   2935   5938     1  0.0000000  1.0460000  1
   2924   2923   2935   5938     1  0.0000000  0.0000000  3
   2924   2923   2935   2936     1  0.0000000  0.6508444  3
   2924   2923   2935   2937     1  0.0000000  0.6508444  3
   2925   2923   2935   5938     1  0.0000000  1.0460000  1
   2925   2923   2935   5938     1  0.0000000  0.0000000  3
   2925   2923   2935   2936     1  0.0000000  0.6508444  3
   2925   2923   2935   2937     1  0.0000000  0.6508444  3
   2926   2914   2910   2939     1  0.0000000  0.6508444  3
   2927   2926   2932   5908     1  0.0000000  1.0460000  1
   2927   2926   2932   5908     1  0.0000000  0.0000000  3
   2927   2926   2932   2933     1  0.0000000  0.6508444  3
   2927   2926   2932   2934     1  0.0000000  0.6508444  3
   2928   2926   2932   5908     1  0.0000000  1.0460000  1
   2928   2926   2932   5908     1  0.0000000  0.0000000  3
   2928   2926   2932   2933     1  0.0000000  0.6508444  3
   2928   2926   2932   2934     1  0.0000000  0.6508444  3
   2932   5908   5899   5900     1  0.0000000  1.6038667  3
   2932   5908   5899   5901     1  0.0000000  1.6038667  3
   2933   2932   5908   5899     1  0.0000000  1.6038667  3
   2934   2932   5908   5899     1  0.0000000  1.6038667  3
   2935   5938   5929   5930     1  0.0000000  1.6038667  3
   2935   5938   5929   5931     1  0.0000000  1.6038667  3
   2936   2935   5938   5929     1  0.0000000  1.6038667  3
   2937   2935   5938   5929     1  0.0000000  1.6038667  3
   2940   2941   2953   2954     1  0.0000000  0.6508444  3
   2940   2941   2953   2955     1  0.0000000  0.6508444  3
   2940   2944   2956   2957     1  0.0000000  0.6508444  3
   2940   2944   2956   2958     1  0.0000000  0.6508444  3
   2940   2947   2950   2951     1  0.0000000  0.6508444  3
   2940   2947   2950   2952     1  0.0000000  0.6508444  3
   2941   2940   2944   2945     1  0.0000000  0.6508444  3
   2941   2940   2944   2946     1  0.0000000  0.6508444  3
   2941   2940   2947   2948     1  0.0000000  0.6508444  3
   2941   2940   2947   2949     1  0.0000000  0.6508444  3
   2941   2953   2965   2966     1  0.0000000  0.6508444  3
   2941   2953   2965   2967     1  0.0000000  0.6508444  3
   2942   2941   2940   2944     1  0.0000000  0.6508444  3
   2942   2941   2940   2947     1  0.0000000  0.6508444  3
   2942   2941   2940   2969     1  0.0000000  0.6508444  3
   2942   2941   2953   2965     1  0.0000000  0.6508444  3
   2942   2941   2953   2954     1  0.0000000  0.6508444  3
   2942   2941   2953   2955     1  0.0000000  0.6508444  3
   2943   2941   2940   2944     1  0.0000000  0.6508444  3
   2943   2941   2940   2947     1  0.0000000  0.6508444  3
   2943   2941   2940   2969     1  0.0000000  0.6508444  3
   2943   2941   2953   2965     1  0.0000000  0.6508444  3
   2943   2941   2953   2954     1  0.0000000  0.6508444  3
   2943   2941   2953   2955     1  0.0000000  0.6508444  3
   2944   2940   2947   2948     1  0.0000000  0.6508444  3
   2944   2940   2947   2949     1  0.0000000  0.6508444  3
   2944   2956   2962   2963     1  0.0000000  0.6508444  3
   2944   2956   2962   2964     1  0.0000000  0.6508444  3
   2945   2944   2940   2947     1  0.0000000  0.6508444  3
   2945   2944   2940   2969     1  0.0000000  0.6508444  3
   2945   2944   2956   2962     1  0.0000000  0.6508444  3
   2945   2944   2956   2957     1  0.0000000  0.6508444  3
   2945   2944   2956   2958     1  0.0000000  0.6508444  3
   2946   2944   2940   2947     1  0.0000000  0.6508444  3
   2946   2944   2940   2969     1  0.0000000  0.6508444  3
   2946   2944   2956   2962     1  0.0000000  0.6508444  3
   2946   2944   2956   2957     1  0.0000000  0.6508444  3
   2946   2944   2956   2958     1  0.0000000  0.6508444  3
   2947   2950   2959   2960     1  0.0000000  0.6508444  3
   2947   2950   2959   2961     1  0.0000000  0.6508444  3
   2948   2947   2940   2969     1  0.0000000  0.6508444  3
   2948   2947   2950   2959     1  0.0000000  0.6508444  3
   2948   2947   2950   2951     1  0.0000000  0.6508444  3
   2948   2947   2950   2952     1  0.0000000  0.6508444  3
   2949   2947   2940   2969     1  0.0000000  0.6508444  3
   2949   2947   2950   2959     1  0.0000000  0.6508444  3
   2949   2947   2950   2951     1  0.0000000  0.6508444  3
   2949   2947   2950   2952     1  0.0000000  0.6508444  3
   2950   2947   2940   2969     1  0.0000000  0.6508444  3
   2951   2950   2959   2968     1  0.0000000  1.0460000  1
   2951   2950   2959   2968     1  0.0000000  0.0000000  3
   2951   2950   2959   2960     1  0.0000000  0.6508444  3
   2951   2950   2959   2961     1  0.0000000  0.6508444  3
   2952   2950   2959   2968     1  0.0000000  1.0460000  1
   2952   2950   2959   2968     1  0.0000000  0.0000000  3
   2952   2950   2959   2960     1  0.0000000  0.6508444  3
   2952   2950   2959   2961     1  0.0000000  0.6508444  3
   2953   2941   2940   2969     1  0.0000000  0.6508444  3
   2954   2953   2965   5998     1  0.0000000  1.0460000  1
   2954   2953   2965   5998     1  0.0000000  0.0000000  3
   2954   2953   2965   2966     1  0.0000000  0.6508444  3
   2954   2953   2965   2967     1  0.0000000  0.6508444  3
   2955   2953   2965   5998     1  0.0000000  1.0460000  1
   2955   2953   2965   5998     1  0.0000000  0.0000000  3
   2955   2953   2965   2966     1  0.0000000  0.6508444  3
   2955   2953   2965   2967     1  0.0000000  0.6508444  3
   2956   2944   2940   2969     1  0.0000000  0.6508444  3
   2957   2956   2962   5968     1  0.0000000  1.0460000  1
   2957   2956   2962   5968     1  0.0000000  0.0000000  3
   2957   2956   2962   2963     1  0.0000000  0.6508444  3
   2957   2956   2962   2964     1  0.0000000  0.6508444  3
   2958   2956   2962   5968     1  0.0000000  1.0460000  1
   2958   2956   2962   5968     1  0.0000000  0.0000000  3
   2958   2956   2962   2963     1  0.0000000  0.6508444  3
   2958   2956   2962   2964     1  0.0000000  0.6508444  3
   2962   5968   5959   5960     1  0.0000000  1.6038667  3
   2962   5968   5959   5961     1  0.0000000  1.6038667  3
   2963   2962   5968   5959     1  0.0000000  1.6038667  3
   2964   2962   5968   5959     1  0.0000000  1.6038667  3
   2965   5998   5989   5990     1  0.0000000  1.6038667  3
   2965   5998   5989   5991     1  0.0000000  1.6038667  3
   2966   2965   5998   5989     1  0.0000000  1.6038667  3
   2967   2965   5998   5989     1  0.0000000  1.6038667  3
   2970   2971   2983   2984     1  0.0000000  0.6508444  3
   2970   2971   2983   2985     1  0.0000000  0.6508444  3
   2970   2974   2986   2987     1  0.0000000  0.6508444  3
   2970   2974   2986   2988     1  0.0000000  0.6508444  3
   2970   2977   2980   2981     1  0.0000000  0.6508444  3
   2970   2977   2980   2982     1  0.0000000  0.6508444  3
   2971   2970   2974   2975     1  0.0000000  0.6508444  3
   2971   2970   2974   2976     1  0.0000000  0.6508444  3
   2971   2970   2977   2978     1  0.0000000  0.6508444  3
   2971   2970   2977   2979     1  0.0000000  0.6508444  3
   2971   2983   2995   2996     1  0.0000000  0.6508444  3
   2971   2983   2995   2997     1  0.0000000  0.6508444  3
   2972   2971   2970   2974     1  0.0000000  0.6508444  3
   2972   2971   2970   2977     1  0.0000000  0.6508444  3
   2972   2971   2970   2999     1  0.0000000  0.6508444  3
   2972   2971   2983   2995     1  0.0000000  0.6508444  3
   2972   2971   2983   2984     1  0.0000000  0.6508444  3
   2972   2971   2983   2985     1  0.0000000  0.6508444  3
   2973   2971   2970   2974     1  0.0000000  0.6508444  3
   2973   2971   2970   2977     1  0.0000000  0.6508444  3
   2973   2971   2970   2999     1  0.0000000  0.6508444  3
   2973   2971   2983   2995     1  0.0000000  0.6508444  3
   2973   2971   2983   2984     1  0.0000000  0.6508444  3
   2973   2971   2983   2985     1  0.0000000  0.6508444  3
   2974   2970   2977   2978     1  0.0000000  0.6508444  3
   2974   2970   2977   2979     1  0.0000000  0.6508444  3
   2974   2986   2992   2993     1  0.0000000  0.6508444  3
   2974   2986   2992   2994     1  0.0000000  0.6508444  3
   2975   2974   2970   2977     1  0.0000000  0.6508444  3
   2975   2974   2970   2999     1  0.0000000  0.6508444  3
   2975   2974   2986   2992     1  0.0000000  0.6508444  3
   2975   2974   2986   2987     1  0.0000000  0.6508444  3
   2975   2974   2986   2988     1  0.0000000  0.6508444  3
   2976   2974   2970   2977     1  0.0000000  0.6508444  3
   2976   2974   2970   2999     1  0.0000000  0.6508444  3
   2976   2974   2986   2992     1  0.0000000  0.6508444  3
   2976   2974   2986   2987     1  0.0000000  0.6508444  3
   2976   2974   2986   2988     1  0.0000000  0.6508444  3
   2977   2980   2989   2990     1  0.0000000  0.6508444  3
   2977   2980   2989   2991     1  0.0000000  0.6508444  3
   2978   2977   2970   2999     1  0.0000000  0.6508444  3
   2978   2977   2980   2989     1  0.0000000  0.6508444  3
   2978   2977   2980   2981     1  0.0000000  0.6508444  3
   2978   2977   2980   2982     1  0.0000000  0.6508444  3
   2979   2977   2970   2999     1  0.0000000  0.6508444  3
   2979   2977   2980   2989     1  0.0000000  0.6508444  3
   2979   2977   2980   2981     1  0.0000000  0.6508444  3
   2979   2977   2980   2982     1  0.0000000  0.6508444  3
   2980   2977   2970   2999     1  0.0000000  0.6508444  3
   2981   2980   2989   2998     1  0.0000000  1.0460000  1
   2981   2980   2989   2998     1  0.0000000  0.0000000  3
   2981   2980   2989   2990     1  0.0000000  0.6508444  3
   2981   2980   2989   2991     1  0.0000000  0.6508444  3
   2982   2980   2989   2998     1  0.0000000  1.0460000  1
   2982   2980   2989   2998     1  0.0000000  0.0000000  3
   2982   2980   2989   2990     1  0.0000000  0.6508444  3
   2982   2980   2989   2991     1  0.0000000  0.6508444  3
   2983   2971   2970   2999     1  0.0000000  0.6508444  3
   2984   2983   2995   6058     1  0.0000000  1.0460000  1
   2984   2983   2995   6058     1  0.0000000  0.0000000  3
   2984   2983   2995   2996     1  0.0000000  0.6508444  3
   2984   2983   2995   2997     1  0.0000000  0.6508444  3
   2985   2983   2995   6058     1  0.0000000  1.0460000  1
   2985   2983   2995   6058     1  0.0000000  0.0000000  3
   2985   2983   2995   2996     1  0.0000000  0.6508444  3
   2985   2983   2995   2997     1  0.0000000  0.6508444  3
   2986   2974   2970   2999     1  0.0000000  0.6508444  3
   2987   2986   2992   6028     1  0.0000000  1.0460000  1
   2987   2986   2992   6028     1  0.0000000  0.0000000  3
   2987   2986   2992   2993     1  0.0000000  0.6508444  3
   2987   2986   2992   2994     1  0.0000000  0.6508444  3
   2988   2986   2992   6028     1  0.0000000  1.0460000  1
   2988   2986   2992   6028     1  0.0000000  0.0000000  3
   2988   2986   2992   2993     1  0.0000000  0.6508444  3
   2988   2986   2992   2994     1  0.0000000  0.6508444  3
   2992   6028   6019   6020     1  0.0000000  1.6038667  3
   2992   6028   6019   6021     1  0.0000000  1.6038667  3
   2993   2992   6028   6019     1  0.0000000  1.6038667  3
   2994   2992   6028   6019     1  0.0000000  1.6038667  3
   2995   6058   6049   6050     1  0.0000000  1.6038667  3
   2995   6058   6049   6051     1  0.0000000  1.6038667  3
   2996   2995   6058   6049     1  0.0000000  1.6038667  3
   2997   2995   6058   6049     1  0.0000000  1.6038667  3
   3000   3001   3013   3014     1  0.0000000  0.6508444  3
   3000   3001   3013   3015     1  0.0000000  0.6508444  3
   3000   3004   3016   3017     1  0.0000000  0.6508444  3
   3000   3004   3016   3018     1  0.0000000  0.6508444  3
   3000   3007   3010   3011     1  0.0000000  0.6508444  3
   3000   3007   3010   3012     1  0.0000000  0.6508444  3
   3001   3000   3004   3005     1  0.0000000  0.6508444  3
   3001   3000   3004   3006     1  0.0000000  0.6508444  3
   3001   3000   3007   3008     1  0.0000000  0.6508444  3
   3001   3000   3007   3009     1  0.0000000  0.6508444  3
   3001   3013   3025   3026     1  0.0000000  0.6508444  3
   3001   3013   3025   3027     1  0.0000000  0.6508444  3
   3002   3001   3000   3004     1  0.0000000  0.6508444  3
   3002   3001   3000   3007     1  0.0000000  0.6508444  3
   3002   3001   3000   3029     1  0.0000000  0.6508444  3
   3002   3001   3013   3025     1  0.0000000  0.6508444  3
   3002   3001   3013   3014     1  0.0000000  0.6508444  3
   3002   3001   3013   3015     1  0.0000000  0.6508444  3
   3003   3001   3000   3004     1  0.0000000  0.6508444  3
   3003   3001   3000   3007     1  0.0000000  0.6508444  3
   3003   3001   3000   3029     1  0.0000000  0.6508444  3
   3003   3001   3013   3025     1  0.0000000  0.6508444  3
   3003   3001   3013   3014     1  0.0000000  0.6508444  3
   3003   3001   3013   3015     1  0.0000000  0.6508444  3
   3004   3000   3007   3008     1  0.0000000  0.6508444  3
   3004   3000   3007   3009     1  0.0000000  0.6508444  3
   3004   3016   3022   3023     1  0.0000000  0.6508444  3
   3004   3016   3022   3024     1  0.0000000  0.6508444  3
   3005   3004   3000   3007     1  0.0000000  0.6508444  3
   3005   3004   3000   3029     1  0.0000000  0.6508444  3
   3005   3004   3016   3022     1  0.0000000  0.6508444  3
   3005   3004   3016   3017     1  0.0000000  0.6508444  3
   3005   3004   3016   3018     1  0.0000000  0.6508444  3
   3006   3004   3000   3007     1  0.0000000  0.6508444  3
   3006   3004   3000   3029     1  0.0000000  0.6508444  3
   3006   3004   3016   3022     1  0.0000000  0.6508444  3
   3006   3004   3016   3017     1  0.0000000  0.6508444  3
   3006   3004   3016   3018     1  0.0000000  0.6508444  3
   3007   3010   3019   3020     1  0.0000000  0.6508444  3
   3007   3010   3019   3021     1  0.0000000  0.6508444  3
   3008   3007   3000   3029     1  0.0000000  0.6508444  3
   3008   3007   3010   3019     1  0.0000000  0.6508444  3
   3008   3007   3010   3011     1  0.0000000  0.6508444  3
   3008   3007   3010   3012     1  0.0000000  0.6508444  3
   3009   3007   3000   3029     1  0.0000000  0.6508444  3
   3009   3007   3010   3019     1  0.0000000  0.6508444  3
   3009   3007   3010   3011     1  0.0000000  0.6508444  3
   3009   3007   3010   3012     1  0.0000000  0.6508444  3
   3010   3007   3000   3029     1  0.0000000  0.6508444  3
   3011   3010   3019   3028     1  0.0000000  1.0460000  1
   3011   3010   3019   3028     1  0.0000000  0.0000000  3
   3011   3010   3019   3020     1  0.0000000  0.6508444  3
   3011   3010   3019   3021     1  0.0000000  0.6508444  3
   3012   3010   3019   3028     1  0.0000000  1.0460000  1
   3012   3010   3019   3028     1  0.0000000  0.0000000  3
   3012   3010   3019   3020     1  0.0000000  0.6508444  3
   3012   3010   3019   3021     1  0.0000000  0.6508444  3
   3013   3001   3000   3029     1  0.0000000  0.6508444  3
   3014   3013   3025   6118     1  0.0000000  1.0460000  1
   3014   3013   3025   6118     1  0.0000000  0.0000000  3
   3014   3013   3025   3026     1  0.0000000  0.6508444  3
   3014   3013   3025   3027     1  0.0000000  0.6508444  3
   3015   3013   3025   6118     1  0.0000000  1.0460000  1
   3015   3013   3025   6118     1  0.0000000  0.0000000  3
   3015   3013   3025   3026     1  0.0000000  0.6508444  3
   3015   3013   3025   3027     1  0.0000000  0.6508444  3
   3016   3004   3000   3029     1  0.0000000  0.6508444  3
   3017   3016   3022   6088     1  0.0000000  1.0460000  1
   3017   3016   3022   6088     1  0.0000000  0.0000000  3
   3017   3016   3022   3023     1  0.0000000  0.6508444  3
   3017   3016   3022   3024     1  0.0000000  0.6508444  3
   3018   3016   3022   6088     1  0.0000000  1.0460000  1
   3018   3016   3022   6088     1  0.0000000  0.0000000  3
   3018   3016   3022   3023     1  0.0000000  0.6508444  3
   3018   3016   3022   3024     1  0.0000000  0.6508444  3
   3022   6088   6079   6080     1  0.0000000  1.6038667  3
   3022   6088   6079   6081     1  0.0000000  1.6038667  3
   3023   3022   6088   6079     1  0.0000000  1.6038667  3
   3024   3022   6088   6079     1  0.0000000  1.6038667  3
   3025   6118   6109   6110     1  0.0000000  1.6038667  3
   3025   6118   6109   6111     1  0.0000000  1.6038667  3
   3026   3025   6118   6109     1  0.0000000  1.6038667  3
   3027   3025   6118   6109     1  0.0000000  1.6038667  3
   3030   3031   3043   3044     1  0.0000000  0.6508444  3
   3030   3031   3043   3045     1  0.0000000  0.6508444  3
   3030   3034   3046   3047     1  0.0000000  0.6508444  3
   3030   3034   3046   3048     1  0.0000000  0.6508444  3
   3030   3037   3040   3041     1  0.0000000  0.6508444  3
   3030   3037   3040   3042     1  0.0000000  0.6508444  3
   3031   3030   3034   3035     1  0.0000000  0.6508444  3
   3031   3030   3034   3036     1  0.0000000  0.6508444  3
   3031   3030   3037   3038     1  0.0000000  0.6508444  3
   3031   3030   3037   3039     1  0.0000000  0.6508444  3
   3031   3043   3055   3056     1  0.0000000  0.6508444  3
   3031   3043   3055   3057     1  0.0000000  0.6508444  3
   3032   3031   3030   3034     1  0.0000000  0.6508444  3
   3032   3031   3030   3037     1  0.0000000  0.6508444  3
   3032   3031   3030   3059     1  0.0000000  0.6508444  3
   3032   3031   3043   3055     1  0.0000000  0.6508444  3
   3032   3031   3043   3044     1  0.0000000  0.6508444  3
   3032   3031   3043   3045     1  0.0000000  0.6508444  3
   3033   3031   3030   3034     1  0.0000000  0.6508444  3
   3033   3031   3030   3037     1  0.0000000  0.6508444  3
   3033   3031   3030   3059     1  0.0000000  0.6508444  3
   3033   3031   3043   3055     1  0.0000000  0.6508444  3
   3033   3031   3043   3044     1  0.0000000  0.6508444  3
   3033   3031   3043   3045     1  0.0000000  0.6508444  3
   3034   3030   3037   3038     1  0.0000000  0.6508444  3
   3034   3030   3037   3039     1  0.0000000  0.6508444  3
   3034   3046   3052   3053     1  0.0000000  0.6508444  3
   3034   3046   3052   3054     1  0.0000000  0.6508444  3
   3035   3034   3030   3037     1  0.0000000  0.6508444  3
   3035   3034   3030   3059     1  0.0000000  0.6508444  3
   3035   3034   3046   3052     1  0.0000000  0.6508444  3
   3035   3034   3046   3047     1  0.0000000  0.6508444  3
   3035   3034   3046   3048     1  0.0000000  0.6508444  3
   3036   3034   3030   3037     1  0.0000000  0.6508444  3
   3036   3034   3030   3059     1  0.0000000  0.6508444  3
   3036   3034   3046   3052     1  0.0000000  0.6508444  3
   3036   3034   3046   3047     1  0.0000000  0.6508444  3
   3036   3034   3046   3048     1  0.0000000  0.6508444  3
   3037   3040   3049   3050     1  0.0000000  0.6508444  3
   3037   3040   3049   3051     1  0.0000000  0.6508444  3
   3038   3037   3030   3059     1  0.0000000  0.6508444  3
   3038   3037   3040   3049     1  0.0000000  0.6508444  3
   3038   3037   3040   3041     1  0.0000000  0.6508444  3
   3038   3037   3040   3042     1  0.0000000  0.6508444  3
   3039   3037   3030   3059     1  0.0000000  0.6508444  3
   3039   3037   3040   3049     1  0.0000000  0.6508444  3
   3039   3037   3040   3041     1  0.0000000  0.6508444  3
   3039   3037   3040   3042     1  0.0000000  0.6508444  3
   3040   3037   3030   3059     1  0.0000000  0.6508444  3
   3041   3040   3049   3058     1  0.0000000  1.0460000  1
   3041   3040   3049   3058     1  0.0000000  0.0000000  3
   3041   3040   3049   3050     1  0.0000000  0.6508444  3
   3041   3040   3049   3051     1  0.0000000  0.6508444  3
   3042   3040   3049   3058     1  0.0000000  1.0460000  1
   3042   3040   3049   3058     1  0.0000000  0.0000000  3
   3042   3040   3049   3050     1  0.0000000  0.6508444  3
   3042   3040   3049   3051     1  0.0000000  0.6508444  3
   3043   3031   3030   3059     1  0.0000000  0.6508444  3
   3044   3043   3055   6178     1  0.0000000  1.0460000  1
   3044   3043   3055   6178     1  0.0000000  0.0000000  3
   3044   3043   3055   3056     1  0.0000000  0.6508444  3
   3044   3043   3055   3057     1  0.0000000  0.6508444  3
   3045   3043   3055   6178     1  0.0000000  1.0460000  1
   3045   3043   3055   6178     1  0.0000000  0.0000000  3
   3045   3043   3055   3056     1  0.0000000  0.6508444  3
   3045   3043   3055   3057     1  0.0000000  0.6508444  3
   3046   3034   3030   3059     1  0.0000000  0.6508444  3
   3047   3046   3052   6148     1  0.0000000  1.0460000  1
   3047   3046   3052   6148     1  0.0000000  0.0000000  3
   3047   3046   3052   3053     1  0.0000000  0.6508444  3
   3047   3046   3052   3054     1  0.0000000  0.6508444  3
   3048   3046   3052   6148     1  0.0000000  1.0460000  1
   3048   3046   3052   6148     1  0.0000000  0.0000000  3
   3048   3046   3052   3053     1  0.0000000  0.6508444  3
   3048   3046   3052   3054     1  0.0000000  0.6508444  3
   3052   6148   6139   6140     1  0.0000000  1.6038667  3
   3052   6148   6139   6141     1  0.0000000  1.6038667  3
   3053   3052   6148   6139     1  0.0000000  1.6038667  3
   3054   3052   6148   6139     1  0.0000000  1.6038667  3
   3055   6178   6169   6170     1  0.0000000  1.6038667  3
   3055   6178   6169   6171     1  0.0000000  1.6038667  3
   3056   3055   6178   6169     1  0.0000000  1.6038667  3
   3057   3055   6178   6169     1  0.0000000  1.6038667  3
   3060   3061   3073   3074     1  0.0000000  0.6508444  3
   3060   3061   3073   3075     1  0.0000000  0.6508444  3
   3060   3064   3076   3077     1  0.0000000  0.6508444  3
   3060   3064   3076   3078     1  0.0000000  0.6508444  3
   3060   3067   3070   3071     1  0.0000000  0.6508444  3
   3060   3067   3070   3072     1  0.0000000  0.6508444  3
   3061   3060   3064   3065     1  0.0000000  0.6508444  3
   3061   3060   3064   3066     1  0.0000000  0.6508444  3
   3061   3060   3067   3068     1  0.0000000  0.6508444  3
   3061   3060   3067   3069     1  0.0000000  0.6508444  3
   3061   3073   3085   3086     1  0.0000000  0.6508444  3
   3061   3073   3085   3087     1  0.0000000  0.6508444  3
   3062   3061   3060   3064     1  0.0000000  0.6508444  3
   3062   3061   3060   3067     1  0.0000000  0.6508444  3
   3062   3061   3060   3089     1  0.0000000  0.6508444  3
   3062   3061   3073   3085     1  0.0000000  0.6508444  3
   3062   3061   3073   3074     1  0.0000000  0.6508444  3
   3062   3061   3073   3075     1  0.0000000  0.6508444  3
   3063   3061   3060   3064     1  0.0000000  0.6508444  3
   3063   3061   3060   3067     1  0.0000000  0.6508444  3
   3063   3061   3060   3089     1  0.0000000  0.6508444  3
   3063   3061   3073   3085     1  0.0000000  0.6508444  3
   3063   3061   3073   3074     1  0.0000000  0.6508444  3
   3063   3061   3073   3075     1  0.0000000  0.6508444  3
   3064   3060   3067   3068     1  0.0000000  0.6508444  3
   3064   3060   3067   3069     1  0.0000000  0.6508444  3
   3064   3076   3082   3083     1  0.0000000  0.6508444  3
   3064   3076   3082   3084     1  0.0000000  0.6508444  3
   3065   3064   3060   3067     1  0.0000000  0.6508444  3
   3065   3064   3060   3089     1  0.0000000  0.6508444  3
   3065   3064   3076   3082     1  0.0000000  0.6508444  3
   3065   3064   3076   3077     1  0.0000000  0.6508444  3
   3065   3064   3076   3078     1  0.0000000  0.6508444  3
   3066   3064   3060   3067     1  0.0000000  0.6508444  3
   3066   3064   3060   3089     1  0.0000000  0.6508444  3
   3066   3064   3076   3082     1  0.0000000  0.6508444  3
   3066   3064   3076   3077     1  0.0000000  0.6508444  3
   3066   3064   3076   3078     1  0.0000000  0.6508444  3
   3067   3070   3079   3080     1  0.0000000  0.6508444  3
   3067   3070   3079   3081     1  0.0000000  0.6508444  3
   3068   3067   3060   3089     1  0.0000000  0.6508444  3
   3068   3067   3070   3079     1  0.0000000  0.6508444  3
   3068   3067   3070   3071     1  0.0000000  0.6508444  3
   3068   3067   3070   3072     1  0.0000000  0.6508444  3
   3069   3067   3060   3089     1  0.0000000  0.6508444  3
   3069   3067   3070   3079     1  0.0000000  0.6508444  3
   3069   3067   3070   3071     1  0.0000000  0.6508444  3
   3069   3067   3070   3072     1  0.0000000  0.6508444  3
   3070   3067   3060   3089     1  0.0000000  0.6508444  3
   3071   3070   3079   3088     1  0.0000000  1.0460000  1
   3071   3070   3079   3088     1  0.0000000  0.0000000  3
   3071   3070   3079   3080     1  0.0000000  0.6508444  3
   3071   3070   3079   3081     1  0.0000000  0.6508444  3
   3072   3070   3079   3088     1  0.0000000  1.0460000  1
   3072   3070   3079   3088     1  0.0000000  0.0000000  3
   3072   3070   3079   3080     1  0.0000000  0.6508444  3
   3072   3070   3079   3081     1  0.0000000  0.6508444  3
   3073   3061   3060   3089     1  0.0000000  0.6508444  3
   3074   3073   3085   6238     1  0.0000000  1.0460000  1
   3074   3073   3085   6238     1  0.0000000  0.0000000  3
   3074   3073   3085   3086     1  0.0000000  0.6508444  3
   3074   3073   3085   3087     1  0.0000000  0.6508444  3
   3075   3073   3085   6238     1  0.0000000  1.0460000  1
   3075   3073   3085   6238     1  0.0000000  0.0000000  3
   3075   3073   3085   3086     1  0.0000000  0.6508444  3
   3075   3073   3085   3087     1  0.0000000  0.6508444  3
   3076   3064   3060   3089     1  0.0000000  0.6508444  3
   3077   3076   3082   6208     1  0.0000000  1.0460000  1
   3077   3076   3082   6208     1  0.0000000  0.0000000  3
   3077   3076   3082   3083     1  0.0000000  0.6508444  3
   3077   3076   3082   3084     1  0.0000000  0.6508444  3
   3078   3076   3082   6208     1  0.0000000  1.0460000  1
   3078   3076   3082   6208     1  0.0000000  0.0000000  3
   3078   3076   3082   3083     1  0.0000000  0.6508444  3
   3078   3076   3082   3084     1  0.0000000  0.6508444  3
   3082   6208   6199   6200     1  0.0000000  1.6038667  3
   3082   6208   6199   6201     1  0.0000000  1.6038667  3
   3083   3082   6208   6199     1  0.0000000  1.6038667  3
   3084   3082   6208   6199     1  0.0000000  1.6038667  3
   3085   6238   6229   6230     1  0.0000000  1.6038667  3
   3085   6238   6229   6231     1  0.0000000  1.6038667  3
   3086   3085   6238   6229     1  0.0000000  1.6038667  3
   3087   3085   6238   6229     1  0.0000000  1.6038667  3
   3090   3091   3103   3104     1  0.0000000  0.6508444  3
   3090   3091   3103   3105     1  0.0000000  0.6508444  3
   3090   3094   3106   3107     1  0.0000000  0.6508444  3
   3090   3094   3106   3108     1  0.0000000  0.6508444  3
   3090   3097   3100   3101     1  0.0000000  0.6508444  3
   3090   3097   3100   3102     1  0.0000000  0.6508444  3
   3091   3090   3094   3095     1  0.0000000  0.6508444  3
   3091   3090   3094   3096     1  0.0000000  0.6508444  3
   3091   3090   3097   3098     1  0.0000000  0.6508444  3
   3091   3090   3097   3099     1  0.0000000  0.6508444  3
   3091   3103   3115   3116     1  0.0000000  0.6508444  3
   3091   3103   3115   3117     1  0.0000000  0.6508444  3
   3092   3091   3090   3094     1  0.0000000  0.6508444  3
   3092   3091   3090   3097     1  0.0000000  0.6508444  3
   3092   3091   3090   3119     1  0.0000000  0.6508444  3
   3092   3091   3103   3115     1  0.0000000  0.6508444  3
   3092   3091   3103   3104     1  0.0000000  0.6508444  3
   3092   3091   3103   3105     1  0.0000000  0.6508444  3
   3093   3091   3090   3094     1  0.0000000  0.6508444  3
   3093   3091   3090   3097     1  0.0000000  0.6508444  3
   3093   3091   3090   3119     1  0.0000000  0.6508444  3
   3093   3091   3103   3115     1  0.0000000  0.6508444  3
   3093   3091   3103   3104     1  0.0000000  0.6508444  3
   3093   3091   3103   3105     1  0.0000000  0.6508444  3
   3094   3090   3097   3098     1  0.0000000  0.6508444  3
   3094   3090   3097   3099     1  0.0000000  0.6508444  3
   3094   3106   3112   3113     1  0.0000000  0.6508444  3
   3094   3106   3112   3114     1  0.0000000  0.6508444  3
   3095   3094   3090   3097     1  0.0000000  0.6508444  3
   3095   3094   3090   3119     1  0.0000000  0.6508444  3
   3095   3094   3106   3112     1  0.0000000  0.6508444  3
   3095   3094   3106   3107     1  0.0000000  0.6508444  3
   3095   3094   3106   3108     1  0.0000000  0.6508444  3
   3096   3094   3090   3097     1  0.0000000  0.6508444  3
   3096   3094   3090   3119     1  0.0000000  0.6508444  3
   3096   3094   3106   3112     1  0.0000000  0.6508444  3
   3096   3094   3106   3107     1  0.0000000  0.6508444  3
   3096   3094   3106   3108     1  0.0000000  0.6508444  3
   3097   3100   3109   3110     1  0.0000000  0.6508444  3
   3097   3100   3109   3111     1  0.0000000  0.6508444  3
   3098   3097   3090   3119     1  0.0000000  0.6508444  3
   3098   3097   3100   3109     1  0.0000000  0.6508444  3
   3098   3097   3100   3101     1  0.0000000  0.6508444  3
   3098   3097   3100   3102     1  0.0000000  0.6508444  3
   3099   3097   3090   3119     1  0.0000000  0.6508444  3
   3099   3097   3100   3109     1  0.0000000  0.6508444  3
   3099   3097   3100   3101     1  0.0000000  0.6508444  3
   3099   3097   3100   3102     1  0.0000000  0.6508444  3
   3100   3097   3090   3119     1  0.0000000  0.6508444  3
   3101   3100   3109   3118     1  0.0000000  1.0460000  1
   3101   3100   3109   3118     1  0.0000000  0.0000000  3
   3101   3100   3109   3110     1  0.0000000  0.6508444  3
   3101   3100   3109   3111     1  0.0000000  0.6508444  3
   3102   3100   3109   3118     1  0.0000000  1.0460000  1
   3102   3100   3109   3118     1  0.0000000  0.0000000  3
   3102   3100   3109   3110     1  0.0000000  0.6508444  3
   3102   3100   3109   3111     1  0.0000000  0.6508444  3
   3103   3091   3090   3119     1  0.0000000  0.6508444  3
   3104   3103   3115   6298     1  0.0000000  1.0460000  1
   3104   3103   3115   6298     1  0.0000000  0.0000000  3
   3104   3103   3115   3116     1  0.0000000  0.6508444  3
   3104   3103   3115   3117     1  0.0000000  0.6508444  3
   3105   3103   3115   6298     1  0.0000000  1.0460000  1
   3105   3103   3115   6298     1  0.0000000  0.0000000  3
   3105   3103   3115   3116     1  0.0000000  0.6508444  3
   3105   3103   3115   3117     1  0.0000000  0.6508444  3
   3106   3094   3090   3119     1  0.0000000  0.6508444  3
   3107   3106   3112   6268     1  0.0000000  1.0460000  1
   3107   3106   3112   6268     1  0.0000000  0.0000000  3
   3107   3106   3112   3113     1  0.0000000  0.6508444  3
   3107   3106   3112   3114     1  0.0000000  0.6508444  3
   3108   3106   3112   6268     1  0.0000000  1.0460000  1
   3108   3106   3112   6268     1  0.0000000  0.0000000  3
   3108   3106   3112   3113     1  0.0000000  0.6508444  3
   3108   3106   3112   3114     1  0.0000000  0.6508444  3
   3112   6268   6259   6260     1  0.0000000  1.6038667  3
   3112   6268   6259   6261     1  0.0000000  1.6038667  3
   3113   3112   6268   6259     1  0.0000000  1.6038667  3
   3114   3112   6268   6259     1  0.0000000  1.6038667  3
   3115   6298   6289   6290     1  0.0000000  1.6038667  3
   3115   6298   6289   6291     1  0.0000000  1.6038667  3
   3116   3115   6298   6289     1  0.0000000  1.6038667  3
   3117   3115   6298   6289     1  0.0000000  1.6038667  3
   3120   3121   3133   3134     1  0.0000000  0.6508444  3
   3120   3121   3133   3135     1  0.0000000  0.6508444  3
   3120   3124   3136   3137     1  0.0000000  0.6508444  3
   3120   3124   3136   3138     1  0.0000000  0.6508444  3
   3120   3127   3130   3131     1  0.0000000  0.6508444  3
   3120   3127   3130   3132     1  0.0000000  0.6508444  3
   3121   3120   3124   3125     1  0.0000000  0.6508444  3
   3121   3120   3124   3126     1  0.0000000  0.6508444  3
   3121   3120   3127   3128     1  0.0000000  0.6508444  3
   3121   3120   3127   3129     1  0.0000000  0.6508444  3
   3121   3133   3145   3146     1  0.0000000  0.6508444  3
   3121   3133   3145   3147     1  0.0000000  0.6508444  3
   3122   3121   3120   3124     1  0.0000000  0.6508444  3
   3122   3121   3120   3127     1  0.0000000  0.6508444  3
   3122   3121   3120   3149     1  0.0000000  0.6508444  3
   3122   3121   3133   3145     1  0.0000000  0.6508444  3
   3122   3121   3133   3134     1  0.0000000  0.6508444  3
   3122   3121   3133   3135     1  0.0000000  0.6508444  3
   3123   3121   3120   3124     1  0.0000000  0.6508444  3
   3123   3121   3120   3127     1  0.0000000  0.6508444  3
   3123   3121   3120   3149     1  0.0000000  0.6508444  3
   3123   3121   3133   3145     1  0.0000000  0.6508444  3
   3123   3121   3133   3134     1  0.0000000  0.6508444  3
   3123   3121   3133   3135     1  0.0000000  0.6508444  3
   3124   3120   3127   3128     1  0.0000000  0.6508444  3
   3124   3120   3127   3129     1  0.0000000  0.6508444  3
   3124   3136   3142   3143     1  0.0000000  0.6508444  3
   3124   3136   3142   3144     1  0.0000000  0.6508444  3
   3125   3124   3120   3127     1  0.0000000  0.6508444  3
   3125   3124   3120   3149     1  0.0000000  0.6508444  3
   3125   3124   3136   3142     1  0.0000000  0.6508444  3
   3125   3124   3136   3137     1  0.0000000  0.6508444  3
   3125   3124   3136   3138     1  0.0000000  0.6508444  3
   3126   3124   3120   3127     1  0.0000000  0.6508444  3
   3126   3124   3120   3149     1  0.0000000  0.6508444  3
   3126   3124   3136   3142     1  0.0000000  0.6508444  3
   3126   3124   3136   3137     1  0.0000000  0.6508444  3
   3126   3124   3136   3138     1  0.0000000  0.6508444  3
   3127   3130   3139   3140     1  0.0000000  0.6508444  3
   3127   3130   3139   3141     1  0.0000000  0.6508444  3
   3128   3127   3120   3149     1  0.0000000  0.6508444  3
   3128   3127   3130   3139     1  0.0000000  0.6508444  3
   3128   3127   3130   3131     1  0.0000000  0.6508444  3
   3128   3127   3130   3132     1  0.0000000  0.6508444  3
   3129   3127   3120   3149     1  0.0000000  0.6508444  3
   3129   3127   3130   3139     1  0.0000000  0.6508444  3
   3129   3127   3130   3131     1  0.0000000  0.6508444  3
   3129   3127   3130   3132     1  0.0000000  0.6508444  3
   3130   3127   3120   3149     1  0.0000000  0.6508444  3
   3131   3130   3139   3148     1  0.0000000  1.0460000  1
   3131   3130   3139   3148     1  0.0000000  0.0000000  3
   3131   3130   3139   3140     1  0.0000000  0.6508444  3
   3131   3130   3139   3141     1  0.0000000  0.6508444  3
   3132   3130   3139   3148     1  0.0000000  1.0460000  1
   3132   3130   3139   3148     1  0.0000000  0.0000000  3
   3132   3130   3139   3140     1  0.0000000  0.6508444  3
   3132   3130   3139   3141     1  0.0000000  0.6508444  3
   3133   3121   3120   3149     1  0.0000000  0.6508444  3
   3134   3133   3145   6358     1  0.0000000  1.0460000  1
   3134   3133   3145   6358     1  0.0000000  0.0000000  3
   3134   3133   3145   3146     1  0.0000000  0.6508444  3
   3134   3133   3145   3147     1  0.0000000  0.6508444  3
   3135   3133   3145   6358     1  0.0000000  1.0460000  1
   3135   3133   3145   6358     1  0.0000000  0.0000000  3
   3135   3133   3145   3146     1  0.0000000  0.6508444  3
   3135   3133   3145   3147     1  0.0000000  0.6508444  3
   3136   3124   3120   3149     1  0.0000000  0.6508444  3
   3137   3136   3142   6328     1  0.0000000  1.0460000  1
   3137   3136   3142   6328     1  0.0000000  0.0000000  3
   3137   3136   3142   3143     1  0.0000000  0.6508444  3
   3137   3136   3142   3144     1  0.0000000  0.6508444  3
   3138   3136   3142   6328     1  0.0000000  1.0460000  1
   3138   3136   3142   6328     1  0.0000000  0.0000000  3
   3138   3136   3142   3143     1  0.0000000  0.6508444  3
   3138   3136   3142   3144     1  0.0000000  0.6508444  3
   3142   6328   6319   6320     1  0.0000000  1.6038667  3
   3142   6328   6319   6321     1  0.0000000  1.6038667  3
   3143   3142   6328   6319     1  0.0000000  1.6038667  3
   3144   3142   6328   6319     1  0.0000000  1.6038667  3
   3145   6358   6349   6350     1  0.0000000  1.6038667  3
   3145   6358   6349   6351     1  0.0000000  1.6038667  3
   3146   3145   6358   6349     1  0.0000000  1.6038667  3
   3147   3145   6358   6349     1  0.0000000  1.6038667  3
   3150   3151   3163   3164     1  0.0000000  0.6508444  3
   3150   3151   3163   3165     1  0.0000000  0.6508444  3
   3150   3154   3166   3167     1  0.0000000  0.6508444  3
   3150   3154   3166   3168     1  0.0000000  0.6508444  3
   3150   3157   3160   3161     1  0.0000000  0.6508444  3
   3150   3157   3160   3162     1  0.0000000  0.6508444  3
   3151   3150   3154   3155     1  0.0000000  0.6508444  3
   3151   3150   3154   3156     1  0.0000000  0.6508444  3
   3151   3150   3157   3158     1  0.0000000  0.6508444  3
   3151   3150   3157   3159     1  0.0000000  0.6508444  3
   3151   3163   3175   3176     1  0.0000000  0.6508444  3
   3151   3163   3175   3177     1  0.0000000  0.6508444  3
   3152   3151   3150   3154     1  0.0000000  0.6508444  3
   3152   3151   3150   3157     1  0.0000000  0.6508444  3
   3152   3151   3150   3179     1  0.0000000  0.6508444  3
   3152   3151   3163   3175     1  0.0000000  0.6508444  3
   3152   3151   3163   3164     1  0.0000000  0.6508444  3
   3152   3151   3163   3165     1  0.0000000  0.6508444  3
   3153   3151   3150   3154     1  0.0000000  0.6508444  3
   3153   3151   3150   3157     1  0.0000000  0.6508444  3
   3153   3151   3150   3179     1  0.0000000  0.6508444  3
   3153   3151   3163   3175     1  0.0000000  0.6508444  3
   3153   3151   3163   3164     1  0.0000000  0.6508444  3
   3153   3151   3163   3165     1  0.0000000  0.6508444  3
   3154   3150   3157   3158     1  0.0000000  0.6508444  3
   3154   3150   3157   3159     1  0.0000000  0.6508444  3
   3154   3166   3172   3173     1  0.0000000  0.6508444  3
   3154   3166   3172   3174     1  0.0000000  0.6508444  3
   3155   3154   3150   3157     1  0.0000000  0.6508444  3
   3155   3154   3150   3179     1  0.0000000  0.6508444  3
   3155   3154   3166   3172     1  0.0000000  0.6508444  3
   3155   3154   3166   3167     1  0.0000000  0.6508444  3
   3155   3154   3166   3168     1  0.0000000  0.6508444  3
   3156   3154   3150   3157     1  0.0000000  0.6508444  3
   3156   3154   3150   3179     1  0.0000000  0.6508444  3
   3156   3154   3166   3172     1  0.0000000  0.6508444  3
   3156   3154   3166   3167     1  0.0000000  0.6508444  3
   3156   3154   3166   3168     1  0.0000000  0.6508444  3
   3157   3160   3169   3170     1  0.0000000  0.6508444  3
   3157   3160   3169   3171     1  0.0000000  0.6508444  3
   3158   3157   3150   3179     1  0.0000000  0.6508444  3
   3158   3157   3160   3169     1  0.0000000  0.6508444  3
   3158   3157   3160   3161     1  0.0000000  0.6508444  3
   3158   3157   3160   3162     1  0.0000000  0.6508444  3
   3159   3157   3150   3179     1  0.0000000  0.6508444  3
   3159   3157   3160   3169     1  0.0000000  0.6508444  3
   3159   3157   3160   3161     1  0.0000000  0.6508444  3
   3159   3157   3160   3162     1  0.0000000  0.6508444  3
   3160   3157   3150   3179     1  0.0000000  0.6508444  3
   3161   3160   3169   3178     1  0.0000000  1.0460000  1
   3161   3160   3169   3178     1  0.0000000  0.0000000  3
   3161   3160   3169   3170     1  0.0000000  0.6508444  3
   3161   3160   3169   3171     1  0.0000000  0.6508444  3
   3162   3160   3169   3178     1  0.0000000  1.0460000  1
   3162   3160   3169   3178     1  0.0000000  0.0000000  3
   3162   3160   3169   3170     1  0.0000000  0.6508444  3
   3162   3160   3169   3171     1  0.0000000  0.6508444  3
   3163   3151   3150   3179     1  0.0000000  0.6508444  3
   3164   3163   3175   6418     1  0.0000000  1.0460000  1
   3164   3163   3175   6418     1  0.0000000  0.0000000  3
   3164   3163   3175   3176     1  0.0000000  0.6508444  3
   3164   3163   3175   3177     1  0.0000000  0.6508444  3
   3165   3163   3175   6418     1  0.0000000  1.0460000  1
   3165   3163   3175   6418     1  0.0000000  0.0000000  3
   3165   3163   3175   3176     1  0.0000000  0.6508444  3
   3165   3163   3175   3177     1  0.0000000  0.6508444  3
   3166   3154   3150   3179     1  0.0000000  0.6508444  3
   3167   3166   3172   6388     1  0.0000000  1.0460000  1
   3167   3166   3172   6388     1  0.0000000  0.0000000  3
   3167   3166   3172   3173     1  0.0000000  0.6508444  3
   3167   3166   3172   3174     1  0.0000000  0.6508444  3
   3168   3166   3172   6388     1  0.0000000  1.0460000  1
   3168   3166   3172   6388     1  0.0000000  0.0000000  3
   3168   3166   3172   3173     1  0.0000000  0.6508444  3
   3168   3166   3172   3174     1  0.0000000  0.6508444  3
   3172   6388   6379   6380     1  0.0000000  1.6038667  3
   3172   6388   6379   6381     1  0.0000000  1.6038667  3
   3173   3172   6388   6379     1  0.0000000  1.6038667  3
   3174   3172   6388   6379     1  0.0000000  1.6038667  3
   3175   6418   6409   6410     1  0.0000000  1.6038667  3
   3175   6418   6409   6411     1  0.0000000  1.6038667  3
   3176   3175   6418   6409     1  0.0000000  1.6038667  3
   3177   3175   6418   6409     1  0.0000000  1.6038667  3
   3180   3181   3193   3194     1  0.0000000  0.6508444  3
   3180   3181   3193   3195     1  0.0000000  0.6508444  3
   3180   3184   3196   3197     1  0.0000000  0.6508444  3
   3180   3184   3196   3198     1  0.0000000  0.6508444  3
   3180   3187   3190   3191     1  0.0000000  0.6508444  3
   3180   3187   3190   3192     1  0.0000000  0.6508444  3
   3181   3180   3184   3185     1  0.0000000  0.6508444  3
   3181   3180   3184   3186     1  0.0000000  0.6508444  3
   3181   3180   3187   3188     1  0.0000000  0.6508444  3
   3181   3180   3187   3189     1  0.0000000  0.6508444  3
   3181   3193   3205   3206     1  0.0000000  0.6508444  3
   3181   3193   3205   3207     1  0.0000000  0.6508444  3
   3182   3181   3180   3184     1  0.0000000  0.6508444  3
   3182   3181   3180   3187     1  0.0000000  0.6508444  3
   3182   3181   3180   3209     1  0.0000000  0.6508444  3
   3182   3181   3193   3205     1  0.0000000  0.6508444  3
   3182   3181   3193   3194     1  0.0000000  0.6508444  3
   3182   3181   3193   3195     1  0.0000000  0.6508444  3
   3183   3181   3180   3184     1  0.0000000  0.6508444  3
   3183   3181   3180   3187     1  0.0000000  0.6508444  3
   3183   3181   3180   3209     1  0.0000000  0.6508444  3
   3183   3181   3193   3205     1  0.0000000  0.6508444  3
   3183   3181   3193   3194     1  0.0000000  0.6508444  3
   3183   3181   3193   3195     1  0.0000000  0.6508444  3
   3184   3180   3187   3188     1  0.0000000  0.6508444  3
   3184   3180   3187   3189     1  0.0000000  0.6508444  3
   3184   3196   3202   3203     1  0.0000000  0.6508444  3
   3184   3196   3202   3204     1  0.0000000  0.6508444  3
   3185   3184   3180   3187     1  0.0000000  0.6508444  3
   3185   3184   3180   3209     1  0.0000000  0.6508444  3
   3185   3184   3196   3202     1  0.0000000  0.6508444  3
   3185   3184   3196   3197     1  0.0000000  0.6508444  3
   3185   3184   3196   3198     1  0.0000000  0.6508444  3
   3186   3184   3180   3187     1  0.0000000  0.6508444  3
   3186   3184   3180   3209     1  0.0000000  0.6508444  3
   3186   3184   3196   3202     1  0.0000000  0.6508444  3
   3186   3184   3196   3197     1  0.0000000  0.6508444  3
   3186   3184   3196   3198     1  0.0000000  0.6508444  3
   3187   3190   3199   3200     1  0.0000000  0.6508444  3
   3187   3190   3199   3201     1  0.0000000  0.6508444  3
   3188   3187   3180   3209     1  0.0000000  0.6508444  3
   3188   3187   3190   3199     1  0.0000000  0.6508444  3
   3188   3187   3190   3191     1  0.0000000  0.6508444  3
   3188   3187   3190   3192     1  0.0000000  0.6508444  3
   3189   3187   3180   3209     1  0.0000000  0.6508444  3
   3189   3187   3190   3199     1  0.0000000  0.6508444  3
   3189   3187   3190   3191     1  0.0000000  0.6508444  3
   3189   3187   3190   3192     1  0.0000000  0.6508444  3
   3190   3187   3180   3209     1  0.0000000  0.6508444  3
   3191   3190   3199   3208     1  0.0000000  1.0460000  1
   3191   3190   3199   3208     1  0.0000000  0.0000000  3
   3191   3190   3199   3200     1  0.0000000  0.6508444  3
   3191   3190   3199   3201     1  0.0000000  0.6508444  3
   3192   3190   3199   3208     1  0.0000000  1.0460000  1
   3192   3190   3199   3208     1  0.0000000  0.0000000  3
   3192   3190   3199   3200     1  0.0000000  0.6508444  3
   3192   3190   3199   3201     1  0.0000000  0.6508444  3
   3193   3181   3180   3209     1  0.0000000  0.6508444  3
   3194   3193   3205   6478     1  0.0000000  1.0460000  1
   3194   3193   3205   6478     1  0.0000000  0.0000000  3
   3194   3193   3205   3206     1  0.0000000  0.6508444  3
   3194   3193   3205   3207     1  0.0000000  0.6508444  3
   3195   3193   3205   6478     1  0.0000000  1.0460000  1
   3195   3193   3205   6478     1  0.0000000  0.0000000  3
   3195   3193   3205   3206     1  0.0000000  0.6508444  3
   3195   3193   3205   3207     1  0.0000000  0.6508444  3
   3196   3184   3180   3209     1  0.0000000  0.6508444  3
   3197   3196   3202   6448     1  0.0000000  1.0460000  1
   3197   3196   3202   6448     1  0.0000000  0.0000000  3
   3197   3196   3202   3203     1  0.0000000  0.6508444  3
   3197   3196   3202   3204     1  0.0000000  0.6508444  3
   3198   3196   3202   6448     1  0.0000000  1.0460000  1
   3198   3196   3202   6448     1  0.0000000  0.0000000  3
   3198   3196   3202   3203     1  0.0000000  0.6508444  3
   3198   3196   3202   3204     1  0.0000000  0.6508444  3
   3202   6448   6439   6440     1  0.0000000  1.6038667  3
   3202   6448   6439   6441     1  0.0000000  1.6038667  3
   3203   3202   6448   6439     1  0.0000000  1.6038667  3
   3204   3202   6448   6439     1  0.0000000  1.6038667  3
   3205   6478   6469   6470     1  0.0000000  1.6038667  3
   3205   6478   6469   6471     1  0.0000000  1.6038667  3
   3206   3205   6478   6469     1  0.0000000  1.6038667  3
   3207   3205   6478   6469     1  0.0000000  1.6038667  3
   3210   3211   3223   3224     1  0.0000000  0.6508444  3
   3210   3211   3223   3225     1  0.0000000  0.6508444  3
   3210   3214   3226   3227     1  0.0000000  0.6508444  3
   3210   3214   3226   3228     1  0.0000000  0.6508444  3
   3210   3217   3220   3221     1  0.0000000  0.6508444  3
   3210   3217   3220   3222     1  0.0000000  0.6508444  3
   3211   3210   3214   3215     1  0.0000000  0.6508444  3
   3211   3210   3214   3216     1  0.0000000  0.6508444  3
   3211   3210   3217   3218     1  0.0000000  0.6508444  3
   3211   3210   3217   3219     1  0.0000000  0.6508444  3
   3211   3223   3235   3236     1  0.0000000  0.6508444  3
   3211   3223   3235   3237     1  0.0000000  0.6508444  3
   3212   3211   3210   3214     1  0.0000000  0.6508444  3
   3212   3211   3210   3217     1  0.0000000  0.6508444  3
   3212   3211   3210   3239     1  0.0000000  0.6508444  3
   3212   3211   3223   3235     1  0.0000000  0.6508444  3
   3212   3211   3223   3224     1  0.0000000  0.6508444  3
   3212   3211   3223   3225     1  0.0000000  0.6508444  3
   3213   3211   3210   3214     1  0.0000000  0.6508444  3
   3213   3211   3210   3217     1  0.0000000  0.6508444  3
   3213   3211   3210   3239     1  0.0000000  0.6508444  3
   3213   3211   3223   3235     1  0.0000000  0.6508444  3
   3213   3211   3223   3224     1  0.0000000  0.6508444  3
   3213   3211   3223   3225     1  0.0000000  0.6508444  3
   3214   3210   3217   3218     1  0.0000000  0.6508444  3
   3214   3210   3217   3219     1  0.0000000  0.6508444  3
   3214   3226   3232   3233     1  0.0000000  0.6508444  3
   3214   3226   3232   3234     1  0.0000000  0.6508444  3
   3215   3214   3210   3217     1  0.0000000  0.6508444  3
   3215   3214   3210   3239     1  0.0000000  0.6508444  3
   3215   3214   3226   3232     1  0.0000000  0.6508444  3
   3215   3214   3226   3227     1  0.0000000  0.6508444  3
   3215   3214   3226   3228     1  0.0000000  0.6508444  3
   3216   3214   3210   3217     1  0.0000000  0.6508444  3
   3216   3214   3210   3239     1  0.0000000  0.6508444  3
   3216   3214   3226   3232     1  0.0000000  0.6508444  3
   3216   3214   3226   3227     1  0.0000000  0.6508444  3
   3216   3214   3226   3228     1  0.0000000  0.6508444  3
   3217   3220   3229   3230     1  0.0000000  0.6508444  3
   3217   3220   3229   3231     1  0.0000000  0.6508444  3
   3218   3217   3210   3239     1  0.0000000  0.6508444  3
   3218   3217   3220   3229     1  0.0000000  0.6508444  3
   3218   3217   3220   3221     1  0.0000000  0.6508444  3
   3218   3217   3220   3222     1  0.0000000  0.6508444  3
   3219   3217   3210   3239     1  0.0000000  0.6508444  3
   3219   3217   3220   3229     1  0.0000000  0.6508444  3
   3219   3217   3220   3221     1  0.0000000  0.6508444  3
   3219   3217   3220   3222     1  0.0000000  0.6508444  3
   3220   3217   3210   3239     1  0.0000000  0.6508444  3
   3221   3220   3229   3238     1  0.0000000  1.0460000  1
   3221   3220   3229   3238     1  0.0000000  0.0000000  3
   3221   3220   3229   3230     1  0.0000000  0.6508444  3
   3221   3220   3229   3231     1  0.0000000  0.6508444  3
   3222   3220   3229   3238     1  0.0000000  1.0460000  1
   3222   3220   3229   3238     1  0.0000000  0.0000000  3
   3222   3220   3229   3230     1  0.0000000  0.6508444  3
   3222   3220   3229   3231     1  0.0000000  0.6508444  3
   3223   3211   3210   3239     1  0.0000000  0.6508444  3
   3224   3223   3235   6538     1  0.0000000  1.0460000  1
   3224   3223   3235   6538     1  0.0000000  0.0000000  3
   3224   3223   3235   3236     1  0.0000000  0.6508444  3
   3224   3223   3235   3237     1  0.0000000  0.6508444  3
   3225   3223   3235   6538     1  0.0000000  1.0460000  1
   3225   3223   3235   6538     1  0.0000000  0.0000000  3
   3225   3223   3235   3236     1  0.0000000  0.6508444  3
   3225   3223   3235   3237     1  0.0000000  0.6508444  3
   3226   3214   3210   3239     1  0.0000000  0.6508444  3
   3227   3226   3232   6508     1  0.0000000  1.0460000  1
   3227   3226   3232   6508     1  0.0000000  0.0000000  3
   3227   3226   3232   3233     1  0.0000000  0.6508444  3
   3227   3226   3232   3234     1  0.0000000  0.6508444  3
   3228   3226   3232   6508     1  0.0000000  1.0460000  1
   3228   3226   3232   6508     1  0.0000000  0.0000000  3
   3228   3226   3232   3233     1  0.0000000  0.6508444  3
   3228   3226   3232   3234     1  0.0000000  0.6508444  3
   3232   6508   6499   6500     1  0.0000000  1.6038667  3
   3232   6508   6499   6501     1  0.0000000  1.6038667  3
   3233   3232   6508   6499     1  0.0000000  1.6038667  3
   3234   3232   6508   6499     1  0.0000000  1.6038667  3
   3235   6538   6529   6530     1  0.0000000  1.6038667  3
   3235   6538   6529   6531     1  0.0000000  1.6038667  3
   3236   3235   6538   6529     1  0.0000000  1.6038667  3
   3237   3235   6538   6529     1  0.0000000  1.6038667  3
   3240   3241   3253   3254     1  0.0000000  0.6508444  3
   3240   3241   3253   3255     1  0.0000000  0.6508444  3
   3240   3244   3256   3257     1  0.0000000  0.6508444  3
   3240   3244   3256   3258     1  0.0000000  0.6508444  3
   3240   3247   3250   3251     1  0.0000000  0.6508444  3
   3240   3247   3250   3252     1  0.0000000  0.6508444  3
   3241   3240   3244   3245     1  0.0000000  0.6508444  3
   3241   3240   3244   3246     1  0.0000000  0.6508444  3
   3241   3240   3247   3248     1  0.0000000  0.6508444  3
   3241   3240   3247   3249     1  0.0000000  0.6508444  3
   3241   3253   3265   3266     1  0.0000000  0.6508444  3
   3241   3253   3265   3267     1  0.0000000  0.6508444  3
   3242   3241   3240   3244     1  0.0000000  0.6508444  3
   3242   3241   3240   3247     1  0.0000000  0.6508444  3
   3242   3241   3240   3269     1  0.0000000  0.6508444  3
   3242   3241   3253   3265     1  0.0000000  0.6508444  3
   3242   3241   3253   3254     1  0.0000000  0.6508444  3
   3242   3241   3253   3255     1  0.0000000  0.6508444  3
   3243   3241   3240   3244     1  0.0000000  0.6508444  3
   3243   3241   3240   3247     1  0.0000000  0.6508444  3
   3243   3241   3240   3269     1  0.0000000  0.6508444  3
   3243   3241   3253   3265     1  0.0000000  0.6508444  3
   3243   3241   3253   3254     1  0.0000000  0.6508444  3
   3243   3241   3253   3255     1  0.0000000  0.6508444  3
   3244   3240   3247   3248     1  0.0000000  0.6508444  3
   3244   3240   3247   3249     1  0.0000000  0.6508444  3
   3244   3256   3262   3263     1  0.0000000  0.6508444  3
   3244   3256   3262   3264     1  0.0000000  0.6508444  3
   3245   3244   3240   3247     1  0.0000000  0.6508444  3
   3245   3244   3240   3269     1  0.0000000  0.6508444  3
   3245   3244   3256   3262     1  0.0000000  0.6508444  3
   3245   3244   3256   3257     1  0.0000000  0.6508444  3
   3245   3244   3256   3258     1  0.0000000  0.6508444  3
   3246   3244   3240   3247     1  0.0000000  0.6508444  3
   3246   3244   3240   3269     1  0.0000000  0.6508444  3
   3246   3244   3256   3262     1  0.0000000  0.6508444  3
   3246   3244   3256   3257     1  0.0000000  0.6508444  3
   3246   3244   3256   3258     1  0.0000000  0.6508444  3
   3247   3250   3259   3260     1  0.0000000  0.6508444  3
   3247   3250   3259   3261     1  0.0000000  0.6508444  3
   3248   3247   3240   3269     1  0.0000000  0.6508444  3
   3248   3247   3250   3259     1  0.0000000  0.6508444  3
   3248   3247   3250   3251     1  0.0000000  0.6508444  3
   3248   3247   3250   3252     1  0.0000000  0.6508444  3
   3249   3247   3240   3269     1  0.0000000  0.6508444  3
   3249   3247   3250   3259     1  0.0000000  0.6508444  3
   3249   3247   3250   3251     1  0.0000000  0.6508444  3
   3249   3247   3250   3252     1  0.0000000  0.6508444  3
   3250   3247   3240   3269     1  0.0000000  0.6508444  3
   3251   3250   3259   3268     1  0.0000000  1.0460000  1
   3251   3250   3259   3268     1  0.0000000  0.0000000  3
   3251   3250   3259   3260     1  0.0000000  0.6508444  3
   3251   3250   3259   3261     1  0.0000000  0.6508444  3
   3252   3250   3259   3268     1  0.0000000  1.0460000  1
   3252   3250   3259   3268     1  0.0000000  0.0000000  3
   3252   3250   3259   3260     1  0.0000000  0.6508444  3
   3252   3250   3259   3261     1  0.0000000  0.6508444  3
   3253   3241   3240   3269     1  0.0000000  0.6508444  3
   3254   3253   3265   6598     1  0.0000000  1.0460000  1
   3254   3253   3265   6598     1  0.0000000  0.0000000  3
   3254   3253   3265   3266     1  0.0000000  0.6508444  3
   3254   3253   3265   3267     1  0.0000000  0.6508444  3
   3255   3253   3265   6598     1  0.0000000  1.0460000  1
   3255   3253   3265   6598     1  0.0000000  0.0000000  3
   3255   3253   3265   3266     1  0.0000000  0.6508444  3
   3255   3253   3265   3267     1  0.0000000  0.6508444  3
   3256   3244   3240   3269     1  0.0000000  0.6508444  3
   3257   3256   3262   6568     1  0.0000000  1.0460000  1
   3257   3256   3262   6568     1  0.0000000  0.0000000  3
   3257   3256   3262   3263     1  0.0000000  0.6508444  3
   3257   3256   3262   3264     1  0.0000000  0.6508444  3
   3258   3256   3262   6568     1  0.0000000  1.0460000  1
   3258   3256   3262   6568     1  0.0000000  0.0000000  3
   3258   3256   3262   3263     1  0.0000000  0.6508444  3
   3258   3256   3262   3264     1  0.0000000  0.6508444  3
   3262   6568   6559   6560     1  0.0000000  1.6038667  3
   3262   6568   6559   6561     1  0.0000000  1.6038667  3
   3263   3262   6568   6559     1  0.0000000  1.6038667  3
   3264   3262   6568   6559     1  0.0000000  1.6038667  3
   3265   6598   6589   6590     1  0.0000000  1.6038667  3
   3265   6598   6589   6591     1  0.0000000  1.6038667  3
   3266   3265   6598   6589     1  0.0000000  1.6038667  3
   3267   3265   6598   6589     1  0.0000000  1.6038667  3
   3270   3271   3283   3284     1  0.0000000  0.6508444  3
   3270   3271   3283   3285     1  0.0000000  0.6508444  3
   3270   3274   3286   3287     1  0.0000000  0.6508444  3
   3270   3274   3286   3288     1  0.0000000  0.6508444  3
   3270   3277   3280   3281     1  0.0000000  0.6508444  3
   3270   3277   3280   3282     1  0.0000000  0.6508444  3
   3271   3270   3274   3275     1  0.0000000  0.6508444  3
   3271   3270   3274   3276     1  0.0000000  0.6508444  3
   3271   3270   3277   3278     1  0.0000000  0.6508444  3
   3271   3270   3277   3279     1  0.0000000  0.6508444  3
   3271   3283   3295   3296     1  0.0000000  0.6508444  3
   3271   3283   3295   3297     1  0.0000000  0.6508444  3
   3272   3271   3270   3274     1  0.0000000  0.6508444  3
   3272   3271   3270   3277     1  0.0000000  0.6508444  3
   3272   3271   3270   3299     1  0.0000000  0.6508444  3
   3272   3271   3283   3295     1  0.0000000  0.6508444  3
   3272   3271   3283   3284     1  0.0000000  0.6508444  3
   3272   3271   3283   3285     1  0.0000000  0.6508444  3
   3273   3271   3270   3274     1  0.0000000  0.6508444  3
   3273   3271   3270   3277     1  0.0000000  0.6508444  3
   3273   3271   3270   3299     1  0.0000000  0.6508444  3
   3273   3271   3283   3295     1  0.0000000  0.6508444  3
   3273   3271   3283   3284     1  0.0000000  0.6508444  3
   3273   3271   3283   3285     1  0.0000000  0.6508444  3
   3274   3270   3277   3278     1  0.0000000  0.6508444  3
   3274   3270   3277   3279     1  0.0000000  0.6508444  3
   3274   3286   3292   3293     1  0.0000000  0.6508444  3
   3274   3286   3292   3294     1  0.0000000  0.6508444  3
   3275   3274   3270   3277     1  0.0000000  0.6508444  3
   3275   3274   3270   3299     1  0.0000000  0.6508444  3
   3275   3274   3286   3292     1  0.0000000  0.6508444  3
   3275   3274   3286   3287     1  0.0000000  0.6508444  3
   3275   3274   3286   3288     1  0.0000000  0.6508444  3
   3276   3274   3270   3277     1  0.0000000  0.6508444  3
   3276   3274   3270   3299     1  0.0000000  0.6508444  3
   3276   3274   3286   3292     1  0.0000000  0.6508444  3
   3276   3274   3286   3287     1  0.0000000  0.6508444  3
   3276   3274   3286   3288     1  0.0000000  0.6508444  3
   3277   3280   3289   3290     1  0.0000000  0.6508444  3
   3277   3280   3289   3291     1  0.0000000  0.6508444  3
   3278   3277   3270   3299     1  0.0000000  0.6508444  3
   3278   3277   3280   3289     1  0.0000000  0.6508444  3
   3278   3277   3280   3281     1  0.0000000  0.6508444  3
   3278   3277   3280   3282     1  0.0000000  0.6508444  3
   3279   3277   3270   3299     1  0.0000000  0.6508444  3
   3279   3277   3280   3289     1  0.0000000  0.6508444  3
   3279   3277   3280   3281     1  0.0000000  0.6508444  3
   3279   3277   3280   3282     1  0.0000000  0.6508444  3
   3280   3277   3270   3299     1  0.0000000  0.6508444  3
   3281   3280   3289   3298     1  0.0000000  1.0460000  1
   3281   3280   3289   3298     1  0.0000000  0.0000000  3
   3281   3280   3289   3290     1  0.0000000  0.6508444  3
   3281   3280   3289   3291     1  0.0000000  0.6508444  3
   3282   3280   3289   3298     1  0.0000000  1.0460000  1
   3282   3280   3289   3298     1  0.0000000  0.0000000  3
   3282   3280   3289   3290     1  0.0000000  0.6508444  3
   3282   3280   3289   3291     1  0.0000000  0.6508444  3
   3283   3271   3270   3299     1  0.0000000  0.6508444  3
   3284   3283   3295   6658     1  0.0000000  1.0460000  1
   3284   3283   3295   6658     1  0.0000000  0.0000000  3
   3284   3283   3295   3296     1  0.0000000  0.6508444  3
   3284   3283   3295   3297     1  0.0000000  0.6508444  3
   3285   3283   3295   6658     1  0.0000000  1.0460000  1
   3285   3283   3295   6658     1  0.0000000  0.0000000  3
   3285   3283   3295   3296     1  0.0000000  0.6508444  3
   3285   3283   3295   3297     1  0.0000000  0.6508444  3
   3286   3274   3270   3299     1  0.0000000  0.6508444  3
   3287   3286   3292   6628     1  0.0000000  1.0460000  1
   3287   3286   3292   6628     1  0.0000000  0.0000000  3
   3287   3286   3292   3293     1  0.0000000  0.6508444  3
   3287   3286   3292   3294     1  0.0000000  0.6508444  3
   3288   3286   3292   6628     1  0.0000000  1.0460000  1
   3288   3286   3292   6628     1  0.0000000  0.0000000  3
   3288   3286   3292   3293     1  0.0000000  0.6508444  3
   3288   3286   3292   3294     1  0.0000000  0.6508444  3
   3292   6628   6619   6620     1  0.0000000  1.6038667  3
   3292   6628   6619   6621     1  0.0000000  1.6038667  3
   3293   3292   6628   6619     1  0.0000000  1.6038667  3
   3294   3292   6628   6619     1  0.0000000  1.6038667  3
   3295   6658   6649   6650     1  0.0000000  1.6038667  3
   3295   6658   6649   6651     1  0.0000000  1.6038667  3
   3296   3295   6658   6649     1  0.0000000  1.6038667  3
   3297   3295   6658   6649     1  0.0000000  1.6038667  3
   3300   3301   3313   3314     1  0.0000000  0.6508444  3
   3300   3301   3313   3315     1  0.0000000  0.6508444  3
   3300   3304   3316   3317     1  0.0000000  0.6508444  3
   3300   3304   3316   3318     1  0.0000000  0.6508444  3
   3300   3307   3310   3311     1  0.0000000  0.6508444  3
   3300   3307   3310   3312     1  0.0000000  0.6508444  3
   3301   3300   3304   3305     1  0.0000000  0.6508444  3
   3301   3300   3304   3306     1  0.0000000  0.6508444  3
   3301   3300   3307   3308     1  0.0000000  0.6508444  3
   3301   3300   3307   3309     1  0.0000000  0.6508444  3
   3301   3313   3325   3326     1  0.0000000  0.6508444  3
   3301   3313   3325   3327     1  0.0000000  0.6508444  3
   3302   3301   3300   3304     1  0.0000000  0.6508444  3
   3302   3301   3300   3307     1  0.0000000  0.6508444  3
   3302   3301   3300   3329     1  0.0000000  0.6508444  3
   3302   3301   3313   3325     1  0.0000000  0.6508444  3
   3302   3301   3313   3314     1  0.0000000  0.6508444  3
   3302   3301   3313   3315     1  0.0000000  0.6508444  3
   3303   3301   3300   3304     1  0.0000000  0.6508444  3
   3303   3301   3300   3307     1  0.0000000  0.6508444  3
   3303   3301   3300   3329     1  0.0000000  0.6508444  3
   3303   3301   3313   3325     1  0.0000000  0.6508444  3
   3303   3301   3313   3314     1  0.0000000  0.6508444  3
   3303   3301   3313   3315     1  0.0000000  0.6508444  3
   3304   3300   3307   3308     1  0.0000000  0.6508444  3
   3304   3300   3307   3309     1  0.0000000  0.6508444  3
   3304   3316   3322   3323     1  0.0000000  0.6508444  3
   3304   3316   3322   3324     1  0.0000000  0.6508444  3
   3305   3304   3300   3307     1  0.0000000  0.6508444  3
   3305   3304   3300   3329     1  0.0000000  0.6508444  3
   3305   3304   3316   3322     1  0.0000000  0.6508444  3
   3305   3304   3316   3317     1  0.0000000  0.6508444  3
   3305   3304   3316   3318     1  0.0000000  0.6508444  3
   3306   3304   3300   3307     1  0.0000000  0.6508444  3
   3306   3304   3300   3329     1  0.0000000  0.6508444  3
   3306   3304   3316   3322     1  0.0000000  0.6508444  3
   3306   3304   3316   3317     1  0.0000000  0.6508444  3
   3306   3304   3316   3318     1  0.0000000  0.6508444  3
   3307   3310   3319   3320     1  0.0000000  0.6508444  3
   3307   3310   3319   3321     1  0.0000000  0.6508444  3
   3308   3307   3300   3329     1  0.0000000  0.6508444  3
   3308   3307   3310   3319     1  0.0000000  0.6508444  3
   3308   3307   3310   3311     1  0.0000000  0.6508444  3
   3308   3307   3310   3312     1  0.0000000  0.6508444  3
   3309   3307   3300   3329     1  0.0000000  0.6508444  3
   3309   3307   3310   3319     1  0.0000000  0.6508444  3
   3309   3307   3310   3311     1  0.0000000  0.6508444  3
   3309   3307   3310   3312     1  0.0000000  0.6508444  3
   3310   3307   3300   3329     1  0.0000000  0.6508444  3
   3311   3310   3319   3328     1  0.0000000  1.0460000  1
   3311   3310   3319   3328     1  0.0000000  0.0000000  3
   3311   3310   3319   3320     1  0.0000000  0.6508444  3
   3311   3310   3319   3321     1  0.0000000  0.6508444  3
   3312   3310   3319   3328     1  0.0000000  1.0460000  1
   3312   3310   3319   3328     1  0.0000000  0.0000000  3
   3312   3310   3319   3320     1  0.0000000  0.6508444  3
   3312   3310   3319   3321     1  0.0000000  0.6508444  3
   3313   3301   3300   3329     1  0.0000000  0.6508444  3
   3314   3313   3325   6718     1  0.0000000  1.0460000  1
   3314   3313   3325   6718     1  0.0000000  0.0000000  3
   3314   3313   3325   3326     1  0.0000000  0.6508444  3
   3314   3313   3325   3327     1  0.0000000  0.6508444  3
   3315   3313   3325   6718     1  0.0000000  1.0460000  1
   3315   3313   3325   6718     1  0.0000000  0.0000000  3
   3315   3313   3325   3326     1  0.0000000  0.6508444  3
   3315   3313   3325   3327     1  0.0000000  0.6508444  3
   3316   3304   3300   3329     1  0.0000000  0.6508444  3
   3317   3316   3322   6688     1  0.0000000  1.0460000  1
   3317   3316   3322   6688     1  0.0000000  0.0000000  3
   3317   3316   3322   3323     1  0.0000000  0.6508444  3
   3317   3316   3322   3324     1  0.0000000  0.6508444  3
   3318   3316   3322   6688     1  0.0000000  1.0460000  1
   3318   3316   3322   6688     1  0.0000000  0.0000000  3
   3318   3316   3322   3323     1  0.0000000  0.6508444  3
   3318   3316   3322   3324     1  0.0000000  0.6508444  3
   3322   6688   6679   6680     1  0.0000000  1.6038667  3
   3322   6688   6679   6681     1  0.0000000  1.6038667  3
   3323   3322   6688   6679     1  0.0000000  1.6038667  3
   3324   3322   6688   6679     1  0.0000000  1.6038667  3
   3325   6718   6709   6710     1  0.0000000  1.6038667  3
   3325   6718   6709   6711     1  0.0000000  1.6038667  3
   3326   3325   6718   6709     1  0.0000000  1.6038667  3
   3327   3325   6718   6709     1  0.0000000  1.6038667  3
   3330   3331   3343   3344     1  0.0000000  0.6508444  3
   3330   3331   3343   3345     1  0.0000000  0.6508444  3
   3330   3334   3346   3347     1  0.0000000  0.6508444  3
   3330   3334   3346   3348     1  0.0000000  0.6508444  3
   3330   3337   3340   3341     1  0.0000000  0.6508444  3
   3330   3337   3340   3342     1  0.0000000  0.6508444  3
   3331   3330   3334   3335     1  0.0000000  0.6508444  3
   3331   3330   3334   3336     1  0.0000000  0.6508444  3
   3331   3330   3337   3338     1  0.0000000  0.6508444  3
   3331   3330   3337   3339     1  0.0000000  0.6508444  3
   3331   3343   3355   3356     1  0.0000000  0.6508444  3
   3331   3343   3355   3357     1  0.0000000  0.6508444  3
   3332   3331   3330   3334     1  0.0000000  0.6508444  3
   3332   3331   3330   3337     1  0.0000000  0.6508444  3
   3332   3331   3330   3359     1  0.0000000  0.6508444  3
   3332   3331   3343   3355     1  0.0000000  0.6508444  3
   3332   3331   3343   3344     1  0.0000000  0.6508444  3
   3332   3331   3343   3345     1  0.0000000  0.6508444  3
   3333   3331   3330   3334     1  0.0000000  0.6508444  3
   3333   3331   3330   3337     1  0.0000000  0.6508444  3
   3333   3331   3330   3359     1  0.0000000  0.6508444  3
   3333   3331   3343   3355     1  0.0000000  0.6508444  3
   3333   3331   3343   3344     1  0.0000000  0.6508444  3
   3333   3331   3343   3345     1  0.0000000  0.6508444  3
   3334   3330   3337   3338     1  0.0000000  0.6508444  3
   3334   3330   3337   3339     1  0.0000000  0.6508444  3
   3334   3346   3352   3353     1  0.0000000  0.6508444  3
   3334   3346   3352   3354     1  0.0000000  0.6508444  3
   3335   3334   3330   3337     1  0.0000000  0.6508444  3
   3335   3334   3330   3359     1  0.0000000  0.6508444  3
   3335   3334   3346   3352     1  0.0000000  0.6508444  3
   3335   3334   3346   3347     1  0.0000000  0.6508444  3
   3335   3334   3346   3348     1  0.0000000  0.6508444  3
   3336   3334   3330   3337     1  0.0000000  0.6508444  3
   3336   3334   3330   3359     1  0.0000000  0.6508444  3
   3336   3334   3346   3352     1  0.0000000  0.6508444  3
   3336   3334   3346   3347     1  0.0000000  0.6508444  3
   3336   3334   3346   3348     1  0.0000000  0.6508444  3
   3337   3340   3349   3350     1  0.0000000  0.6508444  3
   3337   3340   3349   3351     1  0.0000000  0.6508444  3
   3338   3337   3330   3359     1  0.0000000  0.6508444  3
   3338   3337   3340   3349     1  0.0000000  0.6508444  3
   3338   3337   3340   3341     1  0.0000000  0.6508444  3
   3338   3337   3340   3342     1  0.0000000  0.6508444  3
   3339   3337   3330   3359     1  0.0000000  0.6508444  3
   3339   3337   3340   3349     1  0.0000000  0.6508444  3
   3339   3337   3340   3341     1  0.0000000  0.6508444  3
   3339   3337   3340   3342     1  0.0000000  0.6508444  3
   3340   3337   3330   3359     1  0.0000000  0.6508444  3
   3341   3340   3349   3358     1  0.0000000  1.0460000  1
   3341   3340   3349   3358     1  0.0000000  0.0000000  3
   3341   3340   3349   3350     1  0.0000000  0.6508444  3
   3341   3340   3349   3351     1  0.0000000  0.6508444  3
   3342   3340   3349   3358     1  0.0000000  1.0460000  1
   3342   3340   3349   3358     1  0.0000000  0.0000000  3
   3342   3340   3349   3350     1  0.0000000  0.6508444  3
   3342   3340   3349   3351     1  0.0000000  0.6508444  3
   3343   3331   3330   3359     1  0.0000000  0.6508444  3
   3344   3343   3355   6778     1  0.0000000  1.0460000  1
   3344   3343   3355   6778     1  0.0000000  0.0000000  3
   3344   3343   3355   3356     1  0.0000000  0.6508444  3
   3344   3343   3355   3357     1  0.0000000  0.6508444  3
   3345   3343   3355   6778     1  0.0000000  1.0460000  1
   3345   3343   3355   6778     1  0.0000000  0.0000000  3
   3345   3343   3355   3356     1  0.0000000  0.6508444  3
   3345   3343   3355   3357     1  0.0000000  0.6508444  3
   3346   3334   3330   3359     1  0.0000000  0.6508444  3
   3347   3346   3352   6748     1  0.0000000  1.0460000  1
   3347   3346   3352   6748     1  0.0000000  0.0000000  3
   3347   3346   3352   3353     1  0.0000000  0.6508444  3
   3347   3346   3352   3354     1  0.0000000  0.6508444  3
   3348   3346   3352   6748     1  0.0000000  1.0460000  1
   3348   3346   3352   6748     1  0.0000000  0.0000000  3
   3348   3346   3352   3353     1  0.0000000  0.6508444  3
   3348   3346   3352   3354     1  0.0000000  0.6508444  3
   3352   6748   6739   6740     1  0.0000000  1.6038667  3
   3352   6748   6739   6741     1  0.0000000  1.6038667  3
   3353   3352   6748   6739     1  0.0000000  1.6038667  3
   3354   3352   6748   6739     1  0.0000000  1.6038667  3
   3355   6778   6769   6770     1  0.0000000  1.6038667  3
   3355   6778   6769   6771     1  0.0000000  1.6038667  3
   3356   3355   6778   6769     1  0.0000000  1.6038667  3
   3357   3355   6778   6769     1  0.0000000  1.6038667  3
   3360   3361   3373   3374     1  0.0000000  0.6508444  3
   3360   3361   3373   3375     1  0.0000000  0.6508444  3
   3360   3364   3376   3377     1  0.0000000  0.6508444  3
   3360   3364   3376   3378     1  0.0000000  0.6508444  3
   3360   3367   3370   3371     1  0.0000000  0.6508444  3
   3360   3367   3370   3372     1  0.0000000  0.6508444  3
   3361   3360   3364   3365     1  0.0000000  0.6508444  3
   3361   3360   3364   3366     1  0.0000000  0.6508444  3
   3361   3360   3367   3368     1  0.0000000  0.6508444  3
   3361   3360   3367   3369     1  0.0000000  0.6508444  3
   3361   3373   3385   3386     1  0.0000000  0.6508444  3
   3361   3373   3385   3387     1  0.0000000  0.6508444  3
   3362   3361   3360   3364     1  0.0000000  0.6508444  3
   3362   3361   3360   3367     1  0.0000000  0.6508444  3
   3362   3361   3360   3389     1  0.0000000  0.6508444  3
   3362   3361   3373   3385     1  0.0000000  0.6508444  3
   3362   3361   3373   3374     1  0.0000000  0.6508444  3
   3362   3361   3373   3375     1  0.0000000  0.6508444  3
   3363   3361   3360   3364     1  0.0000000  0.6508444  3
   3363   3361   3360   3367     1  0.0000000  0.6508444  3
   3363   3361   3360   3389     1  0.0000000  0.6508444  3
   3363   3361   3373   3385     1  0.0000000  0.6508444  3
   3363   3361   3373   3374     1  0.0000000  0.6508444  3
   3363   3361   3373   3375     1  0.0000000  0.6508444  3
   3364   3360   3367   3368     1  0.0000000  0.6508444  3
   3364   3360   3367   3369     1  0.0000000  0.6508444  3
   3364   3376   3382   3383     1  0.0000000  0.6508444  3
   3364   3376   3382   3384     1  0.0000000  0.6508444  3
   3365   3364   3360   3367     1  0.0000000  0.6508444  3
   3365   3364   3360   3389     1  0.0000000  0.6508444  3
   3365   3364   3376   3382     1  0.0000000  0.6508444  3
   3365   3364   3376   3377     1  0.0000000  0.6508444  3
   3365   3364   3376   3378     1  0.0000000  0.6508444  3
   3366   3364   3360   3367     1  0.0000000  0.6508444  3
   3366   3364   3360   3389     1  0.0000000  0.6508444  3
   3366   3364   3376   3382     1  0.0000000  0.6508444  3
   3366   3364   3376   3377     1  0.0000000  0.6508444  3
   3366   3364   3376   3378     1  0.0000000  0.6508444  3
   3367   3370   3379   3380     1  0.0000000  0.6508444  3
   3367   3370   3379   3381     1  0.0000000  0.6508444  3
   3368   3367   3360   3389     1  0.0000000  0.6508444  3
   3368   3367   3370   3379     1  0.0000000  0.6508444  3
   3368   3367   3370   3371     1  0.0000000  0.6508444  3
   3368   3367   3370   3372     1  0.0000000  0.6508444  3
   3369   3367   3360   3389     1  0.0000000  0.6508444  3
   3369   3367   3370   3379     1  0.0000000  0.6508444  3
   3369   3367   3370   3371     1  0.0000000  0.6508444  3
   3369   3367   3370   3372     1  0.0000000  0.6508444  3
   3370   3367   3360   3389     1  0.0000000  0.6508444  3
   3371   3370   3379   3388     1  0.0000000  1.0460000  1
   3371   3370   3379   3388     1  0.0000000  0.0000000  3
   3371   3370   3379   3380     1  0.0000000  0.6508444  3
   3371   3370   3379   3381     1  0.0000000  0.6508444  3
   3372   3370   3379   3388     1  0.0000000  1.0460000  1
   3372   3370   3379   3388     1  0.0000000  0.0000000  3
   3372   3370   3379   3380     1  0.0000000  0.6508444  3
   3372   3370   3379   3381     1  0.0000000  0.6508444  3
   3373   3361   3360   3389     1  0.0000000  0.6508444  3
   3374   3373   3385   6838     1  0.0000000  1.0460000  1
   3374   3373   3385   6838     1  0.0000000  0.0000000  3
   3374   3373   3385   3386     1  0.0000000  0.6508444  3
   3374   3373   3385   3387     1  0.0000000  0.6508444  3
   3375   3373   3385   6838     1  0.0000000  1.0460000  1
   3375   3373   3385   6838     1  0.0000000  0.0000000  3
   3375   3373   3385   3386     1  0.0000000  0.6508444  3
   3375   3373   3385   3387     1  0.0000000  0.6508444  3
   3376   3364   3360   3389     1  0.0000000  0.6508444  3
   3377   3376   3382   6808     1  0.0000000  1.0460000  1
   3377   3376   3382   6808     1  0.0000000  0.0000000  3
   3377   3376   3382   3383     1  0.0000000  0.6508444  3
   3377   3376   3382   3384     1  0.0000000  0.6508444  3
   3378   3376   3382   6808     1  0.0000000  1.0460000  1
   3378   3376   3382   6808     1  0.0000000  0.0000000  3
   3378   3376   3382   3383     1  0.0000000  0.6508444  3
   3378   3376   3382   3384     1  0.0000000  0.6508444  3
   3382   6808   6799   6800     1  0.0000000  1.6038667  3
   3382   6808   6799   6801     1  0.0000000  1.6038667  3
   3383   3382   6808   6799     1  0.0000000  1.6038667  3
   3384   3382   6808   6799     1  0.0000000  1.6038667  3
   3385   6838   6829   6830     1  0.0000000  1.6038667  3
   3385   6838   6829   6831     1  0.0000000  1.6038667  3
   3386   3385   6838   6829     1  0.0000000  1.6038667  3
   3387   3385   6838   6829     1  0.0000000  1.6038667  3
   3390   3391   3403   3404     1  0.0000000  0.6508444  3
   3390   3391   3403   3405     1  0.0000000  0.6508444  3
   3390   3394   3406   3407     1  0.0000000  0.6508444  3
   3390   3394   3406   3408     1  0.0000000  0.6508444  3
   3390   3397   3400   3401     1  0.0000000  0.6508444  3
   3390   3397   3400   3402     1  0.0000000  0.6508444  3
   3391   3390   3394   3395     1  0.0000000  0.6508444  3
   3391   3390   3394   3396     1  0.0000000  0.6508444  3
   3391   3390   3397   3398     1  0.0000000  0.6508444  3
   3391   3390   3397   3399     1  0.0000000  0.6508444  3
   3391   3403   3415   3416     1  0.0000000  0.6508444  3
   3391   3403   3415   3417     1  0.0000000  0.6508444  3
   3392   3391   3390   3394     1  0.0000000  0.6508444  3
   3392   3391   3390   3397     1  0.0000000  0.6508444  3
   3392   3391   3390   3419     1  0.0000000  0.6508444  3
   3392   3391   3403   3415     1  0.0000000  0.6508444  3
   3392   3391   3403   3404     1  0.0000000  0.6508444  3
   3392   3391   3403   3405     1  0.0000000  0.6508444  3
   3393   3391   3390   3394     1  0.0000000  0.6508444  3
   3393   3391   3390   3397     1  0.0000000  0.6508444  3
   3393   3391   3390   3419     1  0.0000000  0.6508444  3
   3393   3391   3403   3415     1  0.0000000  0.6508444  3
   3393   3391   3403   3404     1  0.0000000  0.6508444  3
   3393   3391   3403   3405     1  0.0000000  0.6508444  3
   3394   3390   3397   3398     1  0.0000000  0.6508444  3
   3394   3390   3397   3399     1  0.0000000  0.6508444  3
   3394   3406   3412   3413     1  0.0000000  0.6508444  3
   3394   3406   3412   3414     1  0.0000000  0.6508444  3
   3395   3394   3390   3397     1  0.0000000  0.6508444  3
   3395   3394   3390   3419     1  0.0000000  0.6508444  3
   3395   3394   3406   3412     1  0.0000000  0.6508444  3
   3395   3394   3406   3407     1  0.0000000  0.6508444  3
   3395   3394   3406   3408     1  0.0000000  0.6508444  3
   3396   3394   3390   3397     1  0.0000000  0.6508444  3
   3396   3394   3390   3419     1  0.0000000  0.6508444  3
   3396   3394   3406   3412     1  0.0000000  0.6508444  3
   3396   3394   3406   3407     1  0.0000000  0.6508444  3
   3396   3394   3406   3408     1  0.0000000  0.6508444  3
   3397   3400   3409   3410     1  0.0000000  0.6508444  3
   3397   3400   3409   3411     1  0.0000000  0.6508444  3
   3398   3397   3390   3419     1  0.0000000  0.6508444  3
   3398   3397   3400   3409     1  0.0000000  0.6508444  3
   3398   3397   3400   3401     1  0.0000000  0.6508444  3
   3398   3397   3400   3402     1  0.0000000  0.6508444  3
   3399   3397   3390   3419     1  0.0000000  0.6508444  3
   3399   3397   3400   3409     1  0.0000000  0.6508444  3
   3399   3397   3400   3401     1  0.0000000  0.6508444  3
   3399   3397   3400   3402     1  0.0000000  0.6508444  3
   3400   3397   3390   3419     1  0.0000000  0.6508444  3
   3401   3400   3409   3418     1  0.0000000  1.0460000  1
   3401   3400   3409   3418     1  0.0000000  0.0000000  3
   3401   3400   3409   3410     1  0.0000000  0.6508444  3
   3401   3400   3409   3411     1  0.0000000  0.6508444  3
   3402   3400   3409   3418     1  0.0000000  1.0460000  1
   3402   3400   3409   3418     1  0.0000000  0.0000000  3
   3402   3400   3409   3410     1  0.0000000  0.6508444  3
   3402   3400   3409   3411     1  0.0000000  0.6508444  3
   3403   3391   3390   3419     1  0.0000000  0.6508444  3
   3404   3403   3415   6898     1  0.0000000  1.0460000  1
   3404   3403   3415   6898     1  0.0000000  0.0000000  3
   3404   3403   3415   3416     1  0.0000000  0.6508444  3
   3404   3403   3415   3417     1  0.0000000  0.6508444  3
   3405   3403   3415   6898     1  0.0000000  1.0460000  1
   3405   3403   3415   6898     1  0.0000000  0.0000000  3
   3405   3403   3415   3416     1  0.0000000  0.6508444  3
   3405   3403   3415   3417     1  0.0000000  0.6508444  3
   3406   3394   3390   3419     1  0.0000000  0.6508444  3
   3407   3406   3412   6868     1  0.0000000  1.0460000  1
   3407   3406   3412   6868     1  0.0000000  0.0000000  3
   3407   3406   3412   3413     1  0.0000000  0.6508444  3
   3407   3406   3412   3414     1  0.0000000  0.6508444  3
   3408   3406   3412   6868     1  0.0000000  1.0460000  1
   3408   3406   3412   6868     1  0.0000000  0.0000000  3
   3408   3406   3412   3413     1  0.0000000  0.6508444  3
   3408   3406   3412   3414     1  0.0000000  0.6508444  3
   3412   6868   6859   6860     1  0.0000000  1.6038667  3
   3412   6868   6859   6861     1  0.0000000  1.6038667  3
   3413   3412   6868   6859     1  0.0000000  1.6038667  3
   3414   3412   6868   6859     1  0.0000000  1.6038667  3
   3415   6898   6889   6890     1  0.0000000  1.6038667  3
   3415   6898   6889   6891     1  0.0000000  1.6038667  3
   3416   3415   6898   6889     1  0.0000000  1.6038667  3
   3417   3415   6898   6889     1  0.0000000  1.6038667  3
   3420   3421   3433   3434     1  0.0000000  0.6508444  3
   3420   3421   3433   3435     1  0.0000000  0.6508444  3
   3420   3424   3436   3437     1  0.0000000  0.6508444  3
   3420   3424   3436   3438     1  0.0000000  0.6508444  3
   3420   3427   3430   3431     1  0.0000000  0.6508444  3
   3420   3427   3430   3432     1  0.0000000  0.6508444  3
   3421   3420   3424   3425     1  0.0000000  0.6508444  3
   3421   3420   3424   3426     1  0.0000000  0.6508444  3
   3421   3420   3427   3428     1  0.0000000  0.6508444  3
   3421   3420   3427   3429     1  0.0000000  0.6508444  3
   3421   3433   3445   3446     1  0.0000000  0.6508444  3
   3421   3433   3445   3447     1  0.0000000  0.6508444  3
   3422   3421   3420   3424     1  0.0000000  0.6508444  3
   3422   3421   3420   3427     1  0.0000000  0.6508444  3
   3422   3421   3420   3449     1  0.0000000  0.6508444  3
   3422   3421   3433   3445     1  0.0000000  0.6508444  3
   3422   3421   3433   3434     1  0.0000000  0.6508444  3
   3422   3421   3433   3435     1  0.0000000  0.6508444  3
   3423   3421   3420   3424     1  0.0000000  0.6508444  3
   3423   3421   3420   3427     1  0.0000000  0.6508444  3
   3423   3421   3420   3449     1  0.0000000  0.6508444  3
   3423   3421   3433   3445     1  0.0000000  0.6508444  3
   3423   3421   3433   3434     1  0.0000000  0.6508444  3
   3423   3421   3433   3435     1  0.0000000  0.6508444  3
   3424   3420   3427   3428     1  0.0000000  0.6508444  3
   3424   3420   3427   3429     1  0.0000000  0.6508444  3
   3424   3436   3442   3443     1  0.0000000  0.6508444  3
   3424   3436   3442   3444     1  0.0000000  0.6508444  3
   3425   3424   3420   3427     1  0.0000000  0.6508444  3
   3425   3424   3420   3449     1  0.0000000  0.6508444  3
   3425   3424   3436   3442     1  0.0000000  0.6508444  3
   3425   3424   3436   3437     1  0.0000000  0.6508444  3
   3425   3424   3436   3438     1  0.0000000  0.6508444  3
   3426   3424   3420   3427     1  0.0000000  0.6508444  3
   3426   3424   3420   3449     1  0.0000000  0.6508444  3
   3426   3424   3436   3442     1  0.0000000  0.6508444  3
   3426   3424   3436   3437     1  0.0000000  0.6508444  3
   3426   3424   3436   3438     1  0.0000000  0.6508444  3
   3427   3430   3439   3440     1  0.0000000  0.6508444  3
   3427   3430   3439   3441     1  0.0000000  0.6508444  3
   3428   3427   3420   3449     1  0.0000000  0.6508444  3
   3428   3427   3430   3439     1  0.0000000  0.6508444  3
   3428   3427   3430   3431     1  0.0000000  0.6508444  3
   3428   3427   3430   3432     1  0.0000000  0.6508444  3
   3429   3427   3420   3449     1  0.0000000  0.6508444  3
   3429   3427   3430   3439     1  0.0000000  0.6508444  3
   3429   3427   3430   3431     1  0.0000000  0.6508444  3
   3429   3427   3430   3432     1  0.0000000  0.6508444  3
   3430   3427   3420   3449     1  0.0000000  0.6508444  3
   3431   3430   3439   3448     1  0.0000000  1.0460000  1
   3431   3430   3439   3448     1  0.0000000  0.0000000  3
   3431   3430   3439   3440     1  0.0000000  0.6508444  3
   3431   3430   3439   3441     1  0.0000000  0.6508444  3
   3432   3430   3439   3448     1  0.0000000  1.0460000  1
   3432   3430   3439   3448     1  0.0000000  0.0000000  3
   3432   3430   3439   3440     1  0.0000000  0.6508444  3
   3432   3430   3439   3441     1  0.0000000  0.6508444  3
   3433   3421   3420   3449     1  0.0000000  0.6508444  3
   3434   3433   3445   6958     1  0.0000000  1.0460000  1
   3434   3433   3445   6958     1  0.0000000  0.0000000  3
   3434   3433   3445   3446     1  0.0000000  0.6508444  3
   3434   3433   3445   3447     1  0.0000000  0.6508444  3
   3435   3433   3445   6958     1  0.0000000  1.0460000  1
   3435   3433   3445   6958     1  0.0000000  0.0000000  3
   3435   3433   3445   3446     1  0.0000000  0.6508444  3
   3435   3433   3445   3447     1  0.0000000  0.6508444  3
   3436   3424   3420   3449     1  0.0000000  0.6508444  3
   3437   3436   3442   6928     1  0.0000000  1.0460000  1
   3437   3436   3442   6928     1  0.0000000  0.0000000  3
   3437   3436   3442   3443     1  0.0000000  0.6508444  3
   3437   3436   3442   3444     1  0.0000000  0.6508444  3
   3438   3436   3442   6928     1  0.0000000  1.0460000  1
   3438   3436   3442   6928     1  0.0000000  0.0000000  3
   3438   3436   3442   3443     1  0.0000000  0.6508444  3
   3438   3436   3442   3444     1  0.0000000  0.6508444  3
   3442   6928   6919   6920     1  0.0000000  1.6038667  3
   3442   6928   6919   6921     1  0.0000000  1.6038667  3
   3443   3442   6928   6919     1  0.0000000  1.6038667  3
   3444   3442   6928   6919     1  0.0000000  1.6038667  3
   3445   6958   6949   6950     1  0.0000000  1.6038667  3
   3445   6958   6949   6951     1  0.0000000  1.6038667  3
   3446   3445   6958   6949     1  0.0000000  1.6038667  3
   3447   3445   6958   6949     1  0.0000000  1.6038667  3
   3450   3451   3463   3464     1  0.0000000  0.6508444  3
   3450   3451   3463   3465     1  0.0000000  0.6508444  3
   3450   3454   3466   3467     1  0.0000000  0.6508444  3
   3450   3454   3466   3468     1  0.0000000  0.6508444  3
   3450   3457   3460   3461     1  0.0000000  0.6508444  3
   3450   3457   3460   3462     1  0.0000000  0.6508444  3
   3451   3450   3454   3455     1  0.0000000  0.6508444  3
   3451   3450   3454   3456     1  0.0000000  0.6508444  3
   3451   3450   3457   3458     1  0.0000000  0.6508444  3
   3451   3450   3457   3459     1  0.0000000  0.6508444  3
   3451   3463   3475   3476     1  0.0000000  0.6508444  3
   3451   3463   3475   3477     1  0.0000000  0.6508444  3
   3452   3451   3450   3454     1  0.0000000  0.6508444  3
   3452   3451   3450   3457     1  0.0000000  0.6508444  3
   3452   3451   3450   3479     1  0.0000000  0.6508444  3
   3452   3451   3463   3475     1  0.0000000  0.6508444  3
   3452   3451   3463   3464     1  0.0000000  0.6508444  3
   3452   3451   3463   3465     1  0.0000000  0.6508444  3
   3453   3451   3450   3454     1  0.0000000  0.6508444  3
   3453   3451   3450   3457     1  0.0000000  0.6508444  3
   3453   3451   3450   3479     1  0.0000000  0.6508444  3
   3453   3451   3463   3475     1  0.0000000  0.6508444  3
   3453   3451   3463   3464     1  0.0000000  0.6508444  3
   3453   3451   3463   3465     1  0.0000000  0.6508444  3
   3454   3450   3457   3458     1  0.0000000  0.6508444  3
   3454   3450   3457   3459     1  0.0000000  0.6508444  3
   3454   3466   3472   3473     1  0.0000000  0.6508444  3
   3454   3466   3472   3474     1  0.0000000  0.6508444  3
   3455   3454   3450   3457     1  0.0000000  0.6508444  3
   3455   3454   3450   3479     1  0.0000000  0.6508444  3
   3455   3454   3466   3472     1  0.0000000  0.6508444  3
   3455   3454   3466   3467     1  0.0000000  0.6508444  3
   3455   3454   3466   3468     1  0.0000000  0.6508444  3
   3456   3454   3450   3457     1  0.0000000  0.6508444  3
   3456   3454   3450   3479     1  0.0000000  0.6508444  3
   3456   3454   3466   3472     1  0.0000000  0.6508444  3
   3456   3454   3466   3467     1  0.0000000  0.6508444  3
   3456   3454   3466   3468     1  0.0000000  0.6508444  3
   3457   3460   3469   3470     1  0.0000000  0.6508444  3
   3457   3460   3469   3471     1  0.0000000  0.6508444  3
   3458   3457   3450   3479     1  0.0000000  0.6508444  3
   3458   3457   3460   3469     1  0.0000000  0.6508444  3
   3458   3457   3460   3461     1  0.0000000  0.6508444  3
   3458   3457   3460   3462     1  0.0000000  0.6508444  3
   3459   3457   3450   3479     1  0.0000000  0.6508444  3
   3459   3457   3460   3469     1  0.0000000  0.6508444  3
   3459   3457   3460   3461     1  0.0000000  0.6508444  3
   3459   3457   3460   3462     1  0.0000000  0.6508444  3
   3460   3457   3450   3479     1  0.0000000  0.6508444  3
   3461   3460   3469   3478     1  0.0000000  1.0460000  1
   3461   3460   3469   3478     1  0.0000000  0.0000000  3
   3461   3460   3469   3470     1  0.0000000  0.6508444  3
   3461   3460   3469   3471     1  0.0000000  0.6508444  3
   3462   3460   3469   3478     1  0.0000000  1.0460000  1
   3462   3460   3469   3478     1  0.0000000  0.0000000  3
   3462   3460   3469   3470     1  0.0000000  0.6508444  3
   3462   3460   3469   3471     1  0.0000000  0.6508444  3
   3463   3451   3450   3479     1  0.0000000  0.6508444  3
   3464   3463   3475   7018     1  0.0000000  1.0460000  1
   3464   3463   3475   7018     1  0.0000000  0.0000000  3
   3464   3463   3475   3476     1  0.0000000  0.6508444  3
   3464   3463   3475   3477     1  0.0000000  0.6508444  3
   3465   3463   3475   7018     1  0.0000000  1.0460000  1
   3465   3463   3475   7018     1  0.0000000  0.0000000  3
   3465   3463   3475   3476     1  0.0000000  0.6508444  3
   3465   3463   3475   3477     1  0.0000000  0.6508444  3
   3466   3454   3450   3479     1  0.0000000  0.6508444  3
   3467   3466   3472   6988     1  0.0000000  1.0460000  1
   3467   3466   3472   6988     1  0.0000000  0.0000000  3
   3467   3466   3472   3473     1  0.0000000  0.6508444  3
   3467   3466   3472   3474     1  0.0000000  0.6508444  3
   3468   3466   3472   6988     1  0.0000000  1.0460000  1
   3468   3466   3472   6988     1  0.0000000  0.0000000  3
   3468   3466   3472   3473     1  0.0000000  0.6508444  3
   3468   3466   3472   3474     1  0.0000000  0.6508444  3
   3472   6988   6979   6980     1  0.0000000  1.6038667  3
   3472   6988   6979   6981     1  0.0000000  1.6038667  3
   3473   3472   6988   6979     1  0.0000000  1.6038667  3
   3474   3472   6988   6979     1  0.0000000  1.6038667  3
   3475   7018   7009   7010     1  0.0000000  1.6038667  3
   3475   7018   7009   7011     1  0.0000000  1.6038667  3
   3476   3475   7018   7009     1  0.0000000  1.6038667  3
   3477   3475   7018   7009     1  0.0000000  1.6038667  3
   3480   3481   3493   3494     1  0.0000000  0.6508444  3
   3480   3481   3493   3495     1  0.0000000  0.6508444  3
   3480   3484   3496   3497     1  0.0000000  0.6508444  3
   3480   3484   3496   3498     1  0.0000000  0.6508444  3
   3480   3487   3490   3491     1  0.0000000  0.6508444  3
   3480   3487   3490   3492     1  0.0000000  0.6508444  3
   3481   3480   3484   3485     1  0.0000000  0.6508444  3
   3481   3480   3484   3486     1  0.0000000  0.6508444  3
   3481   3480   3487   3488     1  0.0000000  0.6508444  3
   3481   3480   3487   3489     1  0.0000000  0.6508444  3
   3481   3493   3505   3506     1  0.0000000  0.6508444  3
   3481   3493   3505   3507     1  0.0000000  0.6508444  3
   3482   3481   3480   3484     1  0.0000000  0.6508444  3
   3482   3481   3480   3487     1  0.0000000  0.6508444  3
   3482   3481   3480   3509     1  0.0000000  0.6508444  3
   3482   3481   3493   3505     1  0.0000000  0.6508444  3
   3482   3481   3493   3494     1  0.0000000  0.6508444  3
   3482   3481   3493   3495     1  0.0000000  0.6508444  3
   3483   3481   3480   3484     1  0.0000000  0.6508444  3
   3483   3481   3480   3487     1  0.0000000  0.6508444  3
   3483   3481   3480   3509     1  0.0000000  0.6508444  3
   3483   3481   3493   3505     1  0.0000000  0.6508444  3
   3483   3481   3493   3494     1  0.0000000  0.6508444  3
   3483   3481   3493   3495     1  0.0000000  0.6508444  3
   3484   3480   3487   3488     1  0.0000000  0.6508444  3
   3484   3480   3487   3489     1  0.0000000  0.6508444  3
   3484   3496   3502   3503     1  0.0000000  0.6508444  3
   3484   3496   3502   3504     1  0.0000000  0.6508444  3
   3485   3484   3480   3487     1  0.0000000  0.6508444  3
   3485   3484   3480   3509     1  0.0000000  0.6508444  3
   3485   3484   3496   3502     1  0.0000000  0.6508444  3
   3485   3484   3496   3497     1  0.0000000  0.6508444  3
   3485   3484   3496   3498     1  0.0000000  0.6508444  3
   3486   3484   3480   3487     1  0.0000000  0.6508444  3
   3486   3484   3480   3509     1  0.0000000  0.6508444  3
   3486   3484   3496   3502     1  0.0000000  0.6508444  3
   3486   3484   3496   3497     1  0.0000000  0.6508444  3
   3486   3484   3496   3498     1  0.0000000  0.6508444  3
   3487   3490   3499   3500     1  0.0000000  0.6508444  3
   3487   3490   3499   3501     1  0.0000000  0.6508444  3
   3488   3487   3480   3509     1  0.0000000  0.6508444  3
   3488   3487   3490   3499     1  0.0000000  0.6508444  3
   3488   3487   3490   3491     1  0.0000000  0.6508444  3
   3488   3487   3490   3492     1  0.0000000  0.6508444  3
   3489   3487   3480   3509     1  0.0000000  0.6508444  3
   3489   3487   3490   3499     1  0.0000000  0.6508444  3
   3489   3487   3490   3491     1  0.0000000  0.6508444  3
   3489   3487   3490   3492     1  0.0000000  0.6508444  3
   3490   3487   3480   3509     1  0.0000000  0.6508444  3
   3491   3490   3499   3508     1  0.0000000  1.0460000  1
   3491   3490   3499   3508     1  0.0000000  0.0000000  3
   3491   3490   3499   3500     1  0.0000000  0.6508444  3
   3491   3490   3499   3501     1  0.0000000  0.6508444  3
   3492   3490   3499   3508     1  0.0000000  1.0460000  1
   3492   3490   3499   3508     1  0.0000000  0.0000000  3
   3492   3490   3499   3500     1  0.0000000  0.6508444  3
   3492   3490   3499   3501     1  0.0000000  0.6508444  3
   3493   3481   3480   3509     1  0.0000000  0.6508444  3
   3494   3493   3505   7078     1  0.0000000  1.0460000  1
   3494   3493   3505   7078     1  0.0000000  0.0000000  3
   3494   3493   3505   3506     1  0.0000000  0.6508444  3
   3494   3493   3505   3507     1  0.0000000  0.6508444  3
   3495   3493   3505   7078     1  0.0000000  1.0460000  1
   3495   3493   3505   7078     1  0.0000000  0.0000000  3
   3495   3493   3505   3506     1  0.0000000  0.6508444  3
   3495   3493   3505   3507     1  0.0000000  0.6508444  3
   3496   3484   3480   3509     1  0.0000000  0.6508444  3
   3497   3496   3502   7048     1  0.0000000  1.0460000  1
   3497   3496   3502   7048     1  0.0000000  0.0000000  3
   3497   3496   3502   3503     1  0.0000000  0.6508444  3
   3497   3496   3502   3504     1  0.0000000  0.6508444  3
   3498   3496   3502   7048     1  0.0000000  1.0460000  1
   3498   3496   3502   7048     1  0.0000000  0.0000000  3
   3498   3496   3502   3503     1  0.0000000  0.6508444  3
   3498   3496   3502   3504     1  0.0000000  0.6508444  3
   3502   7048   7039   7040     1  0.0000000  1.6038667  3
   3502   7048   7039   7041     1  0.0000000  1.6038667  3
   3503   3502   7048   7039     1  0.0000000  1.6038667  3
   3504   3502   7048   7039     1  0.0000000  1.6038667  3
   3505   7078   7069   7070     1  0.0000000  1.6038667  3
   3505   7078   7069   7071     1  0.0000000  1.6038667  3
   3506   3505   7078   7069     1  0.0000000  1.6038667  3
   3507   3505   7078   7069     1  0.0000000  1.6038667  3
   3510   3511   3523   3524     1  0.0000000  0.6508444  3
   3510   3511   3523   3525     1  0.0000000  0.6508444  3
   3510   3514   3526   3527     1  0.0000000  0.6508444  3
   3510   3514   3526   3528     1  0.0000000  0.6508444  3
   3510   3517   3520   3521     1  0.0000000  0.6508444  3
   3510   3517   3520   3522     1  0.0000000  0.6508444  3
   3511   3510   3514   3515     1  0.0000000  0.6508444  3
   3511   3510   3514   3516     1  0.0000000  0.6508444  3
   3511   3510   3517   3518     1  0.0000000  0.6508444  3
   3511   3510   3517   3519     1  0.0000000  0.6508444  3
   3511   3523   3535   3536     1  0.0000000  0.6508444  3
   3511   3523   3535   3537     1  0.0000000  0.6508444  3
   3512   3511   3510   3514     1  0.0000000  0.6508444  3
   3512   3511   3510   3517     1  0.0000000  0.6508444  3
   3512   3511   3510   3539     1  0.0000000  0.6508444  3
   3512   3511   3523   3535     1  0.0000000  0.6508444  3
   3512   3511   3523   3524     1  0.0000000  0.6508444  3
   3512   3511   3523   3525     1  0.0000000  0.6508444  3
   3513   3511   3510   3514     1  0.0000000  0.6508444  3
   3513   3511   3510   3517     1  0.0000000  0.6508444  3
   3513   3511   3510   3539     1  0.0000000  0.6508444  3
   3513   3511   3523   3535     1  0.0000000  0.6508444  3
   3513   3511   3523   3524     1  0.0000000  0.6508444  3
   3513   3511   3523   3525     1  0.0000000  0.6508444  3
   3514   3510   3517   3518     1  0.0000000  0.6508444  3
   3514   3510   3517   3519     1  0.0000000  0.6508444  3
   3514   3526   3532   3533     1  0.0000000  0.6508444  3
   3514   3526   3532   3534     1  0.0000000  0.6508444  3
   3515   3514   3510   3517     1  0.0000000  0.6508444  3
   3515   3514   3510   3539     1  0.0000000  0.6508444  3
   3515   3514   3526   3532     1  0.0000000  0.6508444  3
   3515   3514   3526   3527     1  0.0000000  0.6508444  3
   3515   3514   3526   3528     1  0.0000000  0.6508444  3
   3516   3514   3510   3517     1  0.0000000  0.6508444  3
   3516   3514   3510   3539     1  0.0000000  0.6508444  3
   3516   3514   3526   3532     1  0.0000000  0.6508444  3
   3516   3514   3526   3527     1  0.0000000  0.6508444  3
   3516   3514   3526   3528     1  0.0000000  0.6508444  3
   3517   3520   3529   3530     1  0.0000000  0.6508444  3
   3517   3520   3529   3531     1  0.0000000  0.6508444  3
   3518   3517   3510   3539     1  0.0000000  0.6508444  3
   3518   3517   3520   3529     1  0.0000000  0.6508444  3
   3518   3517   3520   3521     1  0.0000000  0.6508444  3
   3518   3517   3520   3522     1  0.0000000  0.6508444  3
   3519   3517   3510   3539     1  0.0000000  0.6508444  3
   3519   3517   3520   3529     1  0.0000000  0.6508444  3
   3519   3517   3520   3521     1  0.0000000  0.6508444  3
   3519   3517   3520   3522     1  0.0000000  0.6508444  3
   3520   3517   3510   3539     1  0.0000000  0.6508444  3
   3521   3520   3529   3538     1  0.0000000  1.0460000  1
   3521   3520   3529   3538     1  0.0000000  0.0000000  3
   3521   3520   3529   3530     1  0.0000000  0.6508444  3
   3521   3520   3529   3531     1  0.0000000  0.6508444  3
   3522   3520   3529   3538     1  0.0000000  1.0460000  1
   3522   3520   3529   3538     1  0.0000000  0.0000000  3
   3522   3520   3529   3530     1  0.0000000  0.6508444  3
   3522   3520   3529   3531     1  0.0000000  0.6508444  3
   3523   3511   3510   3539     1  0.0000000  0.6508444  3
   3524   3523   3535   7138     1  0.0000000  1.0460000  1
   3524   3523   3535   7138     1  0.0000000  0.0000000  3
   3524   3523   3535   3536     1  0.0000000  0.6508444  3
   3524   3523   3535   3537     1  0.0000000  0.6508444  3
   3525   3523   3535   7138     1  0.0000000  1.0460000  1
   3525   3523   3535   7138     1  0.0000000  0.0000000  3
   3525   3523   3535   3536     1  0.0000000  0.6508444  3
   3525   3523   3535   3537     1  0.0000000  0.6508444  3
   3526   3514   3510   3539     1  0.0000000  0.6508444  3
   3527   3526   3532   7108     1  0.0000000  1.0460000  1
   3527   3526   3532   7108     1  0.0000000  0.0000000  3
   3527   3526   3532   3533     1  0.0000000  0.6508444  3
   3527   3526   3532   3534     1  0.0000000  0.6508444  3
   3528   3526   3532   7108     1  0.0000000  1.0460000  1
   3528   3526   3532   7108     1  0.0000000  0.0000000  3
   3528   3526   3532   3533     1  0.0000000  0.6508444  3
   3528   3526   3532   3534     1  0.0000000  0.6508444  3
   3532   7108   7099   7100     1  0.0000000  1.6038667  3
   3532   7108   7099   7101     1  0.0000000  1.6038667  3
   3533   3532   7108   7099     1  0.0000000  1.6038667  3
   3534   3532   7108   7099     1  0.0000000  1.6038667  3
   3535   7138   7129   7130     1  0.0000000  1.6038667  3
   3535   7138   7129   7131     1  0.0000000  1.6038667  3
   3536   3535   7138   7129     1  0.0000000  1.6038667  3
   3537   3535   7138   7129     1  0.0000000  1.6038667  3
   3540   3541   3553   3554     1  0.0000000  0.6508444  3
   3540   3541   3553   3555     1  0.0000000  0.6508444  3
   3540   3544   3556   3557     1  0.0000000  0.6508444  3
   3540   3544   3556   3558     1  0.0000000  0.6508444  3
   3540   3547   3550   3551     1  0.0000000  0.6508444  3
   3540   3547   3550   3552     1  0.0000000  0.6508444  3
   3541   3540   3544   3545     1  0.0000000  0.6508444  3
   3541   3540   3544   3546     1  0.0000000  0.6508444  3
   3541   3540   3547   3548     1  0.0000000  0.6508444  3
   3541   3540   3547   3549     1  0.0000000  0.6508444  3
   3541   3553   3565   3566     1  0.0000000  0.6508444  3
   3541   3553   3565   3567     1  0.0000000  0.6508444  3
   3542   3541   3540   3544     1  0.0000000  0.6508444  3
   3542   3541   3540   3547     1  0.0000000  0.6508444  3
   3542   3541   3540   3569     1  0.0000000  0.6508444  3
   3542   3541   3553   3565     1  0.0000000  0.6508444  3
   3542   3541   3553   3554     1  0.0000000  0.6508444  3
   3542   3541   3553   3555     1  0.0000000  0.6508444  3
   3543   3541   3540   3544     1  0.0000000  0.6508444  3
   3543   3541   3540   3547     1  0.0000000  0.6508444  3
   3543   3541   3540   3569     1  0.0000000  0.6508444  3
   3543   3541   3553   3565     1  0.0000000  0.6508444  3
   3543   3541   3553   3554     1  0.0000000  0.6508444  3
   3543   3541   3553   3555     1  0.0000000  0.6508444  3
   3544   3540   3547   3548     1  0.0000000  0.6508444  3
   3544   3540   3547   3549     1  0.0000000  0.6508444  3
   3544   3556   3562   3563     1  0.0000000  0.6508444  3
   3544   3556   3562   3564     1  0.0000000  0.6508444  3
   3545   3544   3540   3547     1  0.0000000  0.6508444  3
   3545   3544   3540   3569     1  0.0000000  0.6508444  3
   3545   3544   3556   3562     1  0.0000000  0.6508444  3
   3545   3544   3556   3557     1  0.0000000  0.6508444  3
   3545   3544   3556   3558     1  0.0000000  0.6508444  3
   3546   3544   3540   3547     1  0.0000000  0.6508444  3
   3546   3544   3540   3569     1  0.0000000  0.6508444  3
   3546   3544   3556   3562     1  0.0000000  0.6508444  3
   3546   3544   3556   3557     1  0.0000000  0.6508444  3
   3546   3544   3556   3558     1  0.0000000  0.6508444  3
   3547   3550   3559   3560     1  0.0000000  0.6508444  3
   3547   3550   3559   3561     1  0.0000000  0.6508444  3
   3548   3547   3540   3569     1  0.0000000  0.6508444  3
   3548   3547   3550   3559     1  0.0000000  0.6508444  3
   3548   3547   3550   3551     1  0.0000000  0.6508444  3
   3548   3547   3550   3552     1  0.0000000  0.6508444  3
   3549   3547   3540   3569     1  0.0000000  0.6508444  3
   3549   3547   3550   3559     1  0.0000000  0.6508444  3
   3549   3547   3550   3551     1  0.0000000  0.6508444  3
   3549   3547   3550   3552     1  0.0000000  0.6508444  3
   3550   3547   3540   3569     1  0.0000000  0.6508444  3
   3551   3550   3559   3568     1  0.0000000  1.0460000  1
   3551   3550   3559   3568     1  0.0000000  0.0000000  3
   3551   3550   3559   3560     1  0.0000000  0.6508444  3
   3551   3550   3559   3561     1  0.0000000  0.6508444  3
   3552   3550   3559   3568     1  0.0000000  1.0460000  1
   3552   3550   3559   3568     1  0.0000000  0.0000000  3
   3552   3550   3559   3560     1  0.0000000  0.6508444  3
   3552   3550   3559   3561     1  0.0000000  0.6508444  3
   3553   3541   3540   3569     1  0.0000000  0.6508444  3
   3554   3553   3565   7198     1  0.0000000  1.0460000  1
   3554   3553   3565   7198     1  0.0000000  0.0000000  3
   3554   3553   3565   3566     1  0.0000000  0.6508444  3
   3554   3553   3565   3567     1  0.0000000  0.6508444  3
   3555   3553   3565   7198     1  0.0000000  1.0460000  1
   3555   3553   3565   7198     1  0.0000000  0.0000000  3
   3555   3553   3565   3566     1  0.0000000  0.6508444  3
   3555   3553   3565   3567     1  0.0000000  0.6508444  3
   3556   3544   3540   3569     1  0.0000000  0.6508444  3
   3557   3556   3562   7168     1  0.0000000  1.0460000  1
   3557   3556   3562   7168     1  0.0000000  0.0000000  3
   3557   3556   3562   3563     1  0.0000000  0.6508444  3
   3557   3556   3562   3564     1  0.0000000  0.6508444  3
   3558   3556   3562   7168     1  0.0000000  1.0460000  1
   3558   3556   3562   7168     1  0.0000000  0.0000000  3
   3558   3556   3562   3563     1  0.0000000  0.6508444  3
   3558   3556   3562   3564     1  0.0000000  0.6508444  3
   3562   7168   7159   7160     1  0.0000000  1.6038667  3
   3562   7168   7159   7161     1  0.0000000  1.6038667  3
   3563   3562   7168   7159     1  0.0000000  1.6038667  3
   3564   3562   7168   7159     1  0.0000000  1.6038667  3
   3565   7198   7189   7190     1  0.0000000  1.6038667  3
   3565   7198   7189   7191     1  0.0000000  1.6038667  3
   3566   3565   7198   7189     1  0.0000000  1.6038667  3
   3567   3565   7198   7189     1  0.0000000  1.6038667  3
   3570   3571   3583   3584     1  0.0000000  0.6508444  3
   3570   3571   3583   3585     1  0.0000000  0.6508444  3
   3570   3574   3586   3587     1  0.0000000  0.6508444  3
   3570   3574   3586   3588     1  0.0000000  0.6508444  3
   3570   3577   3580   3581     1  0.0000000  0.6508444  3
   3570   3577   3580   3582     1  0.0000000  0.6508444  3
   3571   3570   3574   3575     1  0.0000000  0.6508444  3
   3571   3570   3574   3576     1  0.0000000  0.6508444  3
   3571   3570   3577   3578     1  0.0000000  0.6508444  3
   3571   3570   3577   3579     1  0.0000000  0.6508444  3
   3571   3583   3595   3596     1  0.0000000  0.6508444  3
   3571   3583   3595   3597     1  0.0000000  0.6508444  3
   3572   3571   3570   3574     1  0.0000000  0.6508444  3
   3572   3571   3570   3577     1  0.0000000  0.6508444  3
   3572   3571   3570   3599     1  0.0000000  0.6508444  3
   3572   3571   3583   3595     1  0.0000000  0.6508444  3
   3572   3571   3583   3584     1  0.0000000  0.6508444  3
   3572   3571   3583   3585     1  0.0000000  0.6508444  3
   3573   3571   3570   3574     1  0.0000000  0.6508444  3
   3573   3571   3570   3577     1  0.0000000  0.6508444  3
   3573   3571   3570   3599     1  0.0000000  0.6508444  3
   3573   3571   3583   3595     1  0.0000000  0.6508444  3
   3573   3571   3583   3584     1  0.0000000  0.6508444  3
   3573   3571   3583   3585     1  0.0000000  0.6508444  3
   3574   3570   3577   3578     1  0.0000000  0.6508444  3
   3574   3570   3577   3579     1  0.0000000  0.6508444  3
   3574   3586   3592   3593     1  0.0000000  0.6508444  3
   3574   3586   3592   3594     1  0.0000000  0.6508444  3
   3575   3574   3570   3577     1  0.0000000  0.6508444  3
   3575   3574   3570   3599     1  0.0000000  0.6508444  3
   3575   3574   3586   3592     1  0.0000000  0.6508444  3
   3575   3574   3586   3587     1  0.0000000  0.6508444  3
   3575   3574   3586   3588     1  0.0000000  0.6508444  3
   3576   3574   3570   3577     1  0.0000000  0.6508444  3
   3576   3574   3570   3599     1  0.0000000  0.6508444  3
   3576   3574   3586   3592     1  0.0000000  0.6508444  3
   3576   3574   3586   3587     1  0.0000000  0.6508444  3
   3576   3574   3586   3588     1  0.0000000  0.6508444  3
   3577   3580   3589   3590     1  0.0000000  0.6508444  3
   3577   3580   3589   3591     1  0.0000000  0.6508444  3
   3578   3577   3570   3599     1  0.0000000  0.6508444  3
   3578   3577   3580   3589     1  0.0000000  0.6508444  3
   3578   3577   3580   3581     1  0.0000000  0.6508444  3
   3578   3577   3580   3582     1  0.0000000  0.6508444  3
   3579   3577   3570   3599     1  0.0000000  0.6508444  3
   3579   3577   3580   3589     1  0.0000000  0.6508444  3
   3579   3577   3580   3581     1  0.0000000  0.6508444  3
   3579   3577   3580   3582     1  0.0000000  0.6508444  3
   3580   3577   3570   3599     1  0.0000000  0.6508444  3
   3581   3580   3589   3598     1  0.0000000  1.0460000  1
   3581   3580   3589   3598     1  0.0000000  0.0000000  3
   3581   3580   3589   3590     1  0.0000000  0.6508444  3
   3581   3580   3589   3591     1  0.0000000  0.6508444  3
   3582   3580   3589   3598     1  0.0000000  1.0460000  1
   3582   3580   3589   3598     1  0.0000000  0.0000000  3
   3582   3580   3589   3590     1  0.0000000  0.6508444  3
   3582   3580   3589   3591     1  0.0000000  0.6508444  3
   3583   3571   3570   3599     1  0.0000000  0.6508444  3
   3584   3583   3595   7258     1  0.0000000  1.0460000  1
   3584   3583   3595   7258     1  0.0000000  0.0000000  3
   3584   3583   3595   3596     1  0.0000000  0.6508444  3
   3584   3583   3595   3597     1  0.0000000  0.6508444  3
   3585   3583   3595   7258     1  0.0000000  1.0460000  1
   3585   3583   3595   7258     1  0.0000000  0.0000000  3
   3585   3583   3595   3596     1  0.0000000  0.6508444  3
   3585   3583   3595   3597     1  0.0000000  0.6508444  3
   3586   3574   3570   3599     1  0.0000000  0.6508444  3
   3587   3586   3592   7228     1  0.0000000  1.0460000  1
   3587   3586   3592   7228     1  0.0000000  0.0000000  3
   3587   3586   3592   3593     1  0.0000000  0.6508444  3
   3587   3586   3592   3594     1  0.0000000  0.6508444  3
   3588   3586   3592   7228     1  0.0000000  1.0460000  1
   3588   3586   3592   7228     1  0.0000000  0.0000000  3
   3588   3586   3592   3593     1  0.0000000  0.6508444  3
   3588   3586   3592   3594     1  0.0000000  0.6508444  3
   3592   7228   7219   7220     1  0.0000000  1.6038667  3
   3592   7228   7219   7221     1  0.0000000  1.6038667  3
   3593   3592   7228   7219     1  0.0000000  1.6038667  3
   3594   3592   7228   7219     1  0.0000000  1.6038667  3
   3595   7258   7249   7250     1  0.0000000  1.6038667  3
   3595   7258   7249   7251     1  0.0000000  1.6038667  3
   3596   3595   7258   7249     1  0.0000000  1.6038667  3
   3597   3595   7258   7249     1  0.0000000  1.6038667  3
   3600   3601   3613   3614     1  0.0000000  0.6508444  3
   3600   3601   3613   3615     1  0.0000000  0.6508444  3
   3600   3604   3616   3617     1  0.0000000  0.6508444  3
   3600   3604   3616   3618     1  0.0000000  0.6508444  3
   3600   3607   3610   3611     1  0.0000000  0.6508444  3
   3600   3607   3610   3612     1  0.0000000  0.6508444  3
   3601   3600   3604   3605     1  0.0000000  0.6508444  3
   3601   3600   3604   3606     1  0.0000000  0.6508444  3
   3601   3600   3607   3608     1  0.0000000  0.6508444  3
   3601   3600   3607   3609     1  0.0000000  0.6508444  3
   3601   3613   3625   3626     1  0.0000000  0.6508444  3
   3601   3613   3625   3627     1  0.0000000  0.6508444  3
   3602   3601   3600   3604     1  0.0000000  0.6508444  3
   3602   3601   3600   3607     1  0.0000000  0.6508444  3
   3602   3601   3600   3629     1  0.0000000  0.6508444  3
   3602   3601   3613   3625     1  0.0000000  0.6508444  3
   3602   3601   3613   3614     1  0.0000000  0.6508444  3
   3602   3601   3613   3615     1  0.0000000  0.6508444  3
   3603   3601   3600   3604     1  0.0000000  0.6508444  3
   3603   3601   3600   3607     1  0.0000000  0.6508444  3
   3603   3601   3600   3629     1  0.0000000  0.6508444  3
   3603   3601   3613   3625     1  0.0000000  0.6508444  3
   3603   3601   3613   3614     1  0.0000000  0.6508444  3
   3603   3601   3613   3615     1  0.0000000  0.6508444  3
   3604   3600   3607   3608     1  0.0000000  0.6508444  3
   3604   3600   3607   3609     1  0.0000000  0.6508444  3
   3604   3616   3622   3623     1  0.0000000  0.6508444  3
   3604   3616   3622   3624     1  0.0000000  0.6508444  3
   3605   3604   3600   3607     1  0.0000000  0.6508444  3
   3605   3604   3600   3629     1  0.0000000  0.6508444  3
   3605   3604   3616   3622     1  0.0000000  0.6508444  3
   3605   3604   3616   3617     1  0.0000000  0.6508444  3
   3605   3604   3616   3618     1  0.0000000  0.6508444  3
   3606   3604   3600   3607     1  0.0000000  0.6508444  3
   3606   3604   3600   3629     1  0.0000000  0.6508444  3
   3606   3604   3616   3622     1  0.0000000  0.6508444  3
   3606   3604   3616   3617     1  0.0000000  0.6508444  3
   3606   3604   3616   3618     1  0.0000000  0.6508444  3
   3607   3610   3619   3620     1  0.0000000  0.6508444  3
   3607   3610   3619   3621     1  0.0000000  0.6508444  3
   3608   3607   3600   3629     1  0.0000000  0.6508444  3
   3608   3607   3610   3619     1  0.0000000  0.6508444  3
   3608   3607   3610   3611     1  0.0000000  0.6508444  3
   3608   3607   3610   3612     1  0.0000000  0.6508444  3
   3609   3607   3600   3629     1  0.0000000  0.6508444  3
   3609   3607   3610   3619     1  0.0000000  0.6508444  3
   3609   3607   3610   3611     1  0.0000000  0.6508444  3
   3609   3607   3610   3612     1  0.0000000  0.6508444  3
   3610   3607   3600   3629     1  0.0000000  0.6508444  3
   3611   3610   3619   3628     1  0.0000000  1.0460000  1
   3611   3610   3619   3628     1  0.0000000  0.0000000  3
   3611   3610   3619   3620     1  0.0000000  0.6508444  3
   3611   3610   3619   3621     1  0.0000000  0.6508444  3
   3612   3610   3619   3628     1  0.0000000  1.0460000  1
   3612   3610   3619   3628     1  0.0000000  0.0000000  3
   3612   3610   3619   3620     1  0.0000000  0.6508444  3
   3612   3610   3619   3621     1  0.0000000  0.6508444  3
   3613   3601   3600   3629     1  0.0000000  0.6508444  3
   3614   3613   3625   7318     1  0.0000000  1.0460000  1
   3614   3613   3625   7318     1  0.0000000  0.0000000  3
   3614   3613   3625   3626     1  0.0000000  0.6508444  3
   3614   3613   3625   3627     1  0.0000000  0.6508444  3
   3615   3613   3625   7318     1  0.0000000  1.0460000  1
   3615   3613   3625   7318     1  0.0000000  0.0000000  3
   3615   3613   3625   3626     1  0.0000000  0.6508444  3
   3615   3613   3625   3627     1  0.0000000  0.6508444  3
   3616   3604   3600   3629     1  0.0000000  0.6508444  3
   3617   3616   3622   7288     1  0.0000000  1.0460000  1
   3617   3616   3622   7288     1  0.0000000  0.0000000  3
   3617   3616   3622   3623     1  0.0000000  0.6508444  3
   3617   3616   3622   3624     1  0.0000000  0.6508444  3
   3618   3616   3622   7288     1  0.0000000  1.0460000  1
   3618   3616   3622   7288     1  0.0000000  0.0000000  3
   3618   3616   3622   3623     1  0.0000000  0.6508444  3
   3618   3616   3622   3624     1  0.0000000  0.6508444  3
   3622   7288   7279   7280     1  0.0000000  1.6038667  3
   3622   7288   7279   7281     1  0.0000000  1.6038667  3
   3623   3622   7288   7279     1  0.0000000  1.6038667  3
   3624   3622   7288   7279     1  0.0000000  1.6038667  3
   3625   7318   7309   7310     1  0.0000000  1.6038667  3
   3625   7318   7309   7311     1  0.0000000  1.6038667  3
   3626   3625   7318   7309     1  0.0000000  1.6038667  3
   3627   3625   7318   7309     1  0.0000000  1.6038667  3
   3630   3631   3643   3644     1  0.0000000  0.6508444  3
   3630   3631   3643   3645     1  0.0000000  0.6508444  3
   3630   3634   3646   3647     1  0.0000000  0.6508444  3
   3630   3634   3646   3648     1  0.0000000  0.6508444  3
   3630   3637   3640   3641     1  0.0000000  0.6508444  3
   3630   3637   3640   3642     1  0.0000000  0.6508444  3
   3631   3630   3634   3635     1  0.0000000  0.6508444  3
   3631   3630   3634   3636     1  0.0000000  0.6508444  3
   3631   3630   3637   3638     1  0.0000000  0.6508444  3
   3631   3630   3637   3639     1  0.0000000  0.6508444  3
   3631   3643   3655   3656     1  0.0000000  0.6508444  3
   3631   3643   3655   3657     1  0.0000000  0.6508444  3
   3632   3631   3630   3634     1  0.0000000  0.6508444  3
   3632   3631   3630   3637     1  0.0000000  0.6508444  3
   3632   3631   3630   3659     1  0.0000000  0.6508444  3
   3632   3631   3643   3655     1  0.0000000  0.6508444  3
   3632   3631   3643   3644     1  0.0000000  0.6508444  3
   3632   3631   3643   3645     1  0.0000000  0.6508444  3
   3633   3631   3630   3634     1  0.0000000  0.6508444  3
   3633   3631   3630   3637     1  0.0000000  0.6508444  3
   3633   3631   3630   3659     1  0.0000000  0.6508444  3
   3633   3631   3643   3655     1  0.0000000  0.6508444  3
   3633   3631   3643   3644     1  0.0000000  0.6508444  3
   3633   3631   3643   3645     1  0.0000000  0.6508444  3
   3634   3630   3637   3638     1  0.0000000  0.6508444  3
   3634   3630   3637   3639     1  0.0000000  0.6508444  3
   3634   3646   3652   3653     1  0.0000000  0.6508444  3
   3634   3646   3652   3654     1  0.0000000  0.6508444  3
   3635   3634   3630   3637     1  0.0000000  0.6508444  3
   3635   3634   3630   3659     1  0.0000000  0.6508444  3
   3635   3634   3646   3652     1  0.0000000  0.6508444  3
   3635   3634   3646   3647     1  0.0000000  0.6508444  3
   3635   3634   3646   3648     1  0.0000000  0.6508444  3
   3636   3634   3630   3637     1  0.0000000  0.6508444  3
   3636   3634   3630   3659     1  0.0000000  0.6508444  3
   3636   3634   3646   3652     1  0.0000000  0.6508444  3
   3636   3634   3646   3647     1  0.0000000  0.6508444  3
   3636   3634   3646   3648     1  0.0000000  0.6508444  3
   3637   3640   3649   3650     1  0.0000000  0.6508444  3
   3637   3640   3649   3651     1  0.0000000  0.6508444  3
   3638   3637   3630   3659     1  0.0000000  0.6508444  3
   3638   3637   3640   3649     1  0.0000000  0.6508444  3
   3638   3637   3640   3641     1  0.0000000  0.6508444  3
   3638   3637   3640   3642     1  0.0000000  0.6508444  3
   3639   3637   3630   3659     1  0.0000000  0.6508444  3
   3639   3637   3640   3649     1  0.0000000  0.6508444  3
   3639   3637   3640   3641     1  0.0000000  0.6508444  3
   3639   3637   3640   3642     1  0.0000000  0.6508444  3
   3640   3637   3630   3659     1  0.0000000  0.6508444  3
   3641   3640   3649   3658     1  0.0000000  1.0460000  1
   3641   3640   3649   3658     1  0.0000000  0.0000000  3
   3641   3640   3649   3650     1  0.0000000  0.6508444  3
   3641   3640   3649   3651     1  0.0000000  0.6508444  3
   3642   3640   3649   3658     1  0.0000000  1.0460000  1
   3642   3640   3649   3658     1  0.0000000  0.0000000  3
   3642   3640   3649   3650     1  0.0000000  0.6508444  3
   3642   3640   3649   3651     1  0.0000000  0.6508444  3
   3643   3631   3630   3659     1  0.0000000  0.6508444  3
   3644   3643   3655   7378     1  0.0000000  1.0460000  1
   3644   3643   3655   7378     1  0.0000000  0.0000000  3
   3644   3643   3655   3656     1  0.0000000  0.6508444  3
   3644   3643   3655   3657     1  0.0000000  0.6508444  3
   3645   3643   3655   7378     1  0.0000000  1.0460000  1
   3645   3643   3655   7378     1  0.0000000  0.0000000  3
   3645   3643   3655   3656     1  0.0000000  0.6508444  3
   3645   3643   3655   3657     1  0.0000000  0.6508444  3
   3646   3634   3630   3659     1  0.0000000  0.6508444  3
   3647   3646   3652   7348     1  0.0000000  1.0460000  1
   3647   3646   3652   7348     1  0.0000000  0.0000000  3
   3647   3646   3652   3653     1  0.0000000  0.6508444  3
   3647   3646   3652   3654     1  0.0000000  0.6508444  3
   3648   3646   3652   7348     1  0.0000000  1.0460000  1
   3648   3646   3652   7348     1  0.0000000  0.0000000  3
   3648   3646   3652   3653     1  0.0000000  0.6508444  3
   3648   3646   3652   3654     1  0.0000000  0.6508444  3
   3652   7348   7339   7340     1  0.0000000  1.6038667  3
   3652   7348   7339   7341     1  0.0000000  1.6038667  3
   3653   3652   7348   7339     1  0.0000000  1.6038667  3
   3654   3652   7348   7339     1  0.0000000  1.6038667  3
   3655   7378   7369   7370     1  0.0000000  1.6038667  3
   3655   7378   7369   7371     1  0.0000000  1.6038667  3
   3656   3655   7378   7369     1  0.0000000  1.6038667  3
   3657   3655   7378   7369     1  0.0000000  1.6038667  3
   3660   3661   3673   3674     1  0.0000000  0.6508444  3
   3660   3661   3673   3675     1  0.0000000  0.6508444  3
   3660   3664   3676   3677     1  0.0000000  0.6508444  3
   3660   3664   3676   3678     1  0.0000000  0.6508444  3
   3660   3667   3670   3671     1  0.0000000  0.6508444  3
   3660   3667   3670   3672     1  0.0000000  0.6508444  3
   3661   3660   3664   3665     1  0.0000000  0.6508444  3
   3661   3660   3664   3666     1  0.0000000  0.6508444  3
   3661   3660   3667   3668     1  0.0000000  0.6508444  3
   3661   3660   3667   3669     1  0.0000000  0.6508444  3
   3661   3673   3685   3686     1  0.0000000  0.6508444  3
   3661   3673   3685   3687     1  0.0000000  0.6508444  3
   3662   3661   3660   3664     1  0.0000000  0.6508444  3
   3662   3661   3660   3667     1  0.0000000  0.6508444  3
   3662   3661   3660   3689     1  0.0000000  0.6508444  3
   3662   3661   3673   3685     1  0.0000000  0.6508444  3
   3662   3661   3673   3674     1  0.0000000  0.6508444  3
   3662   3661   3673   3675     1  0.0000000  0.6508444  3
   3663   3661   3660   3664     1  0.0000000  0.6508444  3
   3663   3661   3660   3667     1  0.0000000  0.6508444  3
   3663   3661   3660   3689     1  0.0000000  0.6508444  3
   3663   3661   3673   3685     1  0.0000000  0.6508444  3
   3663   3661   3673   3674     1  0.0000000  0.6508444  3
   3663   3661   3673   3675     1  0.0000000  0.6508444  3
   3664   3660   3667   3668     1  0.0000000  0.6508444  3
   3664   3660   3667   3669     1  0.0000000  0.6508444  3
   3664   3676   3682   3683     1  0.0000000  0.6508444  3
   3664   3676   3682   3684     1  0.0000000  0.6508444  3
   3665   3664   3660   3667     1  0.0000000  0.6508444  3
   3665   3664   3660   3689     1  0.0000000  0.6508444  3
   3665   3664   3676   3682     1  0.0000000  0.6508444  3
   3665   3664   3676   3677     1  0.0000000  0.6508444  3
   3665   3664   3676   3678     1  0.0000000  0.6508444  3
   3666   3664   3660   3667     1  0.0000000  0.6508444  3
   3666   3664   3660   3689     1  0.0000000  0.6508444  3
   3666   3664   3676   3682     1  0.0000000  0.6508444  3
   3666   3664   3676   3677     1  0.0000000  0.6508444  3
   3666   3664   3676   3678     1  0.0000000  0.6508444  3
   3667   3670   3679   3680     1  0.0000000  0.6508444  3
   3667   3670   3679   3681     1  0.0000000  0.6508444  3
   3668   3667   3660   3689     1  0.0000000  0.6508444  3
   3668   3667   3670   3679     1  0.0000000  0.6508444  3
   3668   3667   3670   3671     1  0.0000000  0.6508444  3
   3668   3667   3670   3672     1  0.0000000  0.6508444  3
   3669   3667   3660   3689     1  0.0000000  0.6508444  3
   3669   3667   3670   3679     1  0.0000000  0.6508444  3
   3669   3667   3670   3671     1  0.0000000  0.6508444  3
   3669   3667   3670   3672     1  0.0000000  0.6508444  3
   3670   3667   3660   3689     1  0.0000000  0.6508444  3
   3671   3670   3679   3688     1  0.0000000  1.0460000  1
   3671   3670   3679   3688     1  0.0000000  0.0000000  3
   3671   3670   3679   3680     1  0.0000000  0.6508444  3
   3671   3670   3679   3681     1  0.0000000  0.6508444  3
   3672   3670   3679   3688     1  0.0000000  1.0460000  1
   3672   3670   3679   3688     1  0.0000000  0.0000000  3
   3672   3670   3679   3680     1  0.0000000  0.6508444  3
   3672   3670   3679   3681     1  0.0000000  0.6508444  3
   3673   3661   3660   3689     1  0.0000000  0.6508444  3
   3674   3673   3685   7438     1  0.0000000  1.0460000  1
   3674   3673   3685   7438     1  0.0000000  0.0000000  3
   3674   3673   3685   3686     1  0.0000000  0.6508444  3
   3674   3673   3685   3687     1  0.0000000  0.6508444  3
   3675   3673   3685   7438     1  0.0000000  1.0460000  1
   3675   3673   3685   7438     1  0.0000000  0.0000000  3
   3675   3673   3685   3686     1  0.0000000  0.6508444  3
   3675   3673   3685   3687     1  0.0000000  0.6508444  3
   3676   3664   3660   3689     1  0.0000000  0.6508444  3
   3677   3676   3682   7408     1  0.0000000  1.0460000  1
   3677   3676   3682   7408     1  0.0000000  0.0000000  3
   3677   3676   3682   3683     1  0.0000000  0.6508444  3
   3677   3676   3682   3684     1  0.0000000  0.6508444  3
   3678   3676   3682   7408     1  0.0000000  1.0460000  1
   3678   3676   3682   7408     1  0.0000000  0.0000000  3
   3678   3676   3682   3683     1  0.0000000  0.6508444  3
   3678   3676   3682   3684     1  0.0000000  0.6508444  3
   3682   7408   7399   7400     1  0.0000000  1.6038667  3
   3682   7408   7399   7401     1  0.0000000  1.6038667  3
   3683   3682   7408   7399     1  0.0000000  1.6038667  3
   3684   3682   7408   7399     1  0.0000000  1.6038667  3
   3685   7438   7429   7430     1  0.0000000  1.6038667  3
   3685   7438   7429   7431     1  0.0000000  1.6038667  3
   3686   3685   7438   7429     1  0.0000000  1.6038667  3
   3687   3685   7438   7429     1  0.0000000  1.6038667  3
   3690   3691   3703   3704     1  0.0000000  0.6508444  3
   3690   3691   3703   3705     1  0.0000000  0.6508444  3
   3690   3694   3706   3707     1  0.0000000  0.6508444  3
   3690   3694   3706   3708     1  0.0000000  0.6508444  3
   3690   3697   3700   3701     1  0.0000000  0.6508444  3
   3690   3697   3700   3702     1  0.0000000  0.6508444  3
   3691   3690   3694   3695     1  0.0000000  0.6508444  3
   3691   3690   3694   3696     1  0.0000000  0.6508444  3
   3691   3690   3697   3698     1  0.0000000  0.6508444  3
   3691   3690   3697   3699     1  0.0000000  0.6508444  3
   3691   3703   3715   3716     1  0.0000000  0.6508444  3
   3691   3703   3715   3717     1  0.0000000  0.6508444  3
   3692   3691   3690   3694     1  0.0000000  0.6508444  3
   3692   3691   3690   3697     1  0.0000000  0.6508444  3
   3692   3691   3690   3719     1  0.0000000  0.6508444  3
   3692   3691   3703   3715     1  0.0000000  0.6508444  3
   3692   3691   3703   3704     1  0.0000000  0.6508444  3
   3692   3691   3703   3705     1  0.0000000  0.6508444  3
   3693   3691   3690   3694     1  0.0000000  0.6508444  3
   3693   3691   3690   3697     1  0.0000000  0.6508444  3
   3693   3691   3690   3719     1  0.0000000  0.6508444  3
   3693   3691   3703   3715     1  0.0000000  0.6508444  3
   3693   3691   3703   3704     1  0.0000000  0.6508444  3
   3693   3691   3703   3705     1  0.0000000  0.6508444  3
   3694   3690   3697   3698     1  0.0000000  0.6508444  3
   3694   3690   3697   3699     1  0.0000000  0.6508444  3
   3694   3706   3712   3713     1  0.0000000  0.6508444  3
   3694   3706   3712   3714     1  0.0000000  0.6508444  3
   3695   3694   3690   3697     1  0.0000000  0.6508444  3
   3695   3694   3690   3719     1  0.0000000  0.6508444  3
   3695   3694   3706   3712     1  0.0000000  0.6508444  3
   3695   3694   3706   3707     1  0.0000000  0.6508444  3
   3695   3694   3706   3708     1  0.0000000  0.6508444  3
   3696   3694   3690   3697     1  0.0000000  0.6508444  3
   3696   3694   3690   3719     1  0.0000000  0.6508444  3
   3696   3694   3706   3712     1  0.0000000  0.6508444  3
   3696   3694   3706   3707     1  0.0000000  0.6508444  3
   3696   3694   3706   3708     1  0.0000000  0.6508444  3
   3697   3700   3709   3710     1  0.0000000  0.6508444  3
   3697   3700   3709   3711     1  0.0000000  0.6508444  3
   3698   3697   3690   3719     1  0.0000000  0.6508444  3
   3698   3697   3700   3709     1  0.0000000  0.6508444  3
   3698   3697   3700   3701     1  0.0000000  0.6508444  3
   3698   3697   3700   3702     1  0.0000000  0.6508444  3
   3699   3697   3690   3719     1  0.0000000  0.6508444  3
   3699   3697   3700   3709     1  0.0000000  0.6508444  3
   3699   3697   3700   3701     1  0.0000000  0.6508444  3
   3699   3697   3700   3702     1  0.0000000  0.6508444  3
   3700   3697   3690   3719     1  0.0000000  0.6508444  3
   3701   3700   3709   3718     1  0.0000000  1.0460000  1
   3701   3700   3709   3718     1  0.0000000  0.0000000  3
   3701   3700   3709   3710     1  0.0000000  0.6508444  3
   3701   3700   3709   3711     1  0.0000000  0.6508444  3
   3702   3700   3709   3718     1  0.0000000  1.0460000  1
   3702   3700   3709   3718     1  0.0000000  0.0000000  3
   3702   3700   3709   3710     1  0.0000000  0.6508444  3
   3702   3700   3709   3711     1  0.0000000  0.6508444  3
   3703   3691   3690   3719     1  0.0000000  0.6508444  3
   3704   3703   3715   7498     1  0.0000000  1.0460000  1
   3704   3703   3715   7498     1  0.0000000  0.0000000  3
   3704   3703   3715   3716     1  0.0000000  0.6508444  3
   3704   3703   3715   3717     1  0.0000000  0.6508444  3
   3705   3703   3715   7498     1  0.0000000  1.0460000  1
   3705   3703   3715   7498     1  0.0000000  0.0000000  3
   3705   3703   3715   3716     1  0.0000000  0.6508444  3
   3705   3703   3715   3717     1  0.0000000  0.6508444  3
   3706   3694   3690   3719     1  0.0000000  0.6508444  3
   3707   3706   3712   7468     1  0.0000000  1.0460000  1
   3707   3706   3712   7468     1  0.0000000  0.0000000  3
   3707   3706   3712   3713     1  0.0000000  0.6508444  3
   3707   3706   3712   3714     1  0.0000000  0.6508444  3
   3708   3706   3712   7468     1  0.0000000  1.0460000  1
   3708   3706   3712   7468     1  0.0000000  0.0000000  3
   3708   3706   3712   3713     1  0.0000000  0.6508444  3
   3708   3706   3712   3714     1  0.0000000  0.6508444  3
   3712   7468   7459   7460     1  0.0000000  1.6038667  3
   3712   7468   7459   7461     1  0.0000000  1.6038667  3
   3713   3712   7468   7459     1  0.0000000  1.6038667  3
   3714   3712   7468   7459     1  0.0000000  1.6038667  3
   3715   7498   7489   7490     1  0.0000000  1.6038667  3
   3715   7498   7489   7491     1  0.0000000  1.6038667  3
   3716   3715   7498   7489     1  0.0000000  1.6038667  3
   3717   3715   7498   7489     1  0.0000000  1.6038667  3
   3720   3721   3733   3734     1  0.0000000  0.6508444  3
   3720   3721   3733   3735     1  0.0000000  0.6508444  3
   3720   3724   3736   3737     1  0.0000000  0.6508444  3
   3720   3724   3736   3738     1  0.0000000  0.6508444  3
   3720   3727   3730   3731     1  0.0000000  0.6508444  3
   3720   3727   3730   3732     1  0.0000000  0.6508444  3
   3721   3720   3724   3725     1  0.0000000  0.6508444  3
   3721   3720   3724   3726     1  0.0000000  0.6508444  3
   3721   3720   3727   3728     1  0.0000000  0.6508444  3
   3721   3720   3727   3729     1  0.0000000  0.6508444  3
   3721   3733   3745   3746     1  0.0000000  0.6508444  3
   3721   3733   3745   3747     1  0.0000000  0.6508444  3
   3722   3721   3720   3724     1  0.0000000  0.6508444  3
   3722   3721   3720   3727     1  0.0000000  0.6508444  3
   3722   3721   3720   3749     1  0.0000000  0.6508444  3
   3722   3721   3733   3745     1  0.0000000  0.6508444  3
   3722   3721   3733   3734     1  0.0000000  0.6508444  3
   3722   3721   3733   3735     1  0.0000000  0.6508444  3
   3723   3721   3720   3724     1  0.0000000  0.6508444  3
   3723   3721   3720   3727     1  0.0000000  0.6508444  3
   3723   3721   3720   3749     1  0.0000000  0.6508444  3
   3723   3721   3733   3745     1  0.0000000  0.6508444  3
   3723   3721   3733   3734     1  0.0000000  0.6508444  3
   3723   3721   3733   3735     1  0.0000000  0.6508444  3
   3724   3720   3727   3728     1  0.0000000  0.6508444  3
   3724   3720   3727   3729     1  0.0000000  0.6508444  3
   3724   3736   3742   3743     1  0.0000000  0.6508444  3
   3724   3736   3742   3744     1  0.0000000  0.6508444  3
   3725   3724   3720   3727     1  0.0000000  0.6508444  3
   3725   3724   3720   3749     1  0.0000000  0.6508444  3
   3725   3724   3736   3742     1  0.0000000  0.6508444  3
   3725   3724   3736   3737     1  0.0000000  0.6508444  3
   3725   3724   3736   3738     1  0.0000000  0.6508444  3
   3726   3724   3720   3727     1  0.0000000  0.6508444  3
   3726   3724   3720   3749     1  0.0000000  0.6508444  3
   3726   3724   3736   3742     1  0.0000000  0.6508444  3
   3726   3724   3736   3737     1  0.0000000  0.6508444  3
   3726   3724   3736   3738     1  0.0000000  0.6508444  3
   3727   3730   3739   3740     1  0.0000000  0.6508444  3
   3727   3730   3739   3741     1  0.0000000  0.6508444  3
   3728   3727   3720   3749     1  0.0000000  0.6508444  3
   3728   3727   3730   3739     1  0.0000000  0.6508444  3
   3728   3727   3730   3731     1  0.0000000  0.6508444  3
   3728   3727   3730   3732     1  0.0000000  0.6508444  3
   3729   3727   3720   3749     1  0.0000000  0.6508444  3
   3729   3727   3730   3739     1  0.0000000  0.6508444  3
   3729   3727   3730   3731     1  0.0000000  0.6508444  3
   3729   3727   3730   3732     1  0.0000000  0.6508444  3
   3730   3727   3720   3749     1  0.0000000  0.6508444  3
   3731   3730   3739   3748     1  0.0000000  1.0460000  1
   3731   3730   3739   3748     1  0.0000000  0.0000000  3
   3731   3730   3739   3740     1  0.0000000  0.6508444  3
   3731   3730   3739   3741     1  0.0000000  0.6508444  3
   3732   3730   3739   3748     1  0.0000000  1.0460000  1
   3732   3730   3739   3748     1  0.0000000  0.0000000  3
   3732   3730   3739   3740     1  0.0000000  0.6508444  3
   3732   3730   3739   3741     1  0.0000000  0.6508444  3
   3733   3721   3720   3749     1  0.0000000  0.6508444  3
   3734   3733   3745   7558     1  0.0000000  1.0460000  1
   3734   3733   3745   7558     1  0.0000000  0.0000000  3
   3734   3733   3745   3746     1  0.0000000  0.6508444  3
   3734   3733   3745   3747     1  0.0000000  0.6508444  3
   3735   3733   3745   7558     1  0.0000000  1.0460000  1
   3735   3733   3745   7558     1  0.0000000  0.0000000  3
   3735   3733   3745   3746     1  0.0000000  0.6508444  3
   3735   3733   3745   3747     1  0.0000000  0.6508444  3
   3736   3724   3720   3749     1  0.0000000  0.6508444  3
   3737   3736   3742   7528     1  0.0000000  1.0460000  1
   3737   3736   3742   7528     1  0.0000000  0.0000000  3
   3737   3736   3742   3743     1  0.0000000  0.6508444  3
   3737   3736   3742   3744     1  0.0000000  0.6508444  3
   3738   3736   3742   7528     1  0.0000000  1.0460000  1
   3738   3736   3742   7528     1  0.0000000  0.0000000  3
   3738   3736   3742   3743     1  0.0000000  0.6508444  3
   3738   3736   3742   3744     1  0.0000000  0.6508444  3
   3742   7528   7519   7520     1  0.0000000  1.6038667  3
   3742   7528   7519   7521     1  0.0000000  1.6038667  3
   3743   3742   7528   7519     1  0.0000000  1.6038667  3
   3744   3742   7528   7519     1  0.0000000  1.6038667  3
   3745   7558   7549   7550     1  0.0000000  1.6038667  3
   3745   7558   7549   7551     1  0.0000000  1.6038667  3
   3746   3745   7558   7549     1  0.0000000  1.6038667  3
   3747   3745   7558   7549     1  0.0000000  1.6038667  3
   3750   3751   3763   3764     1  0.0000000  0.6508444  3
   3750   3751   3763   3765     1  0.0000000  0.6508444  3
   3750   3754   3766   3767     1  0.0000000  0.6508444  3
   3750   3754   3766   3768     1  0.0000000  0.6508444  3
   3750   3757   3760   3761     1  0.0000000  0.6508444  3
   3750   3757   3760   3762     1  0.0000000  0.6508444  3
   3751   3750   3754   3755     1  0.0000000  0.6508444  3
   3751   3750   3754   3756     1  0.0000000  0.6508444  3
   3751   3750   3757   3758     1  0.0000000  0.6508444  3
   3751   3750   3757   3759     1  0.0000000  0.6508444  3
   3751   3763   3775   3776     1  0.0000000  0.6508444  3
   3751   3763   3775   3777     1  0.0000000  0.6508444  3
   3752   3751   3750   3754     1  0.0000000  0.6508444  3
   3752   3751   3750   3757     1  0.0000000  0.6508444  3
   3752   3751   3750   3779     1  0.0000000  0.6508444  3
   3752   3751   3763   3775     1  0.0000000  0.6508444  3
   3752   3751   3763   3764     1  0.0000000  0.6508444  3
   3752   3751   3763   3765     1  0.0000000  0.6508444  3
   3753   3751   3750   3754     1  0.0000000  0.6508444  3
   3753   3751   3750   3757     1  0.0000000  0.6508444  3
   3753   3751   3750   3779     1  0.0000000  0.6508444  3
   3753   3751   3763   3775     1  0.0000000  0.6508444  3
   3753   3751   3763   3764     1  0.0000000  0.6508444  3
   3753   3751   3763   3765     1  0.0000000  0.6508444  3
   3754   3750   3757   3758     1  0.0000000  0.6508444  3
   3754   3750   3757   3759     1  0.0000000  0.6508444  3
   3754   3766   3772   3773     1  0.0000000  0.6508444  3
   3754   3766   3772   3774     1  0.0000000  0.6508444  3
   3755   3754   3750   3757     1  0.0000000  0.6508444  3
   3755   3754   3750   3779     1  0.0000000  0.6508444  3
   3755   3754   3766   3772     1  0.0000000  0.6508444  3
   3755   3754   3766   3767     1  0.0000000  0.6508444  3
   3755   3754   3766   3768     1  0.0000000  0.6508444  3
   3756   3754   3750   3757     1  0.0000000  0.6508444  3
   3756   3754   3750   3779     1  0.0000000  0.6508444  3
   3756   3754   3766   3772     1  0.0000000  0.6508444  3
   3756   3754   3766   3767     1  0.0000000  0.6508444  3
   3756   3754   3766   3768     1  0.0000000  0.6508444  3
   3757   3760   3769   3770     1  0.0000000  0.6508444  3
   3757   3760   3769   3771     1  0.0000000  0.6508444  3
   3758   3757   3750   3779     1  0.0000000  0.6508444  3
   3758   3757   3760   3769     1  0.0000000  0.6508444  3
   3758   3757   3760   3761     1  0.0000000  0.6508444  3
   3758   3757   3760   3762     1  0.0000000  0.6508444  3
   3759   3757   3750   3779     1  0.0000000  0.6508444  3
   3759   3757   3760   3769     1  0.0000000  0.6508444  3
   3759   3757   3760   3761     1  0.0000000  0.6508444  3
   3759   3757   3760   3762     1  0.0000000  0.6508444  3
   3760   3757   3750   3779     1  0.0000000  0.6508444  3
   3761   3760   3769   3778     1  0.0000000  1.0460000  1
   3761   3760   3769   3778     1  0.0000000  0.0000000  3
   3761   3760   3769   3770     1  0.0000000  0.6508444  3
   3761   3760   3769   3771     1  0.0000000  0.6508444  3
   3762   3760   3769   3778     1  0.0000000  1.0460000  1
   3762   3760   3769   3778     1  0.0000000  0.0000000  3
   3762   3760   3769   3770     1  0.0000000  0.6508444  3
   3762   3760   3769   3771     1  0.0000000  0.6508444  3
   3763   3751   3750   3779     1  0.0000000  0.6508444  3
   3764   3763   3775   7618     1  0.0000000  1.0460000  1
   3764   3763   3775   7618     1  0.0000000  0.0000000  3
   3764   3763   3775   3776     1  0.0000000  0.6508444  3
   3764   3763   3775   3777     1  0.0000000  0.6508444  3
   3765   3763   3775   7618     1  0.0000000  1.0460000  1
   3765   3763   3775   7618     1  0.0000000  0.0000000  3
   3765   3763   3775   3776     1  0.0000000  0.6508444  3
   3765   3763   3775   3777     1  0.0000000  0.6508444  3
   3766   3754   3750   3779     1  0.0000000  0.6508444  3
   3767   3766   3772   7588     1  0.0000000  1.0460000  1
   3767   3766   3772   7588     1  0.0000000  0.0000000  3
   3767   3766   3772   3773     1  0.0000000  0.6508444  3
   3767   3766   3772   3774     1  0.0000000  0.6508444  3
   3768   3766   3772   7588     1  0.0000000  1.0460000  1
   3768   3766   3772   7588     1  0.0000000  0.0000000  3
   3768   3766   3772   3773     1  0.0000000  0.6508444  3
   3768   3766   3772   3774     1  0.0000000  0.6508444  3
   3772   7588   7579   7580     1  0.0000000  1.6038667  3
   3772   7588   7579   7581     1  0.0000000  1.6038667  3
   3773   3772   7588   7579     1  0.0000000  1.6038667  3
   3774   3772   7588   7579     1  0.0000000  1.6038667  3
   3775   7618   7609   7610     1  0.0000000  1.6038667  3
   3775   7618   7609   7611     1  0.0000000  1.6038667  3
   3776   3775   7618   7609     1  0.0000000  1.6038667  3
   3777   3775   7618   7609     1  0.0000000  1.6038667  3
   3780   3781   3793   3794     1  0.0000000  0.6508444  3
   3780   3781   3793   3795     1  0.0000000  0.6508444  3
   3780   3784   3796   3797     1  0.0000000  0.6508444  3
   3780   3784   3796   3798     1  0.0000000  0.6508444  3
   3780   3787   3790   3791     1  0.0000000  0.6508444  3
   3780   3787   3790   3792     1  0.0000000  0.6508444  3
   3781   3780   3784   3785     1  0.0000000  0.6508444  3
   3781   3780   3784   3786     1  0.0000000  0.6508444  3
   3781   3780   3787   3788     1  0.0000000  0.6508444  3
   3781   3780   3787   3789     1  0.0000000  0.6508444  3
   3781   3793   3805   3806     1  0.0000000  0.6508444  3
   3781   3793   3805   3807     1  0.0000000  0.6508444  3
   3782   3781   3780   3784     1  0.0000000  0.6508444  3
   3782   3781   3780   3787     1  0.0000000  0.6508444  3
   3782   3781   3780   3809     1  0.0000000  0.6508444  3
   3782   3781   3793   3805     1  0.0000000  0.6508444  3
   3782   3781   3793   3794     1  0.0000000  0.6508444  3
   3782   3781   3793   3795     1  0.0000000  0.6508444  3
   3783   3781   3780   3784     1  0.0000000  0.6508444  3
   3783   3781   3780   3787     1  0.0000000  0.6508444  3
   3783   3781   3780   3809     1  0.0000000  0.6508444  3
   3783   3781   3793   3805     1  0.0000000  0.6508444  3
   3783   3781   3793   3794     1  0.0000000  0.6508444  3
   3783   3781   3793   3795     1  0.0000000  0.6508444  3
   3784   3780   3787   3788     1  0.0000000  0.6508444  3
   3784   3780   3787   3789     1  0.0000000  0.6508444  3
   3784   3796   3802   3803     1  0.0000000  0.6508444  3
   3784   3796   3802   3804     1  0.0000000  0.6508444  3
   3785   3784   3780   3787     1  0.0000000  0.6508444  3
   3785   3784   3780   3809     1  0.0000000  0.6508444  3
   3785   3784   3796   3802     1  0.0000000  0.6508444  3
   3785   3784   3796   3797     1  0.0000000  0.6508444  3
   3785   3784   3796   3798     1  0.0000000  0.6508444  3
   3786   3784   3780   3787     1  0.0000000  0.6508444  3
   3786   3784   3780   3809     1  0.0000000  0.6508444  3
   3786   3784   3796   3802     1  0.0000000  0.6508444  3
   3786   3784   3796   3797     1  0.0000000  0.6508444  3
   3786   3784   3796   3798     1  0.0000000  0.6508444  3
   3787   3790   3799   3800     1  0.0000000  0.6508444  3
   3787   3790   3799   3801     1  0.0000000  0.6508444  3
   3788   3787   3780   3809     1  0.0000000  0.6508444  3
   3788   3787   3790   3799     1  0.0000000  0.6508444  3
   3788   3787   3790   3791     1  0.0000000  0.6508444  3
   3788   3787   3790   3792     1  0.0000000  0.6508444  3
   3789   3787   3780   3809     1  0.0000000  0.6508444  3
   3789   3787   3790   3799     1  0.0000000  0.6508444  3
   3789   3787   3790   3791     1  0.0000000  0.6508444  3
   3789   3787   3790   3792     1  0.0000000  0.6508444  3
   3790   3787   3780   3809     1  0.0000000  0.6508444  3
   3791   3790   3799   3808     1  0.0000000  1.0460000  1
   3791   3790   3799   3808     1  0.0000000  0.0000000  3
   3791   3790   3799   3800     1  0.0000000  0.6508444  3
   3791   3790   3799   3801     1  0.0000000  0.6508444  3
   3792   3790   3799   3808     1  0.0000000  1.0460000  1
   3792   3790   3799   3808     1  0.0000000  0.0000000  3
   3792   3790   3799   3800     1  0.0000000  0.6508444  3
   3792   3790   3799   3801     1  0.0000000  0.6508444  3
   3793   3781   3780   3809     1  0.0000000  0.6508444  3
   3794   3793   3805   7653     1  0.0000000  1.0460000  1
   3794   3793   3805   7653     1  0.0000000  0.0000000  3
   3794   3793   3805   3806     1  0.0000000  0.6508444  3
   3794   3793   3805   3807     1  0.0000000  0.6508444  3
   3795   3793   3805   7653     1  0.0000000  1.0460000  1
   3795   3793   3805   7653     1  0.0000000  0.0000000  3
   3795   3793   3805   3806     1  0.0000000  0.6508444  3
   3795   3793   3805   3807     1  0.0000000  0.6508444  3
   3796   3784   3780   3809     1  0.0000000  0.6508444  3
   3797   3796   3802   7630     1  0.0000000  1.0460000  1
   3797   3796   3802   7630     1  0.0000000  0.0000000  3
   3797   3796   3802   3803     1  0.0000000  0.6508444  3
   3797   3796   3802   3804     1  0.0000000  0.6508444  3
   3798   3796   3802   7630     1  0.0000000  1.0460000  1
   3798   3796   3802   7630     1  0.0000000  0.0000000  3
   3798   3796   3802   3803     1  0.0000000  0.6508444  3
   3798   3796   3802   3804     1  0.0000000  0.6508444  3
   3802   7630   7626   7629     1  0.0000000  1.6038667  3
   3803   3802   7630   7626     1  0.0000000  1.6038667  3
   3804   3802   7630   7626     1  0.0000000  1.6038667  3
   3805   7653   7649   7652     1  0.0000000  1.6038667  3
   3806   3805   7653   7649     1  0.0000000  1.6038667  3
   3807   3805   7653   7649     1  0.0000000  1.6038667  3
   3810   3811   3823   3824     1  0.0000000  0.6508444  3
   3810   3811   3823   3825     1  0.0000000  0.6508444  3
   3810   3814   3826   3827     1  0.0000000  0.6508444  3
   3810   3814   3826   3828     1  0.0000000  0.6508444  3
   3810   3817   3820   3821     1  0.0000000  0.6508444  3
   3810   3817   3820   3822     1  0.0000000  0.6508444  3
   3811   3810   3814   3815     1  0.0000000  0.6508444  3
   3811   3810   3814   3816     1  0.0000000  0.6508444  3
   3811   3810   3817   3818     1  0.0000000  0.6508444  3
   3811   3810   3817   3819     1  0.0000000  0.6508444  3
   3811   3823   3835   3836     1  0.0000000  0.6508444  3
   3811   3823   3835   3837     1  0.0000000  0.6508444  3
   3812   3811   3810   3814     1  0.0000000  0.6508444  3
   3812   3811   3810   3817     1  0.0000000  0.6508444  3
   3812   3811   3810   3839     1  0.0000000  0.6508444  3
   3812   3811   3823   3835     1  0.0000000  0.6508444  3
   3812   3811   3823   3824     1  0.0000000  0.6508444  3
   3812   3811   3823   3825     1  0.0000000  0.6508444  3
   3813   3811   3810   3814     1  0.0000000  0.6508444  3
   3813   3811   3810   3817     1  0.0000000  0.6508444  3
   3813   3811   3810   3839     1  0.0000000  0.6508444  3
   3813   3811   3823   3835     1  0.0000000  0.6508444  3
   3813   3811   3823   3824     1  0.0000000  0.6508444  3
   3813   3811   3823   3825     1  0.0000000  0.6508444  3
   3814   3810   3817   3818     1  0.0000000  0.6508444  3
   3814   3810   3817   3819     1  0.0000000  0.6508444  3
   3814   3826   3832   3833     1  0.0000000  0.6508444  3
   3814   3826   3832   3834     1  0.0000000  0.6508444  3
   3815   3814   3810   3817     1  0.0000000  0.6508444  3
   3815   3814   3810   3839     1  0.0000000  0.6508444  3
   3815   3814   3826   3832     1  0.0000000  0.6508444  3
   3815   3814   3826   3827     1  0.0000000  0.6508444  3
   3815   3814   3826   3828     1  0.0000000  0.6508444  3
   3816   3814   3810   3817     1  0.0000000  0.6508444  3
   3816   3814   3810   3839     1  0.0000000  0.6508444  3
   3816   3814   3826   3832     1  0.0000000  0.6508444  3
   3816   3814   3826   3827     1  0.0000000  0.6508444  3
   3816   3814   3826   3828     1  0.0000000  0.6508444  3
   3817   3820   3829   3830     1  0.0000000  0.6508444  3
   3817   3820   3829   3831     1  0.0000000  0.6508444  3
   3818   3817   3810   3839     1  0.0000000  0.6508444  3
   3818   3817   3820   3829     1  0.0000000  0.6508444  3
   3818   3817   3820   3821     1  0.0000000  0.6508444  3
   3818   3817   3820   3822     1  0.0000000  0.6508444  3
   3819   3817   3810   3839     1  0.0000000  0.6508444  3
   3819   3817   3820   3829     1  0.0000000  0.6508444  3
   3819   3817   3820   3821     1  0.0000000  0.6508444  3
   3819   3817   3820   3822     1  0.0000000  0.6508444  3
   3820   3817   3810   3839     1  0.0000000  0.6508444  3
   3821   3820   3829   3838     1  0.0000000  1.0460000  1
   3821   3820   3829   3838     1  0.0000000  0.0000000  3
   3821   3820   3829   3830     1  0.0000000  0.6508444  3
   3821   3820   3829   3831     1  0.0000000  0.6508444  3
   3822   3820   3829   3838     1  0.0000000  1.0460000  1
   3822   3820   3829   3838     1  0.0000000  0.0000000  3
   3822   3820   3829   3830     1  0.0000000  0.6508444  3
   3822   3820   3829   3831     1  0.0000000  0.6508444  3
   3823   3811   3810   3839     1  0.0000000  0.6508444  3
   3824   3823   3835   7699     1  0.0000000  1.0460000  1
   3824   3823   3835   7699     1  0.0000000  0.0000000  3
   3824   3823   3835   3836     1  0.0000000  0.6508444  3
   3824   3823   3835   3837     1  0.0000000  0.6508444  3
   3825   3823   3835   7699     1  0.0000000  1.0460000  1
   3825   3823   3835   7699     1  0.0000000  0.0000000  3
   3825   3823   3835   3836     1  0.0000000  0.6508444  3
   3825   3823   3835   3837     1  0.0000000  0.6508444  3
   3826   3814   3810   3839     1  0.0000000  0.6508444  3
   3827   3826   3832   7676     1  0.0000000  1.0460000  1
   3827   3826   3832   7676     1  0.0000000  0.0000000  3
   3827   3826   3832   3833     1  0.0000000  0.6508444  3
   3827   3826   3832   3834     1  0.0000000  0.6508444  3
   3828   3826   3832   7676     1  0.0000000  1.0460000  1
   3828   3826   3832   7676     1  0.0000000  0.0000000  3
   3828   3826   3832   3833     1  0.0000000  0.6508444  3
   3828   3826   3832   3834     1  0.0000000  0.6508444  3
   3832   7676   7672   7675     1  0.0000000  1.6038667  3
   3833   3832   7676   7672     1  0.0000000  1.6038667  3
   3834   3832   7676   7672     1  0.0000000  1.6038667  3
   3835   7699   7695   7698     1  0.0000000  1.6038667  3
   3836   3835   7699   7695     1  0.0000000  1.6038667  3
   3837   3835   7699   7695     1  0.0000000  1.6038667  3
   3840   3841   3853   3854     1  0.0000000  0.6508444  3
   3840   3841   3853   3855     1  0.0000000  0.6508444  3
   3840   3844   3856   3857     1  0.0000000  0.6508444  3
   3840   3844   3856   3858     1  0.0000000  0.6508444  3
   3840   3847   3850   3851     1  0.0000000  0.6508444  3
   3840   3847   3850   3852     1  0.0000000  0.6508444  3
   3841   3840   3844   3845     1  0.0000000  0.6508444  3
   3841   3840   3844   3846     1  0.0000000  0.6508444  3
   3841   3840   3847   3848     1  0.0000000  0.6508444  3
   3841   3840   3847   3849     1  0.0000000  0.6508444  3
   3841   3853   3865   3866     1  0.0000000  0.6508444  3
   3841   3853   3865   3867     1  0.0000000  0.6508444  3
   3842   3841   3840   3844     1  0.0000000  0.6508444  3
   3842   3841   3840   3847     1  0.0000000  0.6508444  3
   3842   3841   3840   3869     1  0.0000000  0.6508444  3
   3842   3841   3853   3865     1  0.0000000  0.6508444  3
   3842   3841   3853   3854     1  0.0000000  0.6508444  3
   3842   3841   3853   3855     1  0.0000000  0.6508444  3
   3843   3841   3840   3844     1  0.0000000  0.6508444  3
   3843   3841   3840   3847     1  0.0000000  0.6508444  3
   3843   3841   3840   3869     1  0.0000000  0.6508444  3
   3843   3841   3853   3865     1  0.0000000  0.6508444  3
   3843   3841   3853   3854     1  0.0000000  0.6508444  3
   3843   3841   3853   3855     1  0.0000000  0.6508444  3
   3844   3840   3847   3848     1  0.0000000  0.6508444  3
   3844   3840   3847   3849     1  0.0000000  0.6508444  3
   3844   3856   3862   3863     1  0.0000000  0.6508444  3
   3844   3856   3862   3864     1  0.0000000  0.6508444  3
   3845   3844   3840   3847     1  0.0000000  0.6508444  3
   3845   3844   3840   3869     1  0.0000000  0.6508444  3
   3845   3844   3856   3862     1  0.0000000  0.6508444  3
   3845   3844   3856   3857     1  0.0000000  0.6508444  3
   3845   3844   3856   3858     1  0.0000000  0.6508444  3
   3846   3844   3840   3847     1  0.0000000  0.6508444  3
   3846   3844   3840   3869     1  0.0000000  0.6508444  3
   3846   3844   3856   3862     1  0.0000000  0.6508444  3
   3846   3844   3856   3857     1  0.0000000  0.6508444  3
   3846   3844   3856   3858     1  0.0000000  0.6508444  3
   3847   3850   3859   3860     1  0.0000000  0.6508444  3
   3847   3850   3859   3861     1  0.0000000  0.6508444  3
   3848   3847   3840   3869     1  0.0000000  0.6508444  3
   3848   3847   3850   3859     1  0.0000000  0.6508444  3
   3848   3847   3850   3851     1  0.0000000  0.6508444  3
   3848   3847   3850   3852     1  0.0000000  0.6508444  3
   3849   3847   3840   3869     1  0.0000000  0.6508444  3
   3849   3847   3850   3859     1  0.0000000  0.6508444  3
   3849   3847   3850   3851     1  0.0000000  0.6508444  3
   3849   3847   3850   3852     1  0.0000000  0.6508444  3
   3850   3847   3840   3869     1  0.0000000  0.6508444  3
   3851   3850   3859   3868     1  0.0000000  1.0460000  1
   3851   3850   3859   3868     1  0.0000000  0.0000000  3
   3851   3850   3859   3860     1  0.0000000  0.6508444  3
   3851   3850   3859   3861     1  0.0000000  0.6508444  3
   3852   3850   3859   3868     1  0.0000000  1.0460000  1
   3852   3850   3859   3868     1  0.0000000  0.0000000  3
   3852   3850   3859   3860     1  0.0000000  0.6508444  3
   3852   3850   3859   3861     1  0.0000000  0.6508444  3
   3853   3841   3840   3869     1  0.0000000  0.6508444  3
   3854   3853   3865   7745     1  0.0000000  1.0460000  1
   3854   3853   3865   7745     1  0.0000000  0.0000000  3
   3854   3853   3865   3866     1  0.0000000  0.6508444  3
   3854   3853   3865   3867     1  0.0000000  0.6508444  3
   3855   3853   3865   7745     1  0.0000000  1.0460000  1
   3855   3853   3865   7745     1  0.0000000  0.0000000  3
   3855   3853   3865   3866     1  0.0000000  0.6508444  3
   3855   3853   3865   3867     1  0.0000000  0.6508444  3
   3856   3844   3840   3869     1  0.0000000  0.6508444  3
   3857   3856   3862   7722     1  0.0000000  1.0460000  1
   3857   3856   3862   7722     1  0.0000000  0.0000000  3
   3857   3856   3862   3863     1  0.0000000  0.6508444  3
   3857   3856   3862   3864     1  0.0000000  0.6508444  3
   3858   3856   3862   7722     1  0.0000000  1.0460000  1
   3858   3856   3862   7722     1  0.0000000  0.0000000  3
   3858   3856   3862   3863     1  0.0000000  0.6508444  3
   3858   3856   3862   3864     1  0.0000000  0.6508444  3
   3862   7722   7718   7721     1  0.0000000  1.6038667  3
   3863   3862   7722   7718     1  0.0000000  1.6038667  3
   3864   3862   7722   7718     1  0.0000000  1.6038667  3
   3865   7745   7741   7744     1  0.0000000  1.6038667  3
   3866   3865   7745   7741     1  0.0000000  1.6038667  3
   3867   3865   7745   7741     1  0.0000000  1.6038667  3
   3870   3871   3883   3884     1  0.0000000  0.6508444  3
   3870   3871   3883   3885     1  0.0000000  0.6508444  3
   3870   3874   3886   3887     1  0.0000000  0.6508444  3
   3870   3874   3886   3888     1  0.0000000  0.6508444  3
   3870   3877   3880   3881     1  0.0000000  0.6508444  3
   3870   3877   3880   3882     1  0.0000000  0.6508444  3
   3871   3870   3874   3875     1  0.0000000  0.6508444  3
   3871   3870   3874   3876     1  0.0000000  0.6508444  3
   3871   3870   3877   3878     1  0.0000000  0.6508444  3
   3871   3870   3877   3879     1  0.0000000  0.6508444  3
   3871   3883   3895   3896     1  0.0000000  0.6508444  3
   3871   3883   3895   3897     1  0.0000000  0.6508444  3
   3872   3871   3870   3874     1  0.0000000  0.6508444  3
   3872   3871   3870   3877     1  0.0000000  0.6508444  3
   3872   3871   3870   3899     1  0.0000000  0.6508444  3
   3872   3871   3883   3895     1  0.0000000  0.6508444  3
   3872   3871   3883   3884     1  0.0000000  0.6508444  3
   3872   3871   3883   3885     1  0.0000000  0.6508444  3
   3873   3871   3870   3874     1  0.0000000  0.6508444  3
   3873   3871   3870   3877     1  0.0000000  0.6508444  3
   3873   3871   3870   3899     1  0.0000000  0.6508444  3
   3873   3871   3883   3895     1  0.0000000  0.6508444  3
   3873   3871   3883   3884     1  0.0000000  0.6508444  3
   3873   3871   3883   3885     1  0.0000000  0.6508444  3
   3874   3870   3877   3878     1  0.0000000  0.6508444  3
   3874   3870   3877   3879     1  0.0000000  0.6508444  3
   3874   3886   3892   3893     1  0.0000000  0.6508444  3
   3874   3886   3892   3894     1  0.0000000  0.6508444  3
   3875   3874   3870   3877     1  0.0000000  0.6508444  3
   3875   3874   3870   3899     1  0.0000000  0.6508444  3
   3875   3874   3886   3892     1  0.0000000  0.6508444  3
   3875   3874   3886   3887     1  0.0000000  0.6508444  3
   3875   3874   3886   3888     1  0.0000000  0.6508444  3
   3876   3874   3870   3877     1  0.0000000  0.6508444  3
   3876   3874   3870   3899     1  0.0000000  0.6508444  3
   3876   3874   3886   3892     1  0.0000000  0.6508444  3
   3876   3874   3886   3887     1  0.0000000  0.6508444  3
   3876   3874   3886   3888     1  0.0000000  0.6508444  3
   3877   3880   3889   3890     1  0.0000000  0.6508444  3
   3877   3880   3889   3891     1  0.0000000  0.6508444  3
   3878   3877   3870   3899     1  0.0000000  0.6508444  3
   3878   3877   3880   3889     1  0.0000000  0.6508444  3
   3878   3877   3880   3881     1  0.0000000  0.6508444  3
   3878   3877   3880   3882     1  0.0000000  0.6508444  3
   3879   3877   3870   3899     1  0.0000000  0.6508444  3
   3879   3877   3880   3889     1  0.0000000  0.6508444  3
   3879   3877   3880   3881     1  0.0000000  0.6508444  3
   3879   3877   3880   3882     1  0.0000000  0.6508444  3
   3880   3877   3870   3899     1  0.0000000  0.6508444  3
   3881   3880   3889   3898     1  0.0000000  1.0460000  1
   3881   3880   3889   3898     1  0.0000000  0.0000000  3
   3881   3880   3889   3890     1  0.0000000  0.6508444  3
   3881   3880   3889   3891     1  0.0000000  0.6508444  3
   3882   3880   3889   3898     1  0.0000000  1.0460000  1
   3882   3880   3889   3898     1  0.0000000  0.0000000  3
   3882   3880   3889   3890     1  0.0000000  0.6508444  3
   3882   3880   3889   3891     1  0.0000000  0.6508444  3
   3883   3871   3870   3899     1  0.0000000  0.6508444  3
   3884   3883   3895   7791     1  0.0000000  1.0460000  1
   3884   3883   3895   7791     1  0.0000000  0.0000000  3
   3884   3883   3895   3896     1  0.0000000  0.6508444  3
   3884   3883   3895   3897     1  0.0000000  0.6508444  3
   3885   3883   3895   7791     1  0.0000000  1.0460000  1
   3885   3883   3895   7791     1  0.0000000  0.0000000  3
   3885   3883   3895   3896     1  0.0000000  0.6508444  3
   3885   3883   3895   3897     1  0.0000000  0.6508444  3
   3886   3874   3870   3899     1  0.0000000  0.6508444  3
   3887   3886   3892   7768     1  0.0000000  1.0460000  1
   3887   3886   3892   7768     1  0.0000000  0.0000000  3
   3887   3886   3892   3893     1  0.0000000  0.6508444  3
   3887   3886   3892   3894     1  0.0000000  0.6508444  3
   3888   3886   3892   7768     1  0.0000000  1.0460000  1
   3888   3886   3892   7768     1  0.0000000  0.0000000  3
   3888   3886   3892   3893     1  0.0000000  0.6508444  3
   3888   3886   3892   3894     1  0.0000000  0.6508444  3
   3892   7768   7764   7767     1  0.0000000  1.6038667  3
   3893   3892   7768   7764     1  0.0000000  1.6038667  3
   3894   3892   7768   7764     1  0.0000000  1.6038667  3
   3895   7791   7787   7790     1  0.0000000  1.6038667  3
   3896   3895   7791   7787     1  0.0000000  1.6038667  3
   3897   3895   7791   7787     1  0.0000000  1.6038667  3
   3900   3901   3913   3914     1  0.0000000  0.6508444  3
   3900   3901   3913   3915     1  0.0000000  0.6508444  3
   3900   3904   3916   3917     1  0.0000000  0.6508444  3
   3900   3904   3916   3918     1  0.0000000  0.6508444  3
   3900   3907   3910   3911     1  0.0000000  0.6508444  3
   3900   3907   3910   3912     1  0.0000000  0.6508444  3
   3901   3900   3904   3905     1  0.0000000  0.6508444  3
   3901   3900   3904   3906     1  0.0000000  0.6508444  3
   3901   3900   3907   3908     1  0.0000000  0.6508444  3
   3901   3900   3907   3909     1  0.0000000  0.6508444  3
   3901   3913   3925   3926     1  0.0000000  0.6508444  3
   3901   3913   3925   3927     1  0.0000000  0.6508444  3
   3902   3901   3900   3904     1  0.0000000  0.6508444  3
   3902   3901   3900   3907     1  0.0000000  0.6508444  3
   3902   3901   3900   3929     1  0.0000000  0.6508444  3
   3902   3901   3913   3925     1  0.0000000  0.6508444  3
   3902   3901   3913   3914     1  0.0000000  0.6508444  3
   3902   3901   3913   3915     1  0.0000000  0.6508444  3
   3903   3901   3900   3904     1  0.0000000  0.6508444  3
   3903   3901   3900   3907     1  0.0000000  0.6508444  3
   3903   3901   3900   3929     1  0.0000000  0.6508444  3
   3903   3901   3913   3925     1  0.0000000  0.6508444  3
   3903   3901   3913   3914     1  0.0000000  0.6508444  3
   3903   3901   3913   3915     1  0.0000000  0.6508444  3
   3904   3900   3907   3908     1  0.0000000  0.6508444  3
   3904   3900   3907   3909     1  0.0000000  0.6508444  3
   3904   3916   3922   3923     1  0.0000000  0.6508444  3
   3904   3916   3922   3924     1  0.0000000  0.6508444  3
   3905   3904   3900   3907     1  0.0000000  0.6508444  3
   3905   3904   3900   3929     1  0.0000000  0.6508444  3
   3905   3904   3916   3922     1  0.0000000  0.6508444  3
   3905   3904   3916   3917     1  0.0000000  0.6508444  3
   3905   3904   3916   3918     1  0.0000000  0.6508444  3
   3906   3904   3900   3907     1  0.0000000  0.6508444  3
   3906   3904   3900   3929     1  0.0000000  0.6508444  3
   3906   3904   3916   3922     1  0.0000000  0.6508444  3
   3906   3904   3916   3917     1  0.0000000  0.6508444  3
   3906   3904   3916   3918     1  0.0000000  0.6508444  3
   3907   3910   3919   3920     1  0.0000000  0.6508444  3
   3907   3910   3919   3921     1  0.0000000  0.6508444  3
   3908   3907   3900   3929     1  0.0000000  0.6508444  3
   3908   3907   3910   3919     1  0.0000000  0.6508444  3
   3908   3907   3910   3911     1  0.0000000  0.6508444  3
   3908   3907   3910   3912     1  0.0000000  0.6508444  3
   3909   3907   3900   3929     1  0.0000000  0.6508444  3
   3909   3907   3910   3919     1  0.0000000  0.6508444  3
   3909   3907   3910   3911     1  0.0000000  0.6508444  3
   3909   3907   3910   3912     1  0.0000000  0.6508444  3
   3910   3907   3900   3929     1  0.0000000  0.6508444  3
   3911   3910   3919   3928     1  0.0000000  1.0460000  1
   3911   3910   3919   3928     1  0.0000000  0.0000000  3
   3911   3910   3919   3920     1  0.0000000  0.6508444  3
   3911   3910   3919   3921     1  0.0000000  0.6508444  3
   3912   3910   3919   3928     1  0.0000000  1.0460000  1
   3912   3910   3919   3928     1  0.0000000  0.0000000  3
   3912   3910   3919   3920     1  0.0000000  0.6508444  3
   3912   3910   3919   3921     1  0.0000000  0.6508444  3
   3913   3901   3900   3929     1  0.0000000  0.6508444  3
   3914   3913   3925   7837     1  0.0000000  1.0460000  1
   3914   3913   3925   7837     1  0.0000000  0.0000000  3
   3914   3913   3925   3926     1  0.0000000  0.6508444  3
   3914   3913   3925   3927     1  0.0000000  0.6508444  3
   3915   3913   3925   7837     1  0.0000000  1.0460000  1
   3915   3913   3925   7837     1  0.0000000  0.0000000  3
   3915   3913   3925   3926     1  0.0000000  0.6508444  3
   3915   3913   3925   3927     1  0.0000000  0.6508444  3
   3916   3904   3900   3929     1  0.0000000  0.6508444  3
   3917   3916   3922   7814     1  0.0000000  1.0460000  1
   3917   3916   3922   7814     1  0.0000000  0.0000000  3
   3917   3916   3922   3923     1  0.0000000  0.6508444  3
   3917   3916   3922   3924     1  0.0000000  0.6508444  3
   3918   3916   3922   7814     1  0.0000000  1.0460000  1
   3918   3916   3922   7814     1  0.0000000  0.0000000  3
   3918   3916   3922   3923     1  0.0000000  0.6508444  3
   3918   3916   3922   3924     1  0.0000000  0.6508444  3
   3922   7814   7810   7813     1  0.0000000  1.6038667  3
   3923   3922   7814   7810     1  0.0000000  1.6038667  3
   3924   3922   7814   7810     1  0.0000000  1.6038667  3
   3925   7837   7833   7836     1  0.0000000  1.6038667  3
   3926   3925   7837   7833     1  0.0000000  1.6038667  3
   3927   3925   7837   7833     1  0.0000000  1.6038667  3
   3930   3931   3943   3944     1  0.0000000  0.6508444  3
   3930   3931   3943   3945     1  0.0000000  0.6508444  3
   3930   3934   3946   3947     1  0.0000000  0.6508444  3
   3930   3934   3946   3948     1  0.0000000  0.6508444  3
   3930   3937   3940   3941     1  0.0000000  0.6508444  3
   3930   3937   3940   3942     1  0.0000000  0.6508444  3
   3931   3930   3934   3935     1  0.0000000  0.6508444  3
   3931   3930   3934   3936     1  0.0000000  0.6508444  3
   3931   3930   3937   3938     1  0.0000000  0.6508444  3
   3931   3930   3937   3939     1  0.0000000  0.6508444  3
   3931   3943   3955   3956     1  0.0000000  0.6508444  3
   3931   3943   3955   3957     1  0.0000000  0.6508444  3
   3932   3931   3930   3934     1  0.0000000  0.6508444  3
   3932   3931   3930   3937     1  0.0000000  0.6508444  3
   3932   3931   3930   3959     1  0.0000000  0.6508444  3
   3932   3931   3943   3955     1  0.0000000  0.6508444  3
   3932   3931   3943   3944     1  0.0000000  0.6508444  3
   3932   3931   3943   3945     1  0.0000000  0.6508444  3
   3933   3931   3930   3934     1  0.0000000  0.6508444  3
   3933   3931   3930   3937     1  0.0000000  0.6508444  3
   3933   3931   3930   3959     1  0.0000000  0.6508444  3
   3933   3931   3943   3955     1  0.0000000  0.6508444  3
   3933   3931   3943   3944     1  0.0000000  0.6508444  3
   3933   3931   3943   3945     1  0.0000000  0.6508444  3
   3934   3930   3937   3938     1  0.0000000  0.6508444  3
   3934   3930   3937   3939     1  0.0000000  0.6508444  3
   3934   3946   3952   3953     1  0.0000000  0.6508444  3
   3934   3946   3952   3954     1  0.0000000  0.6508444  3
   3935   3934   3930   3937     1  0.0000000  0.6508444  3
   3935   3934   3930   3959     1  0.0000000  0.6508444  3
   3935   3934   3946   3952     1  0.0000000  0.6508444  3
   3935   3934   3946   3947     1  0.0000000  0.6508444  3
   3935   3934   3946   3948     1  0.0000000  0.6508444  3
   3936   3934   3930   3937     1  0.0000000  0.6508444  3
   3936   3934   3930   3959     1  0.0000000  0.6508444  3
   3936   3934   3946   3952     1  0.0000000  0.6508444  3
   3936   3934   3946   3947     1  0.0000000  0.6508444  3
   3936   3934   3946   3948     1  0.0000000  0.6508444  3
   3937   3940   3949   3950     1  0.0000000  0.6508444  3
   3937   3940   3949   3951     1  0.0000000  0.6508444  3
   3938   3937   3930   3959     1  0.0000000  0.6508444  3
   3938   3937   3940   3949     1  0.0000000  0.6508444  3
   3938   3937   3940   3941     1  0.0000000  0.6508444  3
   3938   3937   3940   3942     1  0.0000000  0.6508444  3
   3939   3937   3930   3959     1  0.0000000  0.6508444  3
   3939   3937   3940   3949     1  0.0000000  0.6508444  3
   3939   3937   3940   3941     1  0.0000000  0.6508444  3
   3939   3937   3940   3942     1  0.0000000  0.6508444  3
   3940   3937   3930   3959     1  0.0000000  0.6508444  3
   3941   3940   3949   3958     1  0.0000000  1.0460000  1
   3941   3940   3949   3958     1  0.0000000  0.0000000  3
   3941   3940   3949   3950     1  0.0000000  0.6508444  3
   3941   3940   3949   3951     1  0.0000000  0.6508444  3
   3942   3940   3949   3958     1  0.0000000  1.0460000  1
   3942   3940   3949   3958     1  0.0000000  0.0000000  3
   3942   3940   3949   3950     1  0.0000000  0.6508444  3
   3942   3940   3949   3951     1  0.0000000  0.6508444  3
   3943   3931   3930   3959     1  0.0000000  0.6508444  3
   3944   3943   3955   7883     1  0.0000000  1.0460000  1
   3944   3943   3955   7883     1  0.0000000  0.0000000  3
   3944   3943   3955   3956     1  0.0000000  0.6508444  3
   3944   3943   3955   3957     1  0.0000000  0.6508444  3
   3945   3943   3955   7883     1  0.0000000  1.0460000  1
   3945   3943   3955   7883     1  0.0000000  0.0000000  3
   3945   3943   3955   3956     1  0.0000000  0.6508444  3
   3945   3943   3955   3957     1  0.0000000  0.6508444  3
   3946   3934   3930   3959     1  0.0000000  0.6508444  3
   3947   3946   3952   7860     1  0.0000000  1.0460000  1
   3947   3946   3952   7860     1  0.0000000  0.0000000  3
   3947   3946   3952   3953     1  0.0000000  0.6508444  3
   3947   3946   3952   3954     1  0.0000000  0.6508444  3
   3948   3946   3952   7860     1  0.0000000  1.0460000  1
   3948   3946   3952   7860     1  0.0000000  0.0000000  3
   3948   3946   3952   3953     1  0.0000000  0.6508444  3
   3948   3946   3952   3954     1  0.0000000  0.6508444  3
   3952   7860   7856   7859     1  0.0000000  1.6038667  3
   3953   3952   7860   7856     1  0.0000000  1.6038667  3
   3954   3952   7860   7856     1  0.0000000  1.6038667  3
   3955   7883   7879   7882     1  0.0000000  1.6038667  3
   3956   3955   7883   7879     1  0.0000000  1.6038667  3
   3957   3955   7883   7879     1  0.0000000  1.6038667  3
   3960   3961   3973   3974     1  0.0000000  0.6508444  3
   3960   3961   3973   3975     1  0.0000000  0.6508444  3
   3960   3964   3976   3977     1  0.0000000  0.6508444  3
   3960   3964   3976   3978     1  0.0000000  0.6508444  3
   3960   3967   3970   3971     1  0.0000000  0.6508444  3
   3960   3967   3970   3972     1  0.0000000  0.6508444  3
   3961   3960   3964   3965     1  0.0000000  0.6508444  3
   3961   3960   3964   3966     1  0.0000000  0.6508444  3
   3961   3960   3967   3968     1  0.0000000  0.6508444  3
   3961   3960   3967   3969     1  0.0000000  0.6508444  3
   3961   3973   3985   3986     1  0.0000000  0.6508444  3
   3961   3973   3985   3987     1  0.0000000  0.6508444  3
   3962   3961   3960   3964     1  0.0000000  0.6508444  3
   3962   3961   3960   3967     1  0.0000000  0.6508444  3
   3962   3961   3960   3989     1  0.0000000  0.6508444  3
   3962   3961   3973   3985     1  0.0000000  0.6508444  3
   3962   3961   3973   3974     1  0.0000000  0.6508444  3
   3962   3961   3973   3975     1  0.0000000  0.6508444  3
   3963   3961   3960   3964     1  0.0000000  0.6508444  3
   3963   3961   3960   3967     1  0.0000000  0.6508444  3
   3963   3961   3960   3989     1  0.0000000  0.6508444  3
   3963   3961   3973   3985     1  0.0000000  0.6508444  3
   3963   3961   3973   3974     1  0.0000000  0.6508444  3
   3963   3961   3973   3975     1  0.0000000  0.6508444  3
   3964   3960   3967   3968     1  0.0000000  0.6508444  3
   3964   3960   3967   3969     1  0.0000000  0.6508444  3
   3964   3976   3982   3983     1  0.0000000  0.6508444  3
   3964   3976   3982   3984     1  0.0000000  0.6508444  3
   3965   3964   3960   3967     1  0.0000000  0.6508444  3
   3965   3964   3960   3989     1  0.0000000  0.6508444  3
   3965   3964   3976   3982     1  0.0000000  0.6508444  3
   3965   3964   3976   3977     1  0.0000000  0.6508444  3
   3965   3964   3976   3978     1  0.0000000  0.6508444  3
   3966   3964   3960   3967     1  0.0000000  0.6508444  3
   3966   3964   3960   3989     1  0.0000000  0.6508444  3
   3966   3964   3976   3982     1  0.0000000  0.6508444  3
   3966   3964   3976   3977     1  0.0000000  0.6508444  3
   3966   3964   3976   3978     1  0.0000000  0.6508444  3
   3967   3970   3979   3980     1  0.0000000  0.6508444  3
   3967   3970   3979   3981     1  0.0000000  0.6508444  3
   3968   3967   3960   3989     1  0.0000000  0.6508444  3
   3968   3967   3970   3979     1  0.0000000  0.6508444  3
   3968   3967   3970   3971     1  0.0000000  0.6508444  3
   3968   3967   3970   3972     1  0.0000000  0.6508444  3
   3969   3967   3960   3989     1  0.0000000  0.6508444  3
   3969   3967   3970   3979     1  0.0000000  0.6508444  3
   3969   3967   3970   3971     1  0.0000000  0.6508444  3
   3969   3967   3970   3972     1  0.0000000  0.6508444  3
   3970   3967   3960   3989     1  0.0000000  0.6508444  3
   3971   3970   3979   3988     1  0.0000000  1.0460000  1
   3971   3970   3979   3988     1  0.0000000  0.0000000  3
   3971   3970   3979   3980     1  0.0000000  0.6508444  3
   3971   3970   3979   3981     1  0.0000000  0.6508444  3
   3972   3970   3979   3988     1  0.0000000  1.0460000  1
   3972   3970   3979   3988     1  0.0000000  0.0000000  3
   3972   3970   3979   3980     1  0.0000000  0.6508444  3
   3972   3970   3979   3981     1  0.0000000  0.6508444  3
   3973   3961   3960   3989     1  0.0000000  0.6508444  3
   3974   3973   3985   7929     1  0.0000000  1.0460000  1
   3974   3973   3985   7929     1  0.0000000  0.0000000  3
   3974   3973   3985   3986     1  0.0000000  0.6508444  3
   3974   3973   3985   3987     1  0.0000000  0.6508444  3
   3975   3973   3985   7929     1  0.0000000  1.0460000  1
   3975   3973   3985   7929     1  0.0000000  0.0000000  3
   3975   3973   3985   3986     1  0.0000000  0.6508444  3
   3975   3973   3985   3987     1  0.0000000  0.6508444  3
   3976   3964   3960   3989     1  0.0000000  0.6508444  3
   3977   3976   3982   7906     1  0.0000000  1.0460000  1
   3977   3976   3982   7906     1  0.0000000  0.0000000  3
   3977   3976   3982   3983     1  0.0000000  0.6508444  3
   3977   3976   3982   3984     1  0.0000000  0.6508444  3
   3978   3976   3982   7906     1  0.0000000  1.0460000  1
   3978   3976   3982   7906     1  0.0000000  0.0000000  3
   3978   3976   3982   3983     1  0.0000000  0.6508444  3
   3978   3976   3982   3984     1  0.0000000  0.6508444  3
   3982   7906   7902   7905     1  0.0000000  1.6038667  3
   3983   3982   7906   7902     1  0.0000000  1.6038667  3
   3984   3982   7906   7902     1  0.0000000  1.6038667  3
   3985   7929   7925   7928     1  0.0000000  1.6038667  3
   3986   3985   7929   7925     1  0.0000000  1.6038667  3
   3987   3985   7929   7925     1  0.0000000  1.6038667  3
   3990   3991   4003   4004     1  0.0000000  0.6508444  3
   3990   3991   4003   4005     1  0.0000000  0.6508444  3
   3990   3994   4006   4007     1  0.0000000  0.6508444  3
   3990   3994   4006   4008     1  0.0000000  0.6508444  3
   3990   3997   4000   4001     1  0.0000000  0.6508444  3
   3990   3997   4000   4002     1  0.0000000  0.6508444  3
   3991   3990   3994   3995     1  0.0000000  0.6508444  3
   3991   3990   3994   3996     1  0.0000000  0.6508444  3
   3991   3990   3997   3998     1  0.0000000  0.6508444  3
   3991   3990   3997   3999     1  0.0000000  0.6508444  3
   3991   4003   4015   4016     1  0.0000000  0.6508444  3
   3991   4003   4015   4017     1  0.0000000  0.6508444  3
   3992   3991   3990   3994     1  0.0000000  0.6508444  3
   3992   3991   3990   3997     1  0.0000000  0.6508444  3
   3992   3991   3990   4019     1  0.0000000  0.6508444  3
   3992   3991   4003   4015     1  0.0000000  0.6508444  3
   3992   3991   4003   4004     1  0.0000000  0.6508444  3
   3992   3991   4003   4005     1  0.0000000  0.6508444  3
   3993   3991   3990   3994     1  0.0000000  0.6508444  3
   3993   3991   3990   3997     1  0.0000000  0.6508444  3
   3993   3991   3990   4019     1  0.0000000  0.6508444  3
   3993   3991   4003   4015     1  0.0000000  0.6508444  3
   3993   3991   4003   4004     1  0.0000000  0.6508444  3
   3993   3991   4003   4005     1  0.0000000  0.6508444  3
   3994   3990   3997   3998     1  0.0000000  0.6508444  3
   3994   3990   3997   3999     1  0.0000000  0.6508444  3
   3994   4006   4012   4013     1  0.0000000  0.6508444  3
   3994   4006   4012   4014     1  0.0000000  0.6508444  3
   3995   3994   3990   3997     1  0.0000000  0.6508444  3
   3995   3994   3990   4019     1  0.0000000  0.6508444  3
   3995   3994   4006   4012     1  0.0000000  0.6508444  3
   3995   3994   4006   4007     1  0.0000000  0.6508444  3
   3995   3994   4006   4008     1  0.0000000  0.6508444  3
   3996   3994   3990   3997     1  0.0000000  0.6508444  3
   3996   3994   3990   4019     1  0.0000000  0.6508444  3
   3996   3994   4006   4012     1  0.0000000  0.6508444  3
   3996   3994   4006   4007     1  0.0000000  0.6508444  3
   3996   3994   4006   4008     1  0.0000000  0.6508444  3
   3997   4000   4009   4010     1  0.0000000  0.6508444  3
   3997   4000   4009   4011     1  0.0000000  0.6508444  3
   3998   3997   3990   4019     1  0.0000000  0.6508444  3
   3998   3997   4000   4009     1  0.0000000  0.6508444  3
   3998   3997   4000   4001     1  0.0000000  0.6508444  3
   3998   3997   4000   4002     1  0.0000000  0.6508444  3
   3999   3997   3990   4019     1  0.0000000  0.6508444  3
   3999   3997   4000   4009     1  0.0000000  0.6508444  3
   3999   3997   4000   4001     1  0.0000000  0.6508444  3
   3999   3997   4000   4002     1  0.0000000  0.6508444  3
   4000   3997   3990   4019     1  0.0000000  0.6508444  3
   4001   4000   4009   4018     1  0.0000000  1.0460000  1
   4001   4000   4009   4018     1  0.0000000  0.0000000  3
   4001   4000   4009   4010     1  0.0000000  0.6508444  3
   4001   4000   4009   4011     1  0.0000000  0.6508444  3
   4002   4000   4009   4018     1  0.0000000  1.0460000  1
   4002   4000   4009   4018     1  0.0000000  0.0000000  3
   4002   4000   4009   4010     1  0.0000000  0.6508444  3
   4002   4000   4009   4011     1  0.0000000  0.6508444  3
   4003   3991   3990   4019     1  0.0000000  0.6508444  3
   4004   4003   4015   7975     1  0.0000000  1.0460000  1
   4004   4003   4015   7975     1  0.0000000  0.0000000  3
   4004   4003   4015   4016     1  0.0000000  0.6508444  3
   4004   4003   4015   4017     1  0.0000000  0.6508444  3
   4005   4003   4015   7975     1  0.0000000  1.0460000  1
   4005   4003   4015   7975     1  0.0000000  0.0000000  3
   4005   4003   4015   4016     1  0.0000000  0.6508444  3
   4005   4003   4015   4017     1  0.0000000  0.6508444  3
   4006   3994   3990   4019     1  0.0000000  0.6508444  3
   4007   4006   4012   7952     1  0.0000000  1.0460000  1
   4007   4006   4012   7952     1  0.0000000  0.0000000  3
   4007   4006   4012   4013     1  0.0000000  0.6508444  3
   4007   4006   4012   4014     1  0.0000000  0.6508444  3
   4008   4006   4012   7952     1  0.0000000  1.0460000  1
   4008   4006   4012   7952     1  0.0000000  0.0000000  3
   4008   4006   4012   4013     1  0.0000000  0.6508444  3
   4008   4006   4012   4014     1  0.0000000  0.6508444  3
   4012   7952   7948   7951     1  0.0000000  1.6038667  3
   4013   4012   7952   7948     1  0.0000000  1.6038667  3
   4014   4012   7952   7948     1  0.0000000  1.6038667  3
   4015   7975   7971   7974     1  0.0000000  1.6038667  3
   4016   4015   7975   7971     1  0.0000000  1.6038667  3
   4017   4015   7975   7971     1  0.0000000  1.6038667  3
   4020   4021   4033   4034     1  0.0000000  0.6508444  3
   4020   4021   4033   4035     1  0.0000000  0.6508444  3
   4020   4024   4036   4037     1  0.0000000  0.6508444  3
   4020   4024   4036   4038     1  0.0000000  0.6508444  3
   4020   4027   4030   4031     1  0.0000000  0.6508444  3
   4020   4027   4030   4032     1  0.0000000  0.6508444  3
   4021   4020   4024   4025     1  0.0000000  0.6508444  3
   4021   4020   4024   4026     1  0.0000000  0.6508444  3
   4021   4020   4027   4028     1  0.0000000  0.6508444  3
   4021   4020   4027   4029     1  0.0000000  0.6508444  3
   4021   4033   4045   4046     1  0.0000000  0.6508444  3
   4021   4033   4045   4047     1  0.0000000  0.6508444  3
   4022   4021   4020   4024     1  0.0000000  0.6508444  3
   4022   4021   4020   4027     1  0.0000000  0.6508444  3
   4022   4021   4020   4049     1  0.0000000  0.6508444  3
   4022   4021   4033   4045     1  0.0000000  0.6508444  3
   4022   4021   4033   4034     1  0.0000000  0.6508444  3
   4022   4021   4033   4035     1  0.0000000  0.6508444  3
   4023   4021   4020   4024     1  0.0000000  0.6508444  3
   4023   4021   4020   4027     1  0.0000000  0.6508444  3
   4023   4021   4020   4049     1  0.0000000  0.6508444  3
   4023   4021   4033   4045     1  0.0000000  0.6508444  3
   4023   4021   4033   4034     1  0.0000000  0.6508444  3
   4023   4021   4033   4035     1  0.0000000  0.6508444  3
   4024   4020   4027   4028     1  0.0000000  0.6508444  3
   4024   4020   4027   4029     1  0.0000000  0.6508444  3
   4024   4036   4042   4043     1  0.0000000  0.6508444  3
   4024   4036   4042   4044     1  0.0000000  0.6508444  3
   4025   4024   4020   4027     1  0.0000000  0.6508444  3
   4025   4024   4020   4049     1  0.0000000  0.6508444  3
   4025   4024   4036   4042     1  0.0000000  0.6508444  3
   4025   4024   4036   4037     1  0.0000000  0.6508444  3
   4025   4024   4036   4038     1  0.0000000  0.6508444  3
   4026   4024   4020   4027     1  0.0000000  0.6508444  3
   4026   4024   4020   4049     1  0.0000000  0.6508444  3
   4026   4024   4036   4042     1  0.0000000  0.6508444  3
   4026   4024   4036   4037     1  0.0000000  0.6508444  3
   4026   4024   4036   4038     1  0.0000000  0.6508444  3
   4027   4030   4039   4040     1  0.0000000  0.6508444  3
   4027   4030   4039   4041     1  0.0000000  0.6508444  3
   4028   4027   4020   4049     1  0.0000000  0.6508444  3
   4028   4027   4030   4039     1  0.0000000  0.6508444  3
   4028   4027   4030   4031     1  0.0000000  0.6508444  3
   4028   4027   4030   4032     1  0.0000000  0.6508444  3
   4029   4027   4020   4049     1  0.0000000  0.6508444  3
   4029   4027   4030   4039     1  0.0000000  0.6508444  3
   4029   4027   4030   4031     1  0.0000000  0.6508444  3
   4029   4027   4030   4032     1  0.0000000  0.6508444  3
   4030   4027   4020   4049     1  0.0000000  0.6508444  3
   4031   4030   4039   4048     1  0.0000000  1.0460000  1
   4031   4030   4039   4048     1  0.0000000  0.0000000  3
   4031   4030   4039   4040     1  0.0000000  0.6508444  3
   4031   4030   4039   4041     1  0.0000000  0.6508444  3
   4032   4030   4039   4048     1  0.0000000  1.0460000  1
   4032   4030   4039   4048     1  0.0000000  0.0000000  3
   4032   4030   4039   4040     1  0.0000000  0.6508444  3
   4032   4030   4039   4041     1  0.0000000  0.6508444  3
   4033   4021   4020   4049     1  0.0000000  0.6508444  3
   4034   4033   4045   8021     1  0.0000000  1.0460000  1
   4034   4033   4045   8021     1  0.0000000  0.0000000  3
   4034   4033   4045   4046     1  0.0000000  0.6508444  3
   4034   4033   4045   4047     1  0.0000000  0.6508444  3
   4035   4033   4045   8021     1  0.0000000  1.0460000  1
   4035   4033   4045   8021     1  0.0000000  0.0000000  3
   4035   4033   4045   4046     1  0.0000000  0.6508444  3
   4035   4033   4045   4047     1  0.0000000  0.6508444  3
   4036   4024   4020   4049     1  0.0000000  0.6508444  3
   4037   4036   4042   7998     1  0.0000000  1.0460000  1
   4037   4036   4042   7998     1  0.0000000  0.0000000  3
   4037   4036   4042   4043     1  0.0000000  0.6508444  3
   4037   4036   4042   4044     1  0.0000000  0.6508444  3
   4038   4036   4042   7998     1  0.0000000  1.0460000  1
   4038   4036   4042   7998     1  0.0000000  0.0000000  3
   4038   4036   4042   4043     1  0.0000000  0.6508444  3
   4038   4036   4042   4044     1  0.0000000  0.6508444  3
   4042   7998   7994   7997     1  0.0000000  1.6038667  3
   4043   4042   7998   7994     1  0.0000000  1.6038667  3
   4044   4042   7998   7994     1  0.0000000  1.6038667  3
   4045   8021   8017   8020     1  0.0000000  1.6038667  3
   4046   4045   8021   8017     1  0.0000000  1.6038667  3
   4047   4045   8021   8017     1  0.0000000  1.6038667  3
   4050   4051   4063   4064     1  0.0000000  0.6508444  3
   4050   4051   4063   4065     1  0.0000000  0.6508444  3
   4050   4054   4066   4067     1  0.0000000  0.6508444  3
   4050   4054   4066   4068     1  0.0000000  0.6508444  3
   4050   4057   4060   4061     1  0.0000000  0.6508444  3
   4050   4057   4060   4062     1  0.0000000  0.6508444  3
   4051   4050   4054   4055     1  0.0000000  0.6508444  3
   4051   4050   4054   4056     1  0.0000000  0.6508444  3
   4051   4050   4057   4058     1  0.0000000  0.6508444  3
   4051   4050   4057   4059     1  0.0000000  0.6508444  3
   4051   4063   4075   4076     1  0.0000000  0.6508444  3
   4051   4063   4075   4077     1  0.0000000  0.6508444  3
   4052   4051   4050   4054     1  0.0000000  0.6508444  3
   4052   4051   4050   4057     1  0.0000000  0.6508444  3
   4052   4051   4050   4079     1  0.0000000  0.6508444  3
   4052   4051   4063   4075     1  0.0000000  0.6508444  3
   4052   4051   4063   4064     1  0.0000000  0.6508444  3
   4052   4051   4063   4065     1  0.0000000  0.6508444  3
   4053   4051   4050   4054     1  0.0000000  0.6508444  3
   4053   4051   4050   4057     1  0.0000000  0.6508444  3
   4053   4051   4050   4079     1  0.0000000  0.6508444  3
   4053   4051   4063   4075     1  0.0000000  0.6508444  3
   4053   4051   4063   4064     1  0.0000000  0.6508444  3
   4053   4051   4063   4065     1  0.0000000  0.6508444  3
   4054   4050   4057   4058     1  0.0000000  0.6508444  3
   4054   4050   4057   4059     1  0.0000000  0.6508444  3
   4054   4066   4072   4073     1  0.0000000  0.6508444  3
   4054   4066   4072   4074     1  0.0000000  0.6508444  3
   4055   4054   4050   4057     1  0.0000000  0.6508444  3
   4055   4054   4050   4079     1  0.0000000  0.6508444  3
   4055   4054   4066   4072     1  0.0000000  0.6508444  3
   4055   4054   4066   4067     1  0.0000000  0.6508444  3
   4055   4054   4066   4068     1  0.0000000  0.6508444  3
   4056   4054   4050   4057     1  0.0000000  0.6508444  3
   4056   4054   4050   4079     1  0.0000000  0.6508444  3
   4056   4054   4066   4072     1  0.0000000  0.6508444  3
   4056   4054   4066   4067     1  0.0000000  0.6508444  3
   4056   4054   4066   4068     1  0.0000000  0.6508444  3
   4057   4060   4069   4070     1  0.0000000  0.6508444  3
   4057   4060   4069   4071     1  0.0000000  0.6508444  3
   4058   4057   4050   4079     1  0.0000000  0.6508444  3
   4058   4057   4060   4069     1  0.0000000  0.6508444  3
   4058   4057   4060   4061     1  0.0000000  0.6508444  3
   4058   4057   4060   4062     1  0.0000000  0.6508444  3
   4059   4057   4050   4079     1  0.0000000  0.6508444  3
   4059   4057   4060   4069     1  0.0000000  0.6508444  3
   4059   4057   4060   4061     1  0.0000000  0.6508444  3
   4059   4057   4060   4062     1  0.0000000  0.6508444  3
   4060   4057   4050   4079     1  0.0000000  0.6508444  3
   4061   4060   4069   4078     1  0.0000000  1.0460000  1
   4061   4060   4069   4078     1  0.0000000  0.0000000  3
   4061   4060   4069   4070     1  0.0000000  0.6508444  3
   4061   4060   4069   4071     1  0.0000000  0.6508444  3
   4062   4060   4069   4078     1  0.0000000  1.0460000  1
   4062   4060   4069   4078     1  0.0000000  0.0000000  3
   4062   4060   4069   4070     1  0.0000000  0.6508444  3
   4062   4060   4069   4071     1  0.0000000  0.6508444  3
   4063   4051   4050   4079     1  0.0000000  0.6508444  3
   4064   4063   4075   8067     1  0.0000000  1.0460000  1
   4064   4063   4075   8067     1  0.0000000  0.0000000  3
   4064   4063   4075   4076     1  0.0000000  0.6508444  3
   4064   4063   4075   4077     1  0.0000000  0.6508444  3
   4065   4063   4075   8067     1  0.0000000  1.0460000  1
   4065   4063   4075   8067     1  0.0000000  0.0000000  3
   4065   4063   4075   4076     1  0.0000000  0.6508444  3
   4065   4063   4075   4077     1  0.0000000  0.6508444  3
   4066   4054   4050   4079     1  0.0000000  0.6508444  3
   4067   4066   4072   8044     1  0.0000000  1.0460000  1
   4067   4066   4072   8044     1  0.0000000  0.0000000  3
   4067   4066   4072   4073     1  0.0000000  0.6508444  3
   4067   4066   4072   4074     1  0.0000000  0.6508444  3
   4068   4066   4072   8044     1  0.0000000  1.0460000  1
   4068   4066   4072   8044     1  0.0000000  0.0000000  3
   4068   4066   4072   4073     1  0.0000000  0.6508444  3
   4068   4066   4072   4074     1  0.0000000  0.6508444  3
   4072   8044   8040   8043     1  0.0000000  1.6038667  3
   4073   4072   8044   8040     1  0.0000000  1.6038667  3
   4074   4072   8044   8040     1  0.0000000  1.6038667  3
   4075   8067   8063   8066     1  0.0000000  1.6038667  3
   4076   4075   8067   8063     1  0.0000000  1.6038667  3
   4077   4075   8067   8063     1  0.0000000  1.6038667  3
   4080   4081   4093   4094     1  0.0000000  0.6508444  3
   4080   4081   4093   4095     1  0.0000000  0.6508444  3
   4080   4084   4096   4097     1  0.0000000  0.6508444  3
   4080   4084   4096   4098     1  0.0000000  0.6508444  3
   4080   4087   4090   4091     1  0.0000000  0.6508444  3
   4080   4087   4090   4092     1  0.0000000  0.6508444  3
   4081   4080   4084   4085     1  0.0000000  0.6508444  3
   4081   4080   4084   4086     1  0.0000000  0.6508444  3
   4081   4080   4087   4088     1  0.0000000  0.6508444  3
   4081   4080   4087   4089     1  0.0000000  0.6508444  3
   4081   4093   4105   4106     1  0.0000000  0.6508444  3
   4081   4093   4105   4107     1  0.0000000  0.6508444  3
   4082   4081   4080   4084     1  0.0000000  0.6508444  3
   4082   4081   4080   4087     1  0.0000000  0.6508444  3
   4082   4081   4080   4109     1  0.0000000  0.6508444  3
   4082   4081   4093   4105     1  0.0000000  0.6508444  3
   4082   4081   4093   4094     1  0.0000000  0.6508444  3
   4082   4081   4093   4095     1  0.0000000  0.6508444  3
   4083   4081   4080   4084     1  0.0000000  0.6508444  3
   4083   4081   4080   4087     1  0.0000000  0.6508444  3
   4083   4081   4080   4109     1  0.0000000  0.6508444  3
   4083   4081   4093   4105     1  0.0000000  0.6508444  3
   4083   4081   4093   4094     1  0.0000000  0.6508444  3
   4083   4081   4093   4095     1  0.0000000  0.6508444  3
   4084   4080   4087   4088     1  0.0000000  0.6508444  3
   4084   4080   4087   4089     1  0.0000000  0.6508444  3
   4084   4096   4102   4103     1  0.0000000  0.6508444  3
   4084   4096   4102   4104     1  0.0000000  0.6508444  3
   4085   4084   4080   4087     1  0.0000000  0.6508444  3
   4085   4084   4080   4109     1  0.0000000  0.6508444  3
   4085   4084   4096   4102     1  0.0000000  0.6508444  3
   4085   4084   4096   4097     1  0.0000000  0.6508444  3
   4085   4084   4096   4098     1  0.0000000  0.6508444  3
   4086   4084   4080   4087     1  0.0000000  0.6508444  3
   4086   4084   4080   4109     1  0.0000000  0.6508444  3
   4086   4084   4096   4102     1  0.0000000  0.6508444  3
   4086   4084   4096   4097     1  0.0000000  0.6508444  3
   4086   4084   4096   4098     1  0.0000000  0.6508444  3
   4087   4090   4099   4100     1  0.0000000  0.6508444  3
   4087   4090   4099   4101     1  0.0000000  0.6508444  3
   4088   4087   4080   4109     1  0.0000000  0.6508444  3
   4088   4087   4090   4099     1  0.0000000  0.6508444  3
   4088   4087   4090   4091     1  0.0000000  0.6508444  3
   4088   4087   4090   4092     1  0.0000000  0.6508444  3
   4089   4087   4080   4109     1  0.0000000  0.6508444  3
   4089   4087   4090   4099     1  0.0000000  0.6508444  3
   4089   4087   4090   4091     1  0.0000000  0.6508444  3
   4089   4087   4090   4092     1  0.0000000  0.6508444  3
   4090   4087   4080   4109     1  0.0000000  0.6508444  3
   4091   4090   4099   4108     1  0.0000000  1.0460000  1
   4091   4090   4099   4108     1  0.0000000  0.0000000  3
   4091   4090   4099   4100     1  0.0000000  0.6508444  3
   4091   4090   4099   4101     1  0.0000000  0.6508444  3
   4092   4090   4099   4108     1  0.0000000  1.0460000  1
   4092   4090   4099   4108     1  0.0000000  0.0000000  3
   4092   4090   4099   4100     1  0.0000000  0.6508444  3
   4092   4090   4099   4101     1  0.0000000  0.6508444  3
   4093   4081   4080   4109     1  0.0000000  0.6508444  3
   4094   4093   4105   8113     1  0.0000000  1.0460000  1
   4094   4093   4105   8113     1  0.0000000  0.0000000  3
   4094   4093   4105   4106     1  0.0000000  0.6508444  3
   4094   4093   4105   4107     1  0.0000000  0.6508444  3
   4095   4093   4105   8113     1  0.0000000  1.0460000  1
   4095   4093   4105   8113     1  0.0000000  0.0000000  3
   4095   4093   4105   4106     1  0.0000000  0.6508444  3
   4095   4093   4105   4107     1  0.0000000  0.6508444  3
   4096   4084   4080   4109     1  0.0000000  0.6508444  3
   4097   4096   4102   8090     1  0.0000000  1.0460000  1
   4097   4096   4102   8090     1  0.0000000  0.0000000  3
   4097   4096   4102   4103     1  0.0000000  0.6508444  3
   4097   4096   4102   4104     1  0.0000000  0.6508444  3
   4098   4096   4102   8090     1  0.0000000  1.0460000  1
   4098   4096   4102   8090     1  0.0000000  0.0000000  3
   4098   4096   4102   4103     1  0.0000000  0.6508444  3
   4098   4096   4102   4104     1  0.0000000  0.6508444  3
   4102   8090   8086   8089     1  0.0000000  1.6038667  3
   4103   4102   8090   8086     1  0.0000000  1.6038667  3
   4104   4102   8090   8086     1  0.0000000  1.6038667  3
   4105   8113   8109   8112     1  0.0000000  1.6038667  3
   4106   4105   8113   8109     1  0.0000000  1.6038667  3
   4107   4105   8113   8109     1  0.0000000  1.6038667  3
   4110   4111   4123   4124     1  0.0000000  0.6508444  3
   4110   4111   4123   4125     1  0.0000000  0.6508444  3
   4110   4114   4126   4127     1  0.0000000  0.6508444  3
   4110   4114   4126   4128     1  0.0000000  0.6508444  3
   4110   4117   4120   4121     1  0.0000000  0.6508444  3
   4110   4117   4120   4122     1  0.0000000  0.6508444  3
   4111   4110   4114   4115     1  0.0000000  0.6508444  3
   4111   4110   4114   4116     1  0.0000000  0.6508444  3
   4111   4110   4117   4118     1  0.0000000  0.6508444  3
   4111   4110   4117   4119     1  0.0000000  0.6508444  3
   4111   4123   4135   4136     1  0.0000000  0.6508444  3
   4111   4123   4135   4137     1  0.0000000  0.6508444  3
   4112   4111   4110   4114     1  0.0000000  0.6508444  3
   4112   4111   4110   4117     1  0.0000000  0.6508444  3
   4112   4111   4110   4139     1  0.0000000  0.6508444  3
   4112   4111   4123   4135     1  0.0000000  0.6508444  3
   4112   4111   4123   4124     1  0.0000000  0.6508444  3
   4112   4111   4123   4125     1  0.0000000  0.6508444  3
   4113   4111   4110   4114     1  0.0000000  0.6508444  3
   4113   4111   4110   4117     1  0.0000000  0.6508444  3
   4113   4111   4110   4139     1  0.0000000  0.6508444  3
   4113   4111   4123   4135     1  0.0000000  0.6508444  3
   4113   4111   4123   4124     1  0.0000000  0.6508444  3
   4113   4111   4123   4125     1  0.0000000  0.6508444  3
   4114   4110   4117   4118     1  0.0000000  0.6508444  3
   4114   4110   4117   4119     1  0.0000000  0.6508444  3
   4114   4126   4132   4133     1  0.0000000  0.6508444  3
   4114   4126   4132   4134     1  0.0000000  0.6508444  3
   4115   4114   4110   4117     1  0.0000000  0.6508444  3
   4115   4114   4110   4139     1  0.0000000  0.6508444  3
   4115   4114   4126   4132     1  0.0000000  0.6508444  3
   4115   4114   4126   4127     1  0.0000000  0.6508444  3
   4115   4114   4126   4128     1  0.0000000  0.6508444  3
   4116   4114   4110   4117     1  0.0000000  0.6508444  3
   4116   4114   4110   4139     1  0.0000000  0.6508444  3
   4116   4114   4126   4132     1  0.0000000  0.6508444  3
   4116   4114   4126   4127     1  0.0000000  0.6508444  3
   4116   4114   4126   4128     1  0.0000000  0.6508444  3
   4117   4120   4129   4130     1  0.0000000  0.6508444  3
   4117   4120   4129   4131     1  0.0000000  0.6508444  3
   4118   4117   4110   4139     1  0.0000000  0.6508444  3
   4118   4117   4120   4129     1  0.0000000  0.6508444  3
   4118   4117   4120   4121     1  0.0000000  0.6508444  3
   4118   4117   4120   4122     1  0.0000000  0.6508444  3
   4119   4117   4110   4139     1  0.0000000  0.6508444  3
   4119   4117   4120   4129     1  0.0000000  0.6508444  3
   4119   4117   4120   4121     1  0.0000000  0.6508444  3
   4119   4117   4120   4122     1  0.0000000  0.6508444  3
   4120   4117   4110   4139     1  0.0000000  0.6508444  3
   4121   4120   4129   4138     1  0.0000000  1.0460000  1
   4121   4120   4129   4138     1  0.0000000  0.0000000  3
   4121   4120   4129   4130     1  0.0000000  0.6508444  3
   4121   4120   4129   4131     1  0.0000000  0.6508444  3
   4122   4120   4129   4138     1  0.0000000  1.0460000  1
   4122   4120   4129   4138     1  0.0000000  0.0000000  3
   4122   4120   4129   4130     1  0.0000000  0.6508444  3
   4122   4120   4129   4131     1  0.0000000  0.6508444  3
   4123   4111   4110   4139     1  0.0000000  0.6508444  3
   4124   4123   4135   8159     1  0.0000000  1.0460000  1
   4124   4123   4135   8159     1  0.0000000  0.0000000  3
   4124   4123   4135   4136     1  0.0000000  0.6508444  3
   4124   4123   4135   4137     1  0.0000000  0.6508444  3
   4125   4123   4135   8159     1  0.0000000  1.0460000  1
   4125   4123   4135   8159     1  0.0000000  0.0000000  3
   4125   4123   4135   4136     1  0.0000000  0.6508444  3
   4125   4123   4135   4137     1  0.0000000  0.6508444  3
   4126   4114   4110   4139     1  0.0000000  0.6508444  3
   4127   4126   4132   8136     1  0.0000000  1.0460000  1
   4127   4126   4132   8136     1  0.0000000  0.0000000  3
   4127   4126   4132   4133     1  0.0000000  0.6508444  3
   4127   4126   4132   4134     1  0.0000000  0.6508444  3
   4128   4126   4132   8136     1  0.0000000  1.0460000  1
   4128   4126   4132   8136     1  0.0000000  0.0000000  3
   4128   4126   4132   4133     1  0.0000000  0.6508444  3
   4128   4126   4132   4134     1  0.0000000  0.6508444  3
   4132   8136   8132   8135     1  0.0000000  1.6038667  3
   4133   4132   8136   8132     1  0.0000000  1.6038667  3
   4134   4132   8136   8132     1  0.0000000  1.6038667  3
   4135   8159   8155   8158     1  0.0000000  1.6038667  3
   4136   4135   8159   8155     1  0.0000000  1.6038667  3
   4137   4135   8159   8155     1  0.0000000  1.6038667  3
   4140   4141   4153   4154     1  0.0000000  0.6508444  3
   4140   4141   4153   4155     1  0.0000000  0.6508444  3
   4140   4144   4156   4157     1  0.0000000  0.6508444  3
   4140   4144   4156   4158     1  0.0000000  0.6508444  3
   4140   4147   4150   4151     1  0.0000000  0.6508444  3
   4140   4147   4150   4152     1  0.0000000  0.6508444  3
   4141   4140   4144   4145     1  0.0000000  0.6508444  3
   4141   4140   4144   4146     1  0.0000000  0.6508444  3
   4141   4140   4147   4148     1  0.0000000  0.6508444  3
   4141   4140   4147   4149     1  0.0000000  0.6508444  3
   4141   4153   4165   4166     1  0.0000000  0.6508444  3
   4141   4153   4165   4167     1  0.0000000  0.6508444  3
   4142   4141   4140   4144     1  0.0000000  0.6508444  3
   4142   4141   4140   4147     1  0.0000000  0.6508444  3
   4142   4141   4140   4169     1  0.0000000  0.6508444  3
   4142   4141   4153   4165     1  0.0000000  0.6508444  3
   4142   4141   4153   4154     1  0.0000000  0.6508444  3
   4142   4141   4153   4155     1  0.0000000  0.6508444  3
   4143   4141   4140   4144     1  0.0000000  0.6508444  3
   4143   4141   4140   4147     1  0.0000000  0.6508444  3
   4143   4141   4140   4169     1  0.0000000  0.6508444  3
   4143   4141   4153   4165     1  0.0000000  0.6508444  3
   4143   4141   4153   4154     1  0.0000000  0.6508444  3
   4143   4141   4153   4155     1  0.0000000  0.6508444  3
   4144   4140   4147   4148     1  0.0000000  0.6508444  3
   4144   4140   4147   4149     1  0.0000000  0.6508444  3
   4144   4156   4162   4163     1  0.0000000  0.6508444  3
   4144   4156   4162   4164     1  0.0000000  0.6508444  3
   4145   4144   4140   4147     1  0.0000000  0.6508444  3
   4145   4144   4140   4169     1  0.0000000  0.6508444  3
   4145   4144   4156   4162     1  0.0000000  0.6508444  3
   4145   4144   4156   4157     1  0.0000000  0.6508444  3
   4145   4144   4156   4158     1  0.0000000  0.6508444  3
   4146   4144   4140   4147     1  0.0000000  0.6508444  3
   4146   4144   4140   4169     1  0.0000000  0.6508444  3
   4146   4144   4156   4162     1  0.0000000  0.6508444  3
   4146   4144   4156   4157     1  0.0000000  0.6508444  3
   4146   4144   4156   4158     1  0.0000000  0.6508444  3
   4147   4150   4159   4160     1  0.0000000  0.6508444  3
   4147   4150   4159   4161     1  0.0000000  0.6508444  3
   4148   4147   4140   4169     1  0.0000000  0.6508444  3
   4148   4147   4150   4159     1  0.0000000  0.6508444  3
   4148   4147   4150   4151     1  0.0000000  0.6508444  3
   4148   4147   4150   4152     1  0.0000000  0.6508444  3
   4149   4147   4140   4169     1  0.0000000  0.6508444  3
   4149   4147   4150   4159     1  0.0000000  0.6508444  3
   4149   4147   4150   4151     1  0.0000000  0.6508444  3
   4149   4147   4150   4152     1  0.0000000  0.6508444  3
   4150   4147   4140   4169     1  0.0000000  0.6508444  3
   4151   4150   4159   4168     1  0.0000000  1.0460000  1
   4151   4150   4159   4168     1  0.0000000  0.0000000  3
   4151   4150   4159   4160     1  0.0000000  0.6508444  3
   4151   4150   4159   4161     1  0.0000000  0.6508444  3
   4152   4150   4159   4168     1  0.0000000  1.0460000  1
   4152   4150   4159   4168     1  0.0000000  0.0000000  3
   4152   4150   4159   4160     1  0.0000000  0.6508444  3
   4152   4150   4159   4161     1  0.0000000  0.6508444  3
   4153   4141   4140   4169     1  0.0000000  0.6508444  3
   4154   4153   4165   8205     1  0.0000000  1.0460000  1
   4154   4153   4165   8205     1  0.0000000  0.0000000  3
   4154   4153   4165   4166     1  0.0000000  0.6508444  3
   4154   4153   4165   4167     1  0.0000000  0.6508444  3
   4155   4153   4165   8205     1  0.0000000  1.0460000  1
   4155   4153   4165   8205     1  0.0000000  0.0000000  3
   4155   4153   4165   4166     1  0.0000000  0.6508444  3
   4155   4153   4165   4167     1  0.0000000  0.6508444  3
   4156   4144   4140   4169     1  0.0000000  0.6508444  3
   4157   4156   4162   8182     1  0.0000000  1.0460000  1
   4157   4156   4162   8182     1  0.0000000  0.0000000  3
   4157   4156   4162   4163     1  0.0000000  0.6508444  3
   4157   4156   4162   4164     1  0.0000000  0.6508444  3
   4158   4156   4162   8182     1  0.0000000  1.0460000  1
   4158   4156   4162   8182     1  0.0000000  0.0000000  3
   4158   4156   4162   4163     1  0.0000000  0.6508444  3
   4158   4156   4162   4164     1  0.0000000  0.6508444  3
   4162   8182   8178   8181     1  0.0000000  1.6038667  3
   4163   4162   8182   8178     1  0.0000000  1.6038667  3
   4164   4162   8182   8178     1  0.0000000  1.6038667  3
   4165   8205   8201   8204     1  0.0000000  1.6038667  3
   4166   4165   8205   8201     1  0.0000000  1.6038667  3
   4167   4165   8205   8201     1  0.0000000  1.6038667  3
   4170   4171   4183   4184     1  0.0000000  0.6508444  3
   4170   4171   4183   4185     1  0.0000000  0.6508444  3
   4170   4174   4186   4187     1  0.0000000  0.6508444  3
   4170   4174   4186   4188     1  0.0000000  0.6508444  3
   4170   4177   4180   4181     1  0.0000000  0.6508444  3
   4170   4177   4180   4182     1  0.0000000  0.6508444  3
   4171   4170   4174   4175     1  0.0000000  0.6508444  3
   4171   4170   4174   4176     1  0.0000000  0.6508444  3
   4171   4170   4177   4178     1  0.0000000  0.6508444  3
   4171   4170   4177   4179     1  0.0000000  0.6508444  3
   4171   4183   4195   4196     1  0.0000000  0.6508444  3
   4171   4183   4195   4197     1  0.0000000  0.6508444  3
   4172   4171   4170   4174     1  0.0000000  0.6508444  3
   4172   4171   4170   4177     1  0.0000000  0.6508444  3
   4172   4171   4170   4199     1  0.0000000  0.6508444  3
   4172   4171   4183   4195     1  0.0000000  0.6508444  3
   4172   4171   4183   4184     1  0.0000000  0.6508444  3
   4172   4171   4183   4185     1  0.0000000  0.6508444  3
   4173   4171   4170   4174     1  0.0000000  0.6508444  3
   4173   4171   4170   4177     1  0.0000000  0.6508444  3
   4173   4171   4170   4199     1  0.0000000  0.6508444  3
   4173   4171   4183   4195     1  0.0000000  0.6508444  3
   4173   4171   4183   4184     1  0.0000000  0.6508444  3
   4173   4171   4183   4185     1  0.0000000  0.6508444  3
   4174   4170   4177   4178     1  0.0000000  0.6508444  3
   4174   4170   4177   4179     1  0.0000000  0.6508444  3
   4174   4186   4192   4193     1  0.0000000  0.6508444  3
   4174   4186   4192   4194     1  0.0000000  0.6508444  3
   4175   4174   4170   4177     1  0.0000000  0.6508444  3
   4175   4174   4170   4199     1  0.0000000  0.6508444  3
   4175   4174   4186   4192     1  0.0000000  0.6508444  3
   4175   4174   4186   4187     1  0.0000000  0.6508444  3
   4175   4174   4186   4188     1  0.0000000  0.6508444  3
   4176   4174   4170   4177     1  0.0000000  0.6508444  3
   4176   4174   4170   4199     1  0.0000000  0.6508444  3
   4176   4174   4186   4192     1  0.0000000  0.6508444  3
   4176   4174   4186   4187     1  0.0000000  0.6508444  3
   4176   4174   4186   4188     1  0.0000000  0.6508444  3
   4177   4180   4189   4190     1  0.0000000  0.6508444  3
   4177   4180   4189   4191     1  0.0000000  0.6508444  3
   4178   4177   4170   4199     1  0.0000000  0.6508444  3
   4178   4177   4180   4189     1  0.0000000  0.6508444  3
   4178   4177   4180   4181     1  0.0000000  0.6508444  3
   4178   4177   4180   4182     1  0.0000000  0.6508444  3
   4179   4177   4170   4199     1  0.0000000  0.6508444  3
   4179   4177   4180   4189     1  0.0000000  0.6508444  3
   4179   4177   4180   4181     1  0.0000000  0.6508444  3
   4179   4177   4180   4182     1  0.0000000  0.6508444  3
   4180   4177   4170   4199     1  0.0000000  0.6508444  3
   4181   4180   4189   4198     1  0.0000000  1.0460000  1
   4181   4180   4189   4198     1  0.0000000  0.0000000  3
   4181   4180   4189   4190     1  0.0000000  0.6508444  3
   4181   4180   4189   4191     1  0.0000000  0.6508444  3
   4182   4180   4189   4198     1  0.0000000  1.0460000  1
   4182   4180   4189   4198     1  0.0000000  0.0000000  3
   4182   4180   4189   4190     1  0.0000000  0.6508444  3
   4182   4180   4189   4191     1  0.0000000  0.6508444  3
   4183   4171   4170   4199     1  0.0000000  0.6508444  3
   4184   4183   4195   8251     1  0.0000000  1.0460000  1
   4184   4183   4195   8251     1  0.0000000  0.0000000  3
   4184   4183   4195   4196     1  0.0000000  0.6508444  3
   4184   4183   4195   4197     1  0.0000000  0.6508444  3
   4185   4183   4195   8251     1  0.0000000  1.0460000  1
   4185   4183   4195   8251     1  0.0000000  0.0000000  3
   4185   4183   4195   4196     1  0.0000000  0.6508444  3
   4185   4183   4195   4197     1  0.0000000  0.6508444  3
   4186   4174   4170   4199     1  0.0000000  0.6508444  3
   4187   4186   4192   8228     1  0.0000000  1.0460000  1
   4187   4186   4192   8228     1  0.0000000  0.0000000  3
   4187   4186   4192   4193     1  0.0000000  0.6508444  3
   4187   4186   4192   4194     1  0.0000000  0.6508444  3
   4188   4186   4192   8228     1  0.0000000  1.0460000  1
   4188   4186   4192   8228     1  0.0000000  0.0000000  3
   4188   4186   4192   4193     1  0.0000000  0.6508444  3
   4188   4186   4192   4194     1  0.0000000  0.6508444  3
   4192   8228   8224   8227     1  0.0000000  1.6038667  3
   4193   4192   8228   8224     1  0.0000000  1.6038667  3
   4194   4192   8228   8224     1  0.0000000  1.6038667  3
   4195   8251   8247   8250     1  0.0000000  1.6038667  3
   4196   4195   8251   8247     1  0.0000000  1.6038667  3
   4197   4195   8251   8247     1  0.0000000  1.6038667  3
   4200   4201   4213   4214     1  0.0000000  0.6508444  3
   4200   4201   4213   4215     1  0.0000000  0.6508444  3
   4200   4204   4216   4217     1  0.0000000  0.6508444  3
   4200   4204   4216   4218     1  0.0000000  0.6508444  3
   4200   4207   4210   4211     1  0.0000000  0.6508444  3
   4200   4207   4210   4212     1  0.0000000  0.6508444  3
   4201   4200   4204   4205     1  0.0000000  0.6508444  3
   4201   4200   4204   4206     1  0.0000000  0.6508444  3
   4201   4200   4207   4208     1  0.0000000  0.6508444  3
   4201   4200   4207   4209     1  0.0000000  0.6508444  3
   4201   4213   4225   4226     1  0.0000000  0.6508444  3
   4201   4213   4225   4227     1  0.0000000  0.6508444  3
   4202   4201   4200   4204     1  0.0000000  0.6508444  3
   4202   4201   4200   4207     1  0.0000000  0.6508444  3
   4202   4201   4200   4229     1  0.0000000  0.6508444  3
   4202   4201   4213   4225     1  0.0000000  0.6508444  3
   4202   4201   4213   4214     1  0.0000000  0.6508444  3
   4202   4201   4213   4215     1  0.0000000  0.6508444  3
   4203   4201   4200   4204     1  0.0000000  0.6508444  3
   4203   4201   4200   4207     1  0.0000000  0.6508444  3
   4203   4201   4200   4229     1  0.0000000  0.6508444  3
   4203   4201   4213   4225     1  0.0000000  0.6508444  3
   4203   4201   4213   4214     1  0.0000000  0.6508444  3
   4203   4201   4213   4215     1  0.0000000  0.6508444  3
   4204   4200   4207   4208     1  0.0000000  0.6508444  3
   4204   4200   4207   4209     1  0.0000000  0.6508444  3
   4204   4216   4222   4223     1  0.0000000  0.6508444  3
   4204   4216   4222   4224     1  0.0000000  0.6508444  3
   4205   4204   4200   4207     1  0.0000000  0.6508444  3
   4205   4204   4200   4229     1  0.0000000  0.6508444  3
   4205   4204   4216   4222     1  0.0000000  0.6508444  3
   4205   4204   4216   4217     1  0.0000000  0.6508444  3
   4205   4204   4216   4218     1  0.0000000  0.6508444  3
   4206   4204   4200   4207     1  0.0000000  0.6508444  3
   4206   4204   4200   4229     1  0.0000000  0.6508444  3
   4206   4204   4216   4222     1  0.0000000  0.6508444  3
   4206   4204   4216   4217     1  0.0000000  0.6508444  3
   4206   4204   4216   4218     1  0.0000000  0.6508444  3
   4207   4210   4219   4220     1  0.0000000  0.6508444  3
   4207   4210   4219   4221     1  0.0000000  0.6508444  3
   4208   4207   4200   4229     1  0.0000000  0.6508444  3
   4208   4207   4210   4219     1  0.0000000  0.6508444  3
   4208   4207   4210   4211     1  0.0000000  0.6508444  3
   4208   4207   4210   4212     1  0.0000000  0.6508444  3
   4209   4207   4200   4229     1  0.0000000  0.6508444  3
   4209   4207   4210   4219     1  0.0000000  0.6508444  3
   4209   4207   4210   4211     1  0.0000000  0.6508444  3
   4209   4207   4210   4212     1  0.0000000  0.6508444  3
   4210   4207   4200   4229     1  0.0000000  0.6508444  3
   4211   4210   4219   4228     1  0.0000000  1.0460000  1
   4211   4210   4219   4228     1  0.0000000  0.0000000  3
   4211   4210   4219   4220     1  0.0000000  0.6508444  3
   4211   4210   4219   4221     1  0.0000000  0.6508444  3
   4212   4210   4219   4228     1  0.0000000  1.0460000  1
   4212   4210   4219   4228     1  0.0000000  0.0000000  3
   4212   4210   4219   4220     1  0.0000000  0.6508444  3
   4212   4210   4219   4221     1  0.0000000  0.6508444  3
   4213   4201   4200   4229     1  0.0000000  0.6508444  3
   4214   4213   4225   8297     1  0.0000000  1.0460000  1
   4214   4213   4225   8297     1  0.0000000  0.0000000  3
   4214   4213   4225   4226     1  0.0000000  0.6508444  3
   4214   4213   4225   4227     1  0.0000000  0.6508444  3
   4215   4213   4225   8297     1  0.0000000  1.0460000  1
   4215   4213   4225   8297     1  0.0000000  0.0000000  3
   4215   4213   4225   4226     1  0.0000000  0.6508444  3
   4215   4213   4225   4227     1  0.0000000  0.6508444  3
   4216   4204   4200   4229     1  0.0000000  0.6508444  3
   4217   4216   4222   8274     1  0.0000000  1.0460000  1
   4217   4216   4222   8274     1  0.0000000  0.0000000  3
   4217   4216   4222   4223     1  0.0000000  0.6508444  3
   4217   4216   4222   4224     1  0.0000000  0.6508444  3
   4218   4216   4222   8274     1  0.0000000  1.0460000  1
   4218   4216   4222   8274     1  0.0000000  0.0000000  3
   4218   4216   4222   4223     1  0.0000000  0.6508444  3
   4218   4216   4222   4224     1  0.0000000  0.6508444  3
   4222   8274   8270   8273     1  0.0000000  1.6038667  3
   4223   4222   8274   8270     1  0.0000000  1.6038667  3
   4224   4222   8274   8270     1  0.0000000  1.6038667  3
   4225   8297   8293   8296     1  0.0000000  1.6038667  3
   4226   4225   8297   8293     1  0.0000000  1.6038667  3
   4227   4225   8297   8293     1  0.0000000  1.6038667  3
   4230   4231   4243   4244     1  0.0000000  0.6508444  3
   4230   4231   4243   4245     1  0.0000000  0.6508444  3
   4230   4234   4246   4247     1  0.0000000  0.6508444  3
   4230   4234   4246   4248     1  0.0000000  0.6508444  3
   4230   4237   4240   4241     1  0.0000000  0.6508444  3
   4230   4237   4240   4242     1  0.0000000  0.6508444  3
   4231   4230   4234   4235     1  0.0000000  0.6508444  3
   4231   4230   4234   4236     1  0.0000000  0.6508444  3
   4231   4230   4237   4238     1  0.0000000  0.6508444  3
   4231   4230   4237   4239     1  0.0000000  0.6508444  3
   4231   4243   4255   4256     1  0.0000000  0.6508444  3
   4231   4243   4255   4257     1  0.0000000  0.6508444  3
   4232   4231   4230   4234     1  0.0000000  0.6508444  3
   4232   4231   4230   4237     1  0.0000000  0.6508444  3
   4232   4231   4230   4259     1  0.0000000  0.6508444  3
   4232   4231   4243   4255     1  0.0000000  0.6508444  3
   4232   4231   4243   4244     1  0.0000000  0.6508444  3
   4232   4231   4243   4245     1  0.0000000  0.6508444  3
   4233   4231   4230   4234     1  0.0000000  0.6508444  3
   4233   4231   4230   4237     1  0.0000000  0.6508444  3
   4233   4231   4230   4259     1  0.0000000  0.6508444  3
   4233   4231   4243   4255     1  0.0000000  0.6508444  3
   4233   4231   4243   4244     1  0.0000000  0.6508444  3
   4233   4231   4243   4245     1  0.0000000  0.6508444  3
   4234   4230   4237   4238     1  0.0000000  0.6508444  3
   4234   4230   4237   4239     1  0.0000000  0.6508444  3
   4234   4246   4252   4253     1  0.0000000  0.6508444  3
   4234   4246   4252   4254     1  0.0000000  0.6508444  3
   4235   4234   4230   4237     1  0.0000000  0.6508444  3
   4235   4234   4230   4259     1  0.0000000  0.6508444  3
   4235   4234   4246   4252     1  0.0000000  0.6508444  3
   4235   4234   4246   4247     1  0.0000000  0.6508444  3
   4235   4234   4246   4248     1  0.0000000  0.6508444  3
   4236   4234   4230   4237     1  0.0000000  0.6508444  3
   4236   4234   4230   4259     1  0.0000000  0.6508444  3
   4236   4234   4246   4252     1  0.0000000  0.6508444  3
   4236   4234   4246   4247     1  0.0000000  0.6508444  3
   4236   4234   4246   4248     1  0.0000000  0.6508444  3
   4237   4240   4249   4250     1  0.0000000  0.6508444  3
   4237   4240   4249   4251     1  0.0000000  0.6508444  3
   4238   4237   4230   4259     1  0.0000000  0.6508444  3
   4238   4237   4240   4249     1  0.0000000  0.6508444  3
   4238   4237   4240   4241     1  0.0000000  0.6508444  3
   4238   4237   4240   4242     1  0.0000000  0.6508444  3
   4239   4237   4230   4259     1  0.0000000  0.6508444  3
   4239   4237   4240   4249     1  0.0000000  0.6508444  3
   4239   4237   4240   4241     1  0.0000000  0.6508444  3
   4239   4237   4240   4242     1  0.0000000  0.6508444  3
   4240   4237   4230   4259     1  0.0000000  0.6508444  3
   4241   4240   4249   4258     1  0.0000000  1.0460000  1
   4241   4240   4249   4258     1  0.0000000  0.0000000  3
   4241   4240   4249   4250     1  0.0000000  0.6508444  3
   4241   4240   4249   4251     1  0.0000000  0.6508444  3
   4242   4240   4249   4258     1  0.0000000  1.0460000  1
   4242   4240   4249   4258     1  0.0000000  0.0000000  3
   4242   4240   4249   4250     1  0.0000000  0.6508444  3
   4242   4240   4249   4251     1  0.0000000  0.6508444  3
   4243   4231   4230   4259     1  0.0000000  0.6508444  3
   4244   4243   4255   8343     1  0.0000000  1.0460000  1
   4244   4243   4255   8343     1  0.0000000  0.0000000  3
   4244   4243   4255   4256     1  0.0000000  0.6508444  3
   4244   4243   4255   4257     1  0.0000000  0.6508444  3
   4245   4243   4255   8343     1  0.0000000  1.0460000  1
   4245   4243   4255   8343     1  0.0000000  0.0000000  3
   4245   4243   4255   4256     1  0.0000000  0.6508444  3
   4245   4243   4255   4257     1  0.0000000  0.6508444  3
   4246   4234   4230   4259     1  0.0000000  0.6508444  3
   4247   4246   4252   8320     1  0.0000000  1.0460000  1
   4247   4246   4252   8320     1  0.0000000  0.0000000  3
   4247   4246   4252   4253     1  0.0000000  0.6508444  3
   4247   4246   4252   4254     1  0.0000000  0.6508444  3
   4248   4246   4252   8320     1  0.0000000  1.0460000  1
   4248   4246   4252   8320     1  0.0000000  0.0000000  3
   4248   4246   4252   4253     1  0.0000000  0.6508444  3
   4248   4246   4252   4254     1  0.0000000  0.6508444  3
   4252   8320   8316   8319     1  0.0000000  1.6038667  3
   4253   4252   8320   8316     1  0.0000000  1.6038667  3
   4254   4252   8320   8316     1  0.0000000  1.6038667  3
   4255   8343   8339   8342     1  0.0000000  1.6038667  3
   4256   4255   8343   8339     1  0.0000000  1.6038667  3
   4257   4255   8343   8339     1  0.0000000  1.6038667  3
   4260   4261   4273   4274     1  0.0000000  0.6508444  3
   4260   4261   4273   4275     1  0.0000000  0.6508444  3
   4260   4264   4276   4277     1  0.0000000  0.6508444  3
   4260   4264   4276   4278     1  0.0000000  0.6508444  3
   4260   4267   4270   4271     1  0.0000000  0.6508444  3
   4260   4267   4270   4272     1  0.0000000  0.6508444  3
   4261   4260   4264   4265     1  0.0000000  0.6508444  3
   4261   4260   4264   4266     1  0.0000000  0.6508444  3
   4261   4260   4267   4268     1  0.0000000  0.6508444  3
   4261   4260   4267   4269     1  0.0000000  0.6508444  3
   4261   4273   4285   4286     1  0.0000000  0.6508444  3
   4261   4273   4285   4287     1  0.0000000  0.6508444  3
   4262   4261   4260   4264     1  0.0000000  0.6508444  3
   4262   4261   4260   4267     1  0.0000000  0.6508444  3
   4262   4261   4260   4289     1  0.0000000  0.6508444  3
   4262   4261   4273   4285     1  0.0000000  0.6508444  3
   4262   4261   4273   4274     1  0.0000000  0.6508444  3
   4262   4261   4273   4275     1  0.0000000  0.6508444  3
   4263   4261   4260   4264     1  0.0000000  0.6508444  3
   4263   4261   4260   4267     1  0.0000000  0.6508444  3
   4263   4261   4260   4289     1  0.0000000  0.6508444  3
   4263   4261   4273   4285     1  0.0000000  0.6508444  3
   4263   4261   4273   4274     1  0.0000000  0.6508444  3
   4263   4261   4273   4275     1  0.0000000  0.6508444  3
   4264   4260   4267   4268     1  0.0000000  0.6508444  3
   4264   4260   4267   4269     1  0.0000000  0.6508444  3
   4264   4276   4282   4283     1  0.0000000  0.6508444  3
   4264   4276   4282   4284     1  0.0000000  0.6508444  3
   4265   4264   4260   4267     1  0.0000000  0.6508444  3
   4265   4264   4260   4289     1  0.0000000  0.6508444  3
   4265   4264   4276   4282     1  0.0000000  0.6508444  3
   4265   4264   4276   4277     1  0.0000000  0.6508444  3
   4265   4264   4276   4278     1  0.0000000  0.6508444  3
   4266   4264   4260   4267     1  0.0000000  0.6508444  3
   4266   4264   4260   4289     1  0.0000000  0.6508444  3
   4266   4264   4276   4282     1  0.0000000  0.6508444  3
   4266   4264   4276   4277     1  0.0000000  0.6508444  3
   4266   4264   4276   4278     1  0.0000000  0.6508444  3
   4267   4270   4279   4280     1  0.0000000  0.6508444  3
   4267   4270   4279   4281     1  0.0000000  0.6508444  3
   4268   4267   4260   4289     1  0.0000000  0.6508444  3
   4268   4267   4270   4279     1  0.0000000  0.6508444  3
   4268   4267   4270   4271     1  0.0000000  0.6508444  3
   4268   4267   4270   4272     1  0.0000000  0.6508444  3
   4269   4267   4260   4289     1  0.0000000  0.6508444  3
   4269   4267   4270   4279     1  0.0000000  0.6508444  3
   4269   4267   4270   4271     1  0.0000000  0.6508444  3
   4269   4267   4270   4272     1  0.0000000  0.6508444  3
   4270   4267   4260   4289     1  0.0000000  0.6508444  3
   4271   4270   4279   4288     1  0.0000000  1.0460000  1
   4271   4270   4279   4288     1  0.0000000  0.0000000  3
   4271   4270   4279   4280     1  0.0000000  0.6508444  3
   4271   4270   4279   4281     1  0.0000000  0.6508444  3
   4272   4270   4279   4288     1  0.0000000  1.0460000  1
   4272   4270   4279   4288     1  0.0000000  0.0000000  3
   4272   4270   4279   4280     1  0.0000000  0.6508444  3
   4272   4270   4279   4281     1  0.0000000  0.6508444  3
   4273   4261   4260   4289     1  0.0000000  0.6508444  3
   4274   4273   4285   8389     1  0.0000000  1.0460000  1
   4274   4273   4285   8389     1  0.0000000  0.0000000  3
   4274   4273   4285   4286     1  0.0000000  0.6508444  3
   4274   4273   4285   4287     1  0.0000000  0.6508444  3
   4275   4273   4285   8389     1  0.0000000  1.0460000  1
   4275   4273   4285   8389     1  0.0000000  0.0000000  3
   4275   4273   4285   4286     1  0.0000000  0.6508444  3
   4275   4273   4285   4287     1  0.0000000  0.6508444  3
   4276   4264   4260   4289     1  0.0000000  0.6508444  3
   4277   4276   4282   8366     1  0.0000000  1.0460000  1
   4277   4276   4282   8366     1  0.0000000  0.0000000  3
   4277   4276   4282   4283     1  0.0000000  0.6508444  3
   4277   4276   4282   4284     1  0.0000000  0.6508444  3
   4278   4276   4282   8366     1  0.0000000  1.0460000  1
   4278   4276   4282   8366     1  0.0000000  0.0000000  3
   4278   4276   4282   4283     1  0.0000000  0.6508444  3
   4278   4276   4282   4284     1  0.0000000  0.6508444  3
   4282   8366   8362   8365     1  0.0000000  1.6038667  3
   4283   4282   8366   8362     1  0.0000000  1.6038667  3
   4284   4282   8366   8362     1  0.0000000  1.6038667  3
   4285   8389   8385   8388     1  0.0000000  1.6038667  3
   4286   4285   8389   8385     1  0.0000000  1.6038667  3
   4287   4285   8389   8385     1  0.0000000  1.6038667  3
   4290   4291   4303   4304     1  0.0000000  0.6508444  3
   4290   4291   4303   4305     1  0.0000000  0.6508444  3
   4290   4294   4306   4307     1  0.0000000  0.6508444  3
   4290   4294   4306   4308     1  0.0000000  0.6508444  3
   4290   4297   4300   4301     1  0.0000000  0.6508444  3
   4290   4297   4300   4302     1  0.0000000  0.6508444  3
   4291   4290   4294   4295     1  0.0000000  0.6508444  3
   4291   4290   4294   4296     1  0.0000000  0.6508444  3
   4291   4290   4297   4298     1  0.0000000  0.6508444  3
   4291   4290   4297   4299     1  0.0000000  0.6508444  3
   4291   4303   4315   4316     1  0.0000000  0.6508444  3
   4291   4303   4315   4317     1  0.0000000  0.6508444  3
   4292   4291   4290   4294     1  0.0000000  0.6508444  3
   4292   4291   4290   4297     1  0.0000000  0.6508444  3
   4292   4291   4290   4319     1  0.0000000  0.6508444  3
   4292   4291   4303   4315     1  0.0000000  0.6508444  3
   4292   4291   4303   4304     1  0.0000000  0.6508444  3
   4292   4291   4303   4305     1  0.0000000  0.6508444  3
   4293   4291   4290   4294     1  0.0000000  0.6508444  3
   4293   4291   4290   4297     1  0.0000000  0.6508444  3
   4293   4291   4290   4319     1  0.0000000  0.6508444  3
   4293   4291   4303   4315     1  0.0000000  0.6508444  3
   4293   4291   4303   4304     1  0.0000000  0.6508444  3
   4293   4291   4303   4305     1  0.0000000  0.6508444  3
   4294   4290   4297   4298     1  0.0000000  0.6508444  3
   4294   4290   4297   4299     1  0.0000000  0.6508444  3
   4294   4306   4312   4313     1  0.0000000  0.6508444  3
   4294   4306   4312   4314     1  0.0000000  0.6508444  3
   4295   4294   4290   4297     1  0.0000000  0.6508444  3
   4295   4294   4290   4319     1  0.0000000  0.6508444  3
   4295   4294   4306   4312     1  0.0000000  0.6508444  3
   4295   4294   4306   4307     1  0.0000000  0.6508444  3
   4295   4294   4306   4308     1  0.0000000  0.6508444  3
   4296   4294   4290   4297     1  0.0000000  0.6508444  3
   4296   4294   4290   4319     1  0.0000000  0.6508444  3
   4296   4294   4306   4312     1  0.0000000  0.6508444  3
   4296   4294   4306   4307     1  0.0000000  0.6508444  3
   4296   4294   4306   4308     1  0.0000000  0.6508444  3
   4297   4300   4309   4310     1  0.0000000  0.6508444  3
   4297   4300   4309   4311     1  0.0000000  0.6508444  3
   4298   4297   4290   4319     1  0.0000000  0.6508444  3
   4298   4297   4300   4309     1  0.0000000  0.6508444  3
   4298   4297   4300   4301     1  0.0000000  0.6508444  3
   4298   4297   4300   4302     1  0.0000000  0.6508444  3
   4299   4297   4290   4319     1  0.0000000  0.6508444  3
   4299   4297   4300   4309     1  0.0000000  0.6508444  3
   4299   4297   4300   4301     1  0.0000000  0.6508444  3
   4299   4297   4300   4302     1  0.0000000  0.6508444  3
   4300   4297   4290   4319     1  0.0000000  0.6508444  3
   4301   4300   4309   4318     1  0.0000000  1.0460000  1
   4301   4300   4309   4318     1  0.0000000  0.0000000  3
   4301   4300   4309   4310     1  0.0000000  0.6508444  3
   4301   4300   4309   4311     1  0.0000000  0.6508444  3
   4302   4300   4309   4318     1  0.0000000  1.0460000  1
   4302   4300   4309   4318     1  0.0000000  0.0000000  3
   4302   4300   4309   4310     1  0.0000000  0.6508444  3
   4302   4300   4309   4311     1  0.0000000  0.6508444  3
   4303   4291   4290   4319     1  0.0000000  0.6508444  3
   4304   4303   4315   8435     1  0.0000000  1.0460000  1
   4304   4303   4315   8435     1  0.0000000  0.0000000  3
   4304   4303   4315   4316     1  0.0000000  0.6508444  3
   4304   4303   4315   4317     1  0.0000000  0.6508444  3
   4305   4303   4315   8435     1  0.0000000  1.0460000  1
   4305   4303   4315   8435     1  0.0000000  0.0000000  3
   4305   4303   4315   4316     1  0.0000000  0.6508444  3
   4305   4303   4315   4317     1  0.0000000  0.6508444  3
   4306   4294   4290   4319     1  0.0000000  0.6508444  3
   4307   4306   4312   8412     1  0.0000000  1.0460000  1
   4307   4306   4312   8412     1  0.0000000  0.0000000  3
   4307   4306   4312   4313     1  0.0000000  0.6508444  3
   4307   4306   4312   4314     1  0.0000000  0.6508444  3
   4308   4306   4312   8412     1  0.0000000  1.0460000  1
   4308   4306   4312   8412     1  0.0000000  0.0000000  3
   4308   4306   4312   4313     1  0.0000000  0.6508444  3
   4308   4306   4312   4314     1  0.0000000  0.6508444  3
   4312   8412   8408   8411     1  0.0000000  1.6038667  3
   4313   4312   8412   8408     1  0.0000000  1.6038667  3
   4314   4312   8412   8408     1  0.0000000  1.6038667  3
   4315   8435   8431   8434     1  0.0000000  1.6038667  3
   4316   4315   8435   8431     1  0.0000000  1.6038667  3
   4317   4315   8435   8431     1  0.0000000  1.6038667  3
   4320   4321   4333   4334     1  0.0000000  0.6508444  3
   4320   4321   4333   4335     1  0.0000000  0.6508444  3
   4320   4324   4336   4337     1  0.0000000  0.6508444  3
   4320   4324   4336   4338     1  0.0000000  0.6508444  3
   4320   4327   4330   4331     1  0.0000000  0.6508444  3
   4320   4327   4330   4332     1  0.0000000  0.6508444  3
   4321   4320   4324   4325     1  0.0000000  0.6508444  3
   4321   4320   4324   4326     1  0.0000000  0.6508444  3
   4321   4320   4327   4328     1  0.0000000  0.6508444  3
   4321   4320   4327   4329     1  0.0000000  0.6508444  3
   4321   4333   4345   4346     1  0.0000000  0.6508444  3
   4321   4333   4345   4347     1  0.0000000  0.6508444  3
   4322   4321   4320   4324     1  0.0000000  0.6508444  3
   4322   4321   4320   4327     1  0.0000000  0.6508444  3
   4322   4321   4320   4349     1  0.0000000  0.6508444  3
   4322   4321   4333   4345     1  0.0000000  0.6508444  3
   4322   4321   4333   4334     1  0.0000000  0.6508444  3
   4322   4321   4333   4335     1  0.0000000  0.6508444  3
   4323   4321   4320   4324     1  0.0000000  0.6508444  3
   4323   4321   4320   4327     1  0.0000000  0.6508444  3
   4323   4321   4320   4349     1  0.0000000  0.6508444  3
   4323   4321   4333   4345     1  0.0000000  0.6508444  3
   4323   4321   4333   4334     1  0.0000000  0.6508444  3
   4323   4321   4333   4335     1  0.0000000  0.6508444  3
   4324   4320   4327   4328     1  0.0000000  0.6508444  3
   4324   4320   4327   4329     1  0.0000000  0.6508444  3
   4324   4336   4342   4343     1  0.0000000  0.6508444  3
   4324   4336   4342   4344     1  0.0000000  0.6508444  3
   4325   4324   4320   4327     1  0.0000000  0.6508444  3
   4325   4324   4320   4349     1  0.0000000  0.6508444  3
   4325   4324   4336   4342     1  0.0000000  0.6508444  3
   4325   4324   4336   4337     1  0.0000000  0.6508444  3
   4325   4324   4336   4338     1  0.0000000  0.6508444  3
   4326   4324   4320   4327     1  0.0000000  0.6508444  3
   4326   4324   4320   4349     1  0.0000000  0.6508444  3
   4326   4324   4336   4342     1  0.0000000  0.6508444  3
   4326   4324   4336   4337     1  0.0000000  0.6508444  3
   4326   4324   4336   4338     1  0.0000000  0.6508444  3
   4327   4330   4339   4340     1  0.0000000  0.6508444  3
   4327   4330   4339   4341     1  0.0000000  0.6508444  3
   4328   4327   4320   4349     1  0.0000000  0.6508444  3
   4328   4327   4330   4339     1  0.0000000  0.6508444  3
   4328   4327   4330   4331     1  0.0000000  0.6508444  3
   4328   4327   4330   4332     1  0.0000000  0.6508444  3
   4329   4327   4320   4349     1  0.0000000  0.6508444  3
   4329   4327   4330   4339     1  0.0000000  0.6508444  3
   4329   4327   4330   4331     1  0.0000000  0.6508444  3
   4329   4327   4330   4332     1  0.0000000  0.6508444  3
   4330   4327   4320   4349     1  0.0000000  0.6508444  3
   4331   4330   4339   4348     1  0.0000000  1.0460000  1
   4331   4330   4339   4348     1  0.0000000  0.0000000  3
   4331   4330   4339   4340     1  0.0000000  0.6508444  3
   4331   4330   4339   4341     1  0.0000000  0.6508444  3
   4332   4330   4339   4348     1  0.0000000  1.0460000  1
   4332   4330   4339   4348     1  0.0000000  0.0000000  3
   4332   4330   4339   4340     1  0.0000000  0.6508444  3
   4332   4330   4339   4341     1  0.0000000  0.6508444  3
   4333   4321   4320   4349     1  0.0000000  0.6508444  3
   4334   4333   4345   8481     1  0.0000000  1.0460000  1
   4334   4333   4345   8481     1  0.0000000  0.0000000  3
   4334   4333   4345   4346     1  0.0000000  0.6508444  3
   4334   4333   4345   4347     1  0.0000000  0.6508444  3
   4335   4333   4345   8481     1  0.0000000  1.0460000  1
   4335   4333   4345   8481     1  0.0000000  0.0000000  3
   4335   4333   4345   4346     1  0.0000000  0.6508444  3
   4335   4333   4345   4347     1  0.0000000  0.6508444  3
   4336   4324   4320   4349     1  0.0000000  0.6508444  3
   4337   4336   4342   8458     1  0.0000000  1.0460000  1
   4337   4336   4342   8458     1  0.0000000  0.0000000  3
   4337   4336   4342   4343     1  0.0000000  0.6508444  3
   4337   4336   4342   4344     1  0.0000000  0.6508444  3
   4338   4336   4342   8458     1  0.0000000  1.0460000  1
   4338   4336   4342   8458     1  0.0000000  0.0000000  3
   4338   4336   4342   4343     1  0.0000000  0.6508444  3
   4338   4336   4342   4344     1  0.0000000  0.6508444  3
   4342   8458   8454   8457     1  0.0000000  1.6038667  3
   4343   4342   8458   8454     1  0.0000000  1.6038667  3
   4344   4342   8458   8454     1  0.0000000  1.6038667  3
   4345   8481   8477   8480     1  0.0000000  1.6038667  3
   4346   4345   8481   8477     1  0.0000000  1.6038667  3
   4347   4345   8481   8477     1  0.0000000  1.6038667  3
   4350   4351   4363   4364     1  0.0000000  0.6508444  3
   4350   4351   4363   4365     1  0.0000000  0.6508444  3
   4350   4354   4366   4367     1  0.0000000  0.6508444  3
   4350   4354   4366   4368     1  0.0000000  0.6508444  3
   4350   4357   4360   4361     1  0.0000000  0.6508444  3
   4350   4357   4360   4362     1  0.0000000  0.6508444  3
   4351   4350   4354   4355     1  0.0000000  0.6508444  3
   4351   4350   4354   4356     1  0.0000000  0.6508444  3
   4351   4350   4357   4358     1  0.0000000  0.6508444  3
   4351   4350   4357   4359     1  0.0000000  0.6508444  3
   4351   4363   4375   4376     1  0.0000000  0.6508444  3
   4351   4363   4375   4377     1  0.0000000  0.6508444  3
   4352   4351   4350   4354     1  0.0000000  0.6508444  3
   4352   4351   4350   4357     1  0.0000000  0.6508444  3
   4352   4351   4350   4379     1  0.0000000  0.6508444  3
   4352   4351   4363   4375     1  0.0000000  0.6508444  3
   4352   4351   4363   4364     1  0.0000000  0.6508444  3
   4352   4351   4363   4365     1  0.0000000  0.6508444  3
   4353   4351   4350   4354     1  0.0000000  0.6508444  3
   4353   4351   4350   4357     1  0.0000000  0.6508444  3
   4353   4351   4350   4379     1  0.0000000  0.6508444  3
   4353   4351   4363   4375     1  0.0000000  0.6508444  3
   4353   4351   4363   4364     1  0.0000000  0.6508444  3
   4353   4351   4363   4365     1  0.0000000  0.6508444  3
   4354   4350   4357   4358     1  0.0000000  0.6508444  3
   4354   4350   4357   4359     1  0.0000000  0.6508444  3
   4354   4366   4372   4373     1  0.0000000  0.6508444  3
   4354   4366   4372   4374     1  0.0000000  0.6508444  3
   4355   4354   4350   4357     1  0.0000000  0.6508444  3
   4355   4354   4350   4379     1  0.0000000  0.6508444  3
   4355   4354   4366   4372     1  0.0000000  0.6508444  3
   4355   4354   4366   4367     1  0.0000000  0.6508444  3
   4355   4354   4366   4368     1  0.0000000  0.6508444  3
   4356   4354   4350   4357     1  0.0000000  0.6508444  3
   4356   4354   4350   4379     1  0.0000000  0.6508444  3
   4356   4354   4366   4372     1  0.0000000  0.6508444  3
   4356   4354   4366   4367     1  0.0000000  0.6508444  3
   4356   4354   4366   4368     1  0.0000000  0.6508444  3
   4357   4360   4369   4370     1  0.0000000  0.6508444  3
   4357   4360   4369   4371     1  0.0000000  0.6508444  3
   4358   4357   4350   4379     1  0.0000000  0.6508444  3
   4358   4357   4360   4369     1  0.0000000  0.6508444  3
   4358   4357   4360   4361     1  0.0000000  0.6508444  3
   4358   4357   4360   4362     1  0.0000000  0.6508444  3
   4359   4357   4350   4379     1  0.0000000  0.6508444  3
   4359   4357   4360   4369     1  0.0000000  0.6508444  3
   4359   4357   4360   4361     1  0.0000000  0.6508444  3
   4359   4357   4360   4362     1  0.0000000  0.6508444  3
   4360   4357   4350   4379     1  0.0000000  0.6508444  3
   4361   4360   4369   4378     1  0.0000000  1.0460000  1
   4361   4360   4369   4378     1  0.0000000  0.0000000  3
   4361   4360   4369   4370     1  0.0000000  0.6508444  3
   4361   4360   4369   4371     1  0.0000000  0.6508444  3
   4362   4360   4369   4378     1  0.0000000  1.0460000  1
   4362   4360   4369   4378     1  0.0000000  0.0000000  3
   4362   4360   4369   4370     1  0.0000000  0.6508444  3
   4362   4360   4369   4371     1  0.0000000  0.6508444  3
   4363   4351   4350   4379     1  0.0000000  0.6508444  3
   4364   4363   4375   8527     1  0.0000000  1.0460000  1
   4364   4363   4375   8527     1  0.0000000  0.0000000  3
   4364   4363   4375   4376     1  0.0000000  0.6508444  3
   4364   4363   4375   4377     1  0.0000000  0.6508444  3
   4365   4363   4375   8527     1  0.0000000  1.0460000  1
   4365   4363   4375   8527     1  0.0000000  0.0000000  3
   4365   4363   4375   4376     1  0.0000000  0.6508444  3
   4365   4363   4375   4377     1  0.0000000  0.6508444  3
   4366   4354   4350   4379     1  0.0000000  0.6508444  3
   4367   4366   4372   8504     1  0.0000000  1.0460000  1
   4367   4366   4372   8504     1  0.0000000  0.0000000  3
   4367   4366   4372   4373     1  0.0000000  0.6508444  3
   4367   4366   4372   4374     1  0.0000000  0.6508444  3
   4368   4366   4372   8504     1  0.0000000  1.0460000  1
   4368   4366   4372   8504     1  0.0000000  0.0000000  3
   4368   4366   4372   4373     1  0.0000000  0.6508444  3
   4368   4366   4372   4374     1  0.0000000  0.6508444  3
   4372   8504   8500   8503     1  0.0000000  1.6038667  3
   4373   4372   8504   8500     1  0.0000000  1.6038667  3
   4374   4372   8504   8500     1  0.0000000  1.6038667  3
   4375   8527   8523   8526     1  0.0000000  1.6038667  3
   4376   4375   8527   8523     1  0.0000000  1.6038667  3
   4377   4375   8527   8523     1  0.0000000  1.6038667  3
   4380   4381   4393   4394     1  0.0000000  0.6508444  3
   4380   4381   4393   4395     1  0.0000000  0.6508444  3
   4380   4384   4396   4397     1  0.0000000  0.6508444  3
   4380   4384   4396   4398     1  0.0000000  0.6508444  3
   4380   4387   4390   4391     1  0.0000000  0.6508444  3
   4380   4387   4390   4392     1  0.0000000  0.6508444  3
   4381   4380   4384   4385     1  0.0000000  0.6508444  3
   4381   4380   4384   4386     1  0.0000000  0.6508444  3
   4381   4380   4387   4388     1  0.0000000  0.6508444  3
   4381   4380   4387   4389     1  0.0000000  0.6508444  3
   4381   4393   4405   4406     1  0.0000000  0.6508444  3
   4381   4393   4405   4407     1  0.0000000  0.6508444  3
   4382   4381   4380   4384     1  0.0000000  0.6508444  3
   4382   4381   4380   4387     1  0.0000000  0.6508444  3
   4382   4381   4380   4409     1  0.0000000  0.6508444  3
   4382   4381   4393   4405     1  0.0000000  0.6508444  3
   4382   4381   4393   4394     1  0.0000000  0.6508444  3
   4382   4381   4393   4395     1  0.0000000  0.6508444  3
   4383   4381   4380   4384     1  0.0000000  0.6508444  3
   4383   4381   4380   4387     1  0.0000000  0.6508444  3
   4383   4381   4380   4409     1  0.0000000  0.6508444  3
   4383   4381   4393   4405     1  0.0000000  0.6508444  3
   4383   4381   4393   4394     1  0.0000000  0.6508444  3
   4383   4381   4393   4395     1  0.0000000  0.6508444  3
   4384   4380   4387   4388     1  0.0000000  0.6508444  3
   4384   4380   4387   4389     1  0.0000000  0.6508444  3
   4384   4396   4402   4403     1  0.0000000  0.6508444  3
   4384   4396   4402   4404     1  0.0000000  0.6508444  3
   4385   4384   4380   4387     1  0.0000000  0.6508444  3
   4385   4384   4380   4409     1  0.0000000  0.6508444  3
   4385   4384   4396   4402     1  0.0000000  0.6508444  3
   4385   4384   4396   4397     1  0.0000000  0.6508444  3
   4385   4384   4396   4398     1  0.0000000  0.6508444  3
   4386   4384   4380   4387     1  0.0000000  0.6508444  3
   4386   4384   4380   4409     1  0.0000000  0.6508444  3
   4386   4384   4396   4402     1  0.0000000  0.6508444  3
   4386   4384   4396   4397     1  0.0000000  0.6508444  3
   4386   4384   4396   4398     1  0.0000000  0.6508444  3
   4387   4390   4399   4400     1  0.0000000  0.6508444  3
   4387   4390   4399   4401     1  0.0000000  0.6508444  3
   4388   4387   4380   4409     1  0.0000000  0.6508444  3
   4388   4387   4390   4399     1  0.0000000  0.6508444  3
   4388   4387   4390   4391     1  0.0000000  0.6508444  3
   4388   4387   4390   4392     1  0.0000000  0.6508444  3
   4389   4387   4380   4409     1  0.0000000  0.6508444  3
   4389   4387   4390   4399     1  0.0000000  0.6508444  3
   4389   4387   4390   4391     1  0.0000000  0.6508444  3
   4389   4387   4390   4392     1  0.0000000  0.6508444  3
   4390   4387   4380   4409     1  0.0000000  0.6508444  3
   4391   4390   4399   4408     1  0.0000000  1.0460000  1
   4391   4390   4399   4408     1  0.0000000  0.0000000  3
   4391   4390   4399   4400     1  0.0000000  0.6508444  3
   4391   4390   4399   4401     1  0.0000000  0.6508444  3
   4392   4390   4399   4408     1  0.0000000  1.0460000  1
   4392   4390   4399   4408     1  0.0000000  0.0000000  3
   4392   4390   4399   4400     1  0.0000000  0.6508444  3
   4392   4390   4399   4401     1  0.0000000  0.6508444  3
   4393   4381   4380   4409     1  0.0000000  0.6508444  3
   4394   4393   4405   8573     1  0.0000000  1.0460000  1
   4394   4393   4405   8573     1  0.0000000  0.0000000  3
   4394   4393   4405   4406     1  0.0000000  0.6508444  3
   4394   4393   4405   4407     1  0.0000000  0.6508444  3
   4395   4393   4405   8573     1  0.0000000  1.0460000  1
   4395   4393   4405   8573     1  0.0000000  0.0000000  3
   4395   4393   4405   4406     1  0.0000000  0.6508444  3
   4395   4393   4405   4407     1  0.0000000  0.6508444  3
   4396   4384   4380   4409     1  0.0000000  0.6508444  3
   4397   4396   4402   8550     1  0.0000000  1.0460000  1
   4397   4396   4402   8550     1  0.0000000  0.0000000  3
   4397   4396   4402   4403     1  0.0000000  0.6508444  3
   4397   4396   4402   4404     1  0.0000000  0.6508444  3
   4398   4396   4402   8550     1  0.0000000  1.0460000  1
   4398   4396   4402   8550     1  0.0000000  0.0000000  3
   4398   4396   4402   4403     1  0.0000000  0.6508444  3
   4398   4396   4402   4404     1  0.0000000  0.6508444  3
   4402   8550   8546   8549     1  0.0000000  1.6038667  3
   4403   4402   8550   8546     1  0.0000000  1.6038667  3
   4404   4402   8550   8546     1  0.0000000  1.6038667  3
   4405   8573   8569   8572     1  0.0000000  1.6038667  3
   4406   4405   8573   8569     1  0.0000000  1.6038667  3
   4407   4405   8573   8569     1  0.0000000  1.6038667  3
   4410   4411   4423   4424     1  0.0000000  0.6508444  3
   4410   4411   4423   4425     1  0.0000000  0.6508444  3
   4410   4414   4426   4427     1  0.0000000  0.6508444  3
   4410   4414   4426   4428     1  0.0000000  0.6508444  3
   4410   4417   4420   4421     1  0.0000000  0.6508444  3
   4410   4417   4420   4422     1  0.0000000  0.6508444  3
   4411   4410   4414   4415     1  0.0000000  0.6508444  3
   4411   4410   4414   4416     1  0.0000000  0.6508444  3
   4411   4410   4417   4418     1  0.0000000  0.6508444  3
   4411   4410   4417   4419     1  0.0000000  0.6508444  3
   4411   4423   4435   4436     1  0.0000000  0.6508444  3
   4411   4423   4435   4437     1  0.0000000  0.6508444  3
   4412   4411   4410   4414     1  0.0000000  0.6508444  3
   4412   4411   4410   4417     1  0.0000000  0.6508444  3
   4412   4411   4410   4439     1  0.0000000  0.6508444  3
   4412   4411   4423   4435     1  0.0000000  0.6508444  3
   4412   4411   4423   4424     1  0.0000000  0.6508444  3
   4412   4411   4423   4425     1  0.0000000  0.6508444  3
   4413   4411   4410   4414     1  0.0000000  0.6508444  3
   4413   4411   4410   4417     1  0.0000000  0.6508444  3
   4413   4411   4410   4439     1  0.0000000  0.6508444  3
   4413   4411   4423   4435     1  0.0000000  0.6508444  3
   4413   4411   4423   4424     1  0.0000000  0.6508444  3
   4413   4411   4423   4425     1  0.0000000  0.6508444  3
   4414   4410   4417   4418     1  0.0000000  0.6508444  3
   4414   4410   4417   4419     1  0.0000000  0.6508444  3
   4414   4426   4432   4433     1  0.0000000  0.6508444  3
   4414   4426   4432   4434     1  0.0000000  0.6508444  3
   4415   4414   4410   4417     1  0.0000000  0.6508444  3
   4415   4414   4410   4439     1  0.0000000  0.6508444  3
   4415   4414   4426   4432     1  0.0000000  0.6508444  3
   4415   4414   4426   4427     1  0.0000000  0.6508444  3
   4415   4414   4426   4428     1  0.0000000  0.6508444  3
   4416   4414   4410   4417     1  0.0000000  0.6508444  3
   4416   4414   4410   4439     1  0.0000000  0.6508444  3
   4416   4414   4426   4432     1  0.0000000  0.6508444  3
   4416   4414   4426   4427     1  0.0000000  0.6508444  3
   4416   4414   4426   4428     1  0.0000000  0.6508444  3
   4417   4420   4429   4430     1  0.0000000  0.6508444  3
   4417   4420   4429   4431     1  0.0000000  0.6508444  3
   4418   4417   4410   4439     1  0.0000000  0.6508444  3
   4418   4417   4420   4429     1  0.0000000  0.6508444  3
   4418   4417   4420   4421     1  0.0000000  0.6508444  3
   4418   4417   4420   4422     1  0.0000000  0.6508444  3
   4419   4417   4410   4439     1  0.0000000  0.6508444  3
   4419   4417   4420   4429     1  0.0000000  0.6508444  3
   4419   4417   4420   4421     1  0.0000000  0.6508444  3
   4419   4417   4420   4422     1  0.0000000  0.6508444  3
   4420   4417   4410   4439     1  0.0000000  0.6508444  3
   4421   4420   4429   4438     1  0.0000000  1.0460000  1
   4421   4420   4429   4438     1  0.0000000  0.0000000  3
   4421   4420   4429   4430     1  0.0000000  0.6508444  3
   4421   4420   4429   4431     1  0.0000000  0.6508444  3
   4422   4420   4429   4438     1  0.0000000  1.0460000  1
   4422   4420   4429   4438     1  0.0000000  0.0000000  3
   4422   4420   4429   4430     1  0.0000000  0.6508444  3
   4422   4420   4429   4431     1  0.0000000  0.6508444  3
   4423   4411   4410   4439     1  0.0000000  0.6508444  3
   4424   4423   4435   8619     1  0.0000000  1.0460000  1
   4424   4423   4435   8619     1  0.0000000  0.0000000  3
   4424   4423   4435   4436     1  0.0000000  0.6508444  3
   4424   4423   4435   4437     1  0.0000000  0.6508444  3
   4425   4423   4435   8619     1  0.0000000  1.0460000  1
   4425   4423   4435   8619     1  0.0000000  0.0000000  3
   4425   4423   4435   4436     1  0.0000000  0.6508444  3
   4425   4423   4435   4437     1  0.0000000  0.6508444  3
   4426   4414   4410   4439     1  0.0000000  0.6508444  3
   4427   4426   4432   8596     1  0.0000000  1.0460000  1
   4427   4426   4432   8596     1  0.0000000  0.0000000  3
   4427   4426   4432   4433     1  0.0000000  0.6508444  3
   4427   4426   4432   4434     1  0.0000000  0.6508444  3
   4428   4426   4432   8596     1  0.0000000  1.0460000  1
   4428   4426   4432   8596     1  0.0000000  0.0000000  3
   4428   4426   4432   4433     1  0.0000000  0.6508444  3
   4428   4426   4432   4434     1  0.0000000  0.6508444  3
   4432   8596   8592   8595     1  0.0000000  1.6038667  3
   4433   4432   8596   8592     1  0.0000000  1.6038667  3
   4434   4432   8596   8592     1  0.0000000  1.6038667  3
   4435   8619   8615   8618     1  0.0000000  1.6038667  3
   4436   4435   8619   8615     1  0.0000000  1.6038667  3
   4437   4435   8619   8615     1  0.0000000  1.6038667  3
   4440   4441   4453   4454     1  0.0000000  0.6508444  3
   4440   4441   4453   4455     1  0.0000000  0.6508444  3
   4440   4444   4456   4457     1  0.0000000  0.6508444  3
   4440   4444   4456   4458     1  0.0000000  0.6508444  3
   4440   4447   4450   4451     1  0.0000000  0.6508444  3
   4440   4447   4450   4452     1  0.0000000  0.6508444  3
   4441   4440   4444   4445     1  0.0000000  0.6508444  3
   4441   4440   4444   4446     1  0.0000000  0.6508444  3
   4441   4440   4447   4448     1  0.0000000  0.6508444  3
   4441   4440   4447   4449     1  0.0000000  0.6508444  3
   4441   4453   4465   4466     1  0.0000000  0.6508444  3
   4441   4453   4465   4467     1  0.0000000  0.6508444  3
   4442   4441   4440   4444     1  0.0000000  0.6508444  3
   4442   4441   4440   4447     1  0.0000000  0.6508444  3
   4442   4441   4440   4469     1  0.0000000  0.6508444  3
   4442   4441   4453   4465     1  0.0000000  0.6508444  3
   4442   4441   4453   4454     1  0.0000000  0.6508444  3
   4442   4441   4453   4455     1  0.0000000  0.6508444  3
   4443   4441   4440   4444     1  0.0000000  0.6508444  3
   4443   4441   4440   4447     1  0.0000000  0.6508444  3
   4443   4441   4440   4469     1  0.0000000  0.6508444  3
   4443   4441   4453   4465     1  0.0000000  0.6508444  3
   4443   4441   4453   4454     1  0.0000000  0.6508444  3
   4443   4441   4453   4455     1  0.0000000  0.6508444  3
   4444   4440   4447   4448     1  0.0000000  0.6508444  3
   4444   4440   4447   4449     1  0.0000000  0.6508444  3
   4444   4456   4462   4463     1  0.0000000  0.6508444  3
   4444   4456   4462   4464     1  0.0000000  0.6508444  3
   4445   4444   4440   4447     1  0.0000000  0.6508444  3
   4445   4444   4440   4469     1  0.0000000  0.6508444  3
   4445   4444   4456   4462     1  0.0000000  0.6508444  3
   4445   4444   4456   4457     1  0.0000000  0.6508444  3
   4445   4444   4456   4458     1  0.0000000  0.6508444  3
   4446   4444   4440   4447     1  0.0000000  0.6508444  3
   4446   4444   4440   4469     1  0.0000000  0.6508444  3
   4446   4444   4456   4462     1  0.0000000  0.6508444  3
   4446   4444   4456   4457     1  0.0000000  0.6508444  3
   4446   4444   4456   4458     1  0.0000000  0.6508444  3
   4447   4450   4459   4460     1  0.0000000  0.6508444  3
   4447   4450   4459   4461     1  0.0000000  0.6508444  3
   4448   4447   4440   4469     1  0.0000000  0.6508444  3
   4448   4447   4450   4459     1  0.0000000  0.6508444  3
   4448   4447   4450   4451     1  0.0000000  0.6508444  3
   4448   4447   4450   4452     1  0.0000000  0.6508444  3
   4449   4447   4440   4469     1  0.0000000  0.6508444  3
   4449   4447   4450   4459     1  0.0000000  0.6508444  3
   4449   4447   4450   4451     1  0.0000000  0.6508444  3
   4449   4447   4450   4452     1  0.0000000  0.6508444  3
   4450   4447   4440   4469     1  0.0000000  0.6508444  3
   4451   4450   4459   4468     1  0.0000000  1.0460000  1
   4451   4450   4459   4468     1  0.0000000  0.0000000  3
   4451   4450   4459   4460     1  0.0000000  0.6508444  3
   4451   4450   4459   4461     1  0.0000000  0.6508444  3
   4452   4450   4459   4468     1  0.0000000  1.0460000  1
   4452   4450   4459   4468     1  0.0000000  0.0000000  3
   4452   4450   4459   4460     1  0.0000000  0.6508444  3
   4452   4450   4459   4461     1  0.0000000  0.6508444  3
   4453   4441   4440   4469     1  0.0000000  0.6508444  3
   4454   4453   4465   8665     1  0.0000000  1.0460000  1
   4454   4453   4465   8665     1  0.0000000  0.0000000  3
   4454   4453   4465   4466     1  0.0000000  0.6508444  3
   4454   4453   4465   4467     1  0.0000000  0.6508444  3
   4455   4453   4465   8665     1  0.0000000  1.0460000  1
   4455   4453   4465   8665     1  0.0000000  0.0000000  3
   4455   4453   4465   4466     1  0.0000000  0.6508444  3
   4455   4453   4465   4467     1  0.0000000  0.6508444  3
   4456   4444   4440   4469     1  0.0000000  0.6508444  3
   4457   4456   4462   8642     1  0.0000000  1.0460000  1
   4457   4456   4462   8642     1  0.0000000  0.0000000  3
   4457   4456   4462   4463     1  0.0000000  0.6508444  3
   4457   4456   4462   4464     1  0.0000000  0.6508444  3
   4458   4456   4462   8642     1  0.0000000  1.0460000  1
   4458   4456   4462   8642     1  0.0000000  0.0000000  3
   4458   4456   4462   4463     1  0.0000000  0.6508444  3
   4458   4456   4462   4464     1  0.0000000  0.6508444  3
   4462   8642   8638   8641     1  0.0000000  1.6038667  3
   4463   4462   8642   8638     1  0.0000000  1.6038667  3
   4464   4462   8642   8638     1  0.0000000  1.6038667  3
   4465   8665   8661   8664     1  0.0000000  1.6038667  3
   4466   4465   8665   8661     1  0.0000000  1.6038667  3
   4467   4465   8665   8661     1  0.0000000  1.6038667  3
   4470   4471   4483   4484     1  0.0000000  0.6508444  3
   4470   4471   4483   4485     1  0.0000000  0.6508444  3
   4470   4474   4486   4487     1  0.0000000  0.6508444  3
   4470   4474   4486   4488     1  0.0000000  0.6508444  3
   4470   4477   4480   4481     1  0.0000000  0.6508444  3
   4470   4477   4480   4482     1  0.0000000  0.6508444  3
   4471   4470   4474   4475     1  0.0000000  0.6508444  3
   4471   4470   4474   4476     1  0.0000000  0.6508444  3
   4471   4470   4477   4478     1  0.0000000  0.6508444  3
   4471   4470   4477   4479     1  0.0000000  0.6508444  3
   4471   4483   4495   4496     1  0.0000000  0.6508444  3
   4471   4483   4495   4497     1  0.0000000  0.6508444  3
   4472   4471   4470   4474     1  0.0000000  0.6508444  3
   4472   4471   4470   4477     1  0.0000000  0.6508444  3
   4472   4471   4470   4499     1  0.0000000  0.6508444  3
   4472   4471   4483   4495     1  0.0000000  0.6508444  3
   4472   4471   4483   4484     1  0.0000000  0.6508444  3
   4472   4471   4483   4485     1  0.0000000  0.6508444  3
   4473   4471   4470   4474     1  0.0000000  0.6508444  3
   4473   4471   4470   4477     1  0.0000000  0.6508444  3
   4473   4471   4470   4499     1  0.0000000  0.6508444  3
   4473   4471   4483   4495     1  0.0000000  0.6508444  3
   4473   4471   4483   4484     1  0.0000000  0.6508444  3
   4473   4471   4483   4485     1  0.0000000  0.6508444  3
   4474   4470   4477   4478     1  0.0000000  0.6508444  3
   4474   4470   4477   4479     1  0.0000000  0.6508444  3
   4474   4486   4492   4493     1  0.0000000  0.6508444  3
   4474   4486   4492   4494     1  0.0000000  0.6508444  3
   4475   4474   4470   4477     1  0.0000000  0.6508444  3
   4475   4474   4470   4499     1  0.0000000  0.6508444  3
   4475   4474   4486   4492     1  0.0000000  0.6508444  3
   4475   4474   4486   4487     1  0.0000000  0.6508444  3
   4475   4474   4486   4488     1  0.0000000  0.6508444  3
   4476   4474   4470   4477     1  0.0000000  0.6508444  3
   4476   4474   4470   4499     1  0.0000000  0.6508444  3
   4476   4474   4486   4492     1  0.0000000  0.6508444  3
   4476   4474   4486   4487     1  0.0000000  0.6508444  3
   4476   4474   4486   4488     1  0.0000000  0.6508444  3
   4477   4480   4489   4490     1  0.0000000  0.6508444  3
   4477   4480   4489   4491     1  0.0000000  0.6508444  3
   4478   4477   4470   4499     1  0.0000000  0.6508444  3
   4478   4477   4480   4489     1  0.0000000  0.6508444  3
   4478   4477   4480   4481     1  0.0000000  0.6508444  3
   4478   4477   4480   4482     1  0.0000000  0.6508444  3
   4479   4477   4470   4499     1  0.0000000  0.6508444  3
   4479   4477   4480   4489     1  0.0000000  0.6508444  3
   4479   4477   4480   4481     1  0.0000000  0.6508444  3
   4479   4477   4480   4482     1  0.0000000  0.6508444  3
   4480   4477   4470   4499     1  0.0000000  0.6508444  3
   4481   4480   4489   4498     1  0.0000000  1.0460000  1
   4481   4480   4489   4498     1  0.0000000  0.0000000  3
   4481   4480   4489   4490     1  0.0000000  0.6508444  3
   4481   4480   4489   4491     1  0.0000000  0.6508444  3
   4482   4480   4489   4498     1  0.0000000  1.0460000  1
   4482   4480   4489   4498     1  0.0000000  0.0000000  3
   4482   4480   4489   4490     1  0.0000000  0.6508444  3
   4482   4480   4489   4491     1  0.0000000  0.6508444  3
   4483   4471   4470   4499     1  0.0000000  0.6508444  3
   4484   4483   4495   8711     1  0.0000000  1.0460000  1
   4484   4483   4495   8711     1  0.0000000  0.0000000  3
   4484   4483   4495   4496     1  0.0000000  0.6508444  3
   4484   4483   4495   4497     1  0.0000000  0.6508444  3
   4485   4483   4495   8711     1  0.0000000  1.0460000  1
   4485   4483   4495   8711     1  0.0000000  0.0000000  3
   4485   4483   4495   4496     1  0.0000000  0.6508444  3
   4485   4483   4495   4497     1  0.0000000  0.6508444  3
   4486   4474   4470   4499     1  0.0000000  0.6508444  3
   4487   4486   4492   8688     1  0.0000000  1.0460000  1
   4487   4486   4492   8688     1  0.0000000  0.0000000  3
   4487   4486   4492   4493     1  0.0000000  0.6508444  3
   4487   4486   4492   4494     1  0.0000000  0.6508444  3
   4488   4486   4492   8688     1  0.0000000  1.0460000  1
   4488   4486   4492   8688     1  0.0000000  0.0000000  3
   4488   4486   4492   4493     1  0.0000000  0.6508444  3
   4488   4486   4492   4494     1  0.0000000  0.6508444  3
   4492   8688   8684   8687     1  0.0000000  1.6038667  3
   4493   4492   8688   8684     1  0.0000000  1.6038667  3
   4494   4492   8688   8684     1  0.0000000  1.6038667  3
   4495   8711   8707   8710     1  0.0000000  1.6038667  3
   4496   4495   8711   8707     1  0.0000000  1.6038667  3
   4497   4495   8711   8707     1  0.0000000  1.6038667  3
   4500   4501   4513   4514     1  0.0000000  0.6508444  3
   4500   4501   4513   4515     1  0.0000000  0.6508444  3
   4500   4504   4516   4517     1  0.0000000  0.6508444  3
   4500   4504   4516   4518     1  0.0000000  0.6508444  3
   4500   4507   4510   4511     1  0.0000000  0.6508444  3
   4500   4507   4510   4512     1  0.0000000  0.6508444  3
   4501   4500   4504   4505     1  0.0000000  0.6508444  3
   4501   4500   4504   4506     1  0.0000000  0.6508444  3
   4501   4500   4507   4508     1  0.0000000  0.6508444  3
   4501   4500   4507   4509     1  0.0000000  0.6508444  3
   4501   4513   4525   4526     1  0.0000000  0.6508444  3
   4501   4513   4525   4527     1  0.0000000  0.6508444  3
   4502   4501   4500   4504     1  0.0000000  0.6508444  3
   4502   4501   4500   4507     1  0.0000000  0.6508444  3
   4502   4501   4500   4529     1  0.0000000  0.6508444  3
   4502   4501   4513   4525     1  0.0000000  0.6508444  3
   4502   4501   4513   4514     1  0.0000000  0.6508444  3
   4502   4501   4513   4515     1  0.0000000  0.6508444  3
   4503   4501   4500   4504     1  0.0000000  0.6508444  3
   4503   4501   4500   4507     1  0.0000000  0.6508444  3
   4503   4501   4500   4529     1  0.0000000  0.6508444  3
   4503   4501   4513   4525     1  0.0000000  0.6508444  3
   4503   4501   4513   4514     1  0.0000000  0.6508444  3
   4503   4501   4513   4515     1  0.0000000  0.6508444  3
   4504   4500   4507   4508     1  0.0000000  0.6508444  3
   4504   4500   4507   4509     1  0.0000000  0.6508444  3
   4504   4516   4522   4523     1  0.0000000  0.6508444  3
   4504   4516   4522   4524     1  0.0000000  0.6508444  3
   4505   4504   4500   4507     1  0.0000000  0.6508444  3
   4505   4504   4500   4529     1  0.0000000  0.6508444  3
   4505   4504   4516   4522     1  0.0000000  0.6508444  3
   4505   4504   4516   4517     1  0.0000000  0.6508444  3
   4505   4504   4516   4518     1  0.0000000  0.6508444  3
   4506   4504   4500   4507     1  0.0000000  0.6508444  3
   4506   4504   4500   4529     1  0.0000000  0.6508444  3
   4506   4504   4516   4522     1  0.0000000  0.6508444  3
   4506   4504   4516   4517     1  0.0000000  0.6508444  3
   4506   4504   4516   4518     1  0.0000000  0.6508444  3
   4507   4510   4519   4520     1  0.0000000  0.6508444  3
   4507   4510   4519   4521     1  0.0000000  0.6508444  3
   4508   4507   4500   4529     1  0.0000000  0.6508444  3
   4508   4507   4510   4519     1  0.0000000  0.6508444  3
   4508   4507   4510   4511     1  0.0000000  0.6508444  3
   4508   4507   4510   4512     1  0.0000000  0.6508444  3
   4509   4507   4500   4529     1  0.0000000  0.6508444  3
   4509   4507   4510   4519     1  0.0000000  0.6508444  3
   4509   4507   4510   4511     1  0.0000000  0.6508444  3
   4509   4507   4510   4512     1  0.0000000  0.6508444  3
   4510   4507   4500   4529     1  0.0000000  0.6508444  3
   4511   4510   4519   4528     1  0.0000000  1.0460000  1
   4511   4510   4519   4528     1  0.0000000  0.0000000  3
   4511   4510   4519   4520     1  0.0000000  0.6508444  3
   4511   4510   4519   4521     1  0.0000000  0.6508444  3
   4512   4510   4519   4528     1  0.0000000  1.0460000  1
   4512   4510   4519   4528     1  0.0000000  0.0000000  3
   4512   4510   4519   4520     1  0.0000000  0.6508444  3
   4512   4510   4519   4521     1  0.0000000  0.6508444  3
   4513   4501   4500   4529     1  0.0000000  0.6508444  3
   4514   4513   4525   8757     1  0.0000000  1.0460000  1
   4514   4513   4525   8757     1  0.0000000  0.0000000  3
   4514   4513   4525   4526     1  0.0000000  0.6508444  3
   4514   4513   4525   4527     1  0.0000000  0.6508444  3
   4515   4513   4525   8757     1  0.0000000  1.0460000  1
   4515   4513   4525   8757     1  0.0000000  0.0000000  3
   4515   4513   4525   4526     1  0.0000000  0.6508444  3
   4515   4513   4525   4527     1  0.0000000  0.6508444  3
   4516   4504   4500   4529     1  0.0000000  0.6508444  3
   4517   4516   4522   8734     1  0.0000000  1.0460000  1
   4517   4516   4522   8734     1  0.0000000  0.0000000  3
   4517   4516   4522   4523     1  0.0000000  0.6508444  3
   4517   4516   4522   4524     1  0.0000000  0.6508444  3
   4518   4516   4522   8734     1  0.0000000  1.0460000  1
   4518   4516   4522   8734     1  0.0000000  0.0000000  3
   4518   4516   4522   4523     1  0.0000000  0.6508444  3
   4518   4516   4522   4524     1  0.0000000  0.6508444  3
   4522   8734   8730   8733     1  0.0000000  1.6038667  3
   4523   4522   8734   8730     1  0.0000000  1.6038667  3
   4524   4522   8734   8730     1  0.0000000  1.6038667  3
   4525   8757   8753   8756     1  0.0000000  1.6038667  3
   4526   4525   8757   8753     1  0.0000000  1.6038667  3
   4527   4525   8757   8753     1  0.0000000  1.6038667  3
   4530   4531   4543   4544     1  0.0000000  0.6508444  3
   4530   4531   4543   4545     1  0.0000000  0.6508444  3
   4530   4534   4546   4547     1  0.0000000  0.6508444  3
   4530   4534   4546   4548     1  0.0000000  0.6508444  3
   4530   4537   4540   4541     1  0.0000000  0.6508444  3
   4530   4537   4540   4542     1  0.0000000  0.6508444  3
   4531   4530   4534   4535     1  0.0000000  0.6508444  3
   4531   4530   4534   4536     1  0.0000000  0.6508444  3
   4531   4530   4537   4538     1  0.0000000  0.6508444  3
   4531   4530   4537   4539     1  0.0000000  0.6508444  3
   4531   4543   4555   4556     1  0.0000000  0.6508444  3
   4531   4543   4555   4557     1  0.0000000  0.6508444  3
   4532   4531   4530   4534     1  0.0000000  0.6508444  3
   4532   4531   4530   4537     1  0.0000000  0.6508444  3
   4532   4531   4530   4559     1  0.0000000  0.6508444  3
   4532   4531   4543   4555     1  0.0000000  0.6508444  3
   4532   4531   4543   4544     1  0.0000000  0.6508444  3
   4532   4531   4543   4545     1  0.0000000  0.6508444  3
   4533   4531   4530   4534     1  0.0000000  0.6508444  3
   4533   4531   4530   4537     1  0.0000000  0.6508444  3
   4533   4531   4530   4559     1  0.0000000  0.6508444  3
   4533   4531   4543   4555     1  0.0000000  0.6508444  3
   4533   4531   4543   4544     1  0.0000000  0.6508444  3
   4533   4531   4543   4545     1  0.0000000  0.6508444  3
   4534   4530   4537   4538     1  0.0000000  0.6508444  3
   4534   4530   4537   4539     1  0.0000000  0.6508444  3
   4534   4546   4552   4553     1  0.0000000  0.6508444  3
   4534   4546   4552   4554     1  0.0000000  0.6508444  3
   4535   4534   4530   4537     1  0.0000000  0.6508444  3
   4535   4534   4530   4559     1  0.0000000  0.6508444  3
   4535   4534   4546   4552     1  0.0000000  0.6508444  3
   4535   4534   4546   4547     1  0.0000000  0.6508444  3
   4535   4534   4546   4548     1  0.0000000  0.6508444  3
   4536   4534   4530   4537     1  0.0000000  0.6508444  3
   4536   4534   4530   4559     1  0.0000000  0.6508444  3
   4536   4534   4546   4552     1  0.0000000  0.6508444  3
   4536   4534   4546   4547     1  0.0000000  0.6508444  3
   4536   4534   4546   4548     1  0.0000000  0.6508444  3
   4537   4540   4549   4550     1  0.0000000  0.6508444  3
   4537   4540   4549   4551     1  0.0000000  0.6508444  3
   4538   4537   4530   4559     1  0.0000000  0.6508444  3
   4538   4537   4540   4549     1  0.0000000  0.6508444  3
   4538   4537   4540   4541     1  0.0000000  0.6508444  3
   4538   4537   4540   4542     1  0.0000000  0.6508444  3
   4539   4537   4530   4559     1  0.0000000  0.6508444  3
   4539   4537   4540   4549     1  0.0000000  0.6508444  3
   4539   4537   4540   4541     1  0.0000000  0.6508444  3
   4539   4537   4540   4542     1  0.0000000  0.6508444  3
   4540   4537   4530   4559     1  0.0000000  0.6508444  3
   4541   4540   4549   4558     1  0.0000000  1.0460000  1
   4541   4540   4549   4558     1  0.0000000  0.0000000  3
   4541   4540   4549   4550     1  0.0000000  0.6508444  3
   4541   4540   4549   4551     1  0.0000000  0.6508444  3
   4542   4540   4549   4558     1  0.0000000  1.0460000  1
   4542   4540   4549   4558     1  0.0000000  0.0000000  3
   4542   4540   4549   4550     1  0.0000000  0.6508444  3
   4542   4540   4549   4551     1  0.0000000  0.6508444  3
   4543   4531   4530   4559     1  0.0000000  0.6508444  3
   4544   4543   4555   8803     1  0.0000000  1.0460000  1
   4544   4543   4555   8803     1  0.0000000  0.0000000  3
   4544   4543   4555   4556     1  0.0000000  0.6508444  3
   4544   4543   4555   4557     1  0.0000000  0.6508444  3
   4545   4543   4555   8803     1  0.0000000  1.0460000  1
   4545   4543   4555   8803     1  0.0000000  0.0000000  3
   4545   4543   4555   4556     1  0.0000000  0.6508444  3
   4545   4543   4555   4557     1  0.0000000  0.6508444  3
   4546   4534   4530   4559     1  0.0000000  0.6508444  3
   4547   4546   4552   8780     1  0.0000000  1.0460000  1
   4547   4546   4552   8780     1  0.0000000  0.0000000  3
   4547   4546   4552   4553     1  0.0000000  0.6508444  3
   4547   4546   4552   4554     1  0.0000000  0.6508444  3
   4548   4546   4552   8780     1  0.0000000  1.0460000  1
   4548   4546   4552   8780     1  0.0000000  0.0000000  3
   4548   4546   4552   4553     1  0.0000000  0.6508444  3
   4548   4546   4552   4554     1  0.0000000  0.6508444  3
   4552   8780   8776   8779     1  0.0000000  1.6038667  3
   4553   4552   8780   8776     1  0.0000000  1.6038667  3
   4554   4552   8780   8776     1  0.0000000  1.6038667  3
   4555   8803   8799   8802     1  0.0000000  1.6038667  3
   4556   4555   8803   8799     1  0.0000000  1.6038667  3
   4557   4555   8803   8799     1  0.0000000  1.6038667  3
   4560   4561   4573   4574     1  0.0000000  0.6508444  3
   4560   4561   4573   4575     1  0.0000000  0.6508444  3
   4560   4564   4576   4577     1  0.0000000  0.6508444  3
   4560   4564   4576   4578     1  0.0000000  0.6508444  3
   4560   4567   4570   4571     1  0.0000000  0.6508444  3
   4560   4567   4570   4572     1  0.0000000  0.6508444  3
   4561   4560   4564   4565     1  0.0000000  0.6508444  3
   4561   4560   4564   4566     1  0.0000000  0.6508444  3
   4561   4560   4567   4568     1  0.0000000  0.6508444  3
   4561   4560   4567   4569     1  0.0000000  0.6508444  3
   4561   4573   4585   4586     1  0.0000000  0.6508444  3
   4561   4573   4585   4587     1  0.0000000  0.6508444  3
   4562   4561   4560   4564     1  0.0000000  0.6508444  3
   4562   4561   4560   4567     1  0.0000000  0.6508444  3
   4562   4561   4560   4589     1  0.0000000  0.6508444  3
   4562   4561   4573   4585     1  0.0000000  0.6508444  3
   4562   4561   4573   4574     1  0.0000000  0.6508444  3
   4562   4561   4573   4575     1  0.0000000  0.6508444  3
   4563   4561   4560   4564     1  0.0000000  0.6508444  3
   4563   4561   4560   4567     1  0.0000000  0.6508444  3
   4563   4561   4560   4589     1  0.0000000  0.6508444  3
   4563   4561   4573   4585     1  0.0000000  0.6508444  3
   4563   4561   4573   4574     1  0.0000000  0.6508444  3
   4563   4561   4573   4575     1  0.0000000  0.6508444  3
   4564   4560   4567   4568     1  0.0000000  0.6508444  3
   4564   4560   4567   4569     1  0.0000000  0.6508444  3
   4564   4576   4582   4583     1  0.0000000  0.6508444  3
   4564   4576   4582   4584     1  0.0000000  0.6508444  3
   4565   4564   4560   4567     1  0.0000000  0.6508444  3
   4565   4564   4560   4589     1  0.0000000  0.6508444  3
   4565   4564   4576   4582     1  0.0000000  0.6508444  3
   4565   4564   4576   4577     1  0.0000000  0.6508444  3
   4565   4564   4576   4578     1  0.0000000  0.6508444  3
   4566   4564   4560   4567     1  0.0000000  0.6508444  3
   4566   4564   4560   4589     1  0.0000000  0.6508444  3
   4566   4564   4576   4582     1  0.0000000  0.6508444  3
   4566   4564   4576   4577     1  0.0000000  0.6508444  3
   4566   4564   4576   4578     1  0.0000000  0.6508444  3
   4567   4570   4579   4580     1  0.0000000  0.6508444  3
   4567   4570   4579   4581     1  0.0000000  0.6508444  3
   4568   4567   4560   4589     1  0.0000000  0.6508444  3
   4568   4567   4570   4579     1  0.0000000  0.6508444  3
   4568   4567   4570   4571     1  0.0000000  0.6508444  3
   4568   4567   4570   4572     1  0.0000000  0.6508444  3
   4569   4567   4560   4589     1  0.0000000  0.6508444  3
   4569   4567   4570   4579     1  0.0000000  0.6508444  3
   4569   4567   4570   4571     1  0.0000000  0.6508444  3
   4569   4567   4570   4572     1  0.0000000  0.6508444  3
   4570   4567   4560   4589     1  0.0000000  0.6508444  3
   4571   4570   4579   4588     1  0.0000000  1.0460000  1
   4571   4570   4579   4588     1  0.0000000  0.0000000  3
   4571   4570   4579   4580     1  0.0000000  0.6508444  3
   4571   4570   4579   4581     1  0.0000000  0.6508444  3
   4572   4570   4579   4588     1  0.0000000  1.0460000  1
   4572   4570   4579   4588     1  0.0000000  0.0000000  3
   4572   4570   4579   4580     1  0.0000000  0.6508444  3
   4572   4570   4579   4581     1  0.0000000  0.6508444  3
   4573   4561   4560   4589     1  0.0000000  0.6508444  3
   4574   4573   4585   8849     1  0.0000000  1.0460000  1
   4574   4573   4585   8849     1  0.0000000  0.0000000  3
   4574   4573   4585   4586     1  0.0000000  0.6508444  3
   4574   4573   4585   4587     1  0.0000000  0.6508444  3
   4575   4573   4585   8849     1  0.0000000  1.0460000  1
   4575   4573   4585   8849     1  0.0000000  0.0000000  3
   4575   4573   4585   4586     1  0.0000000  0.6508444  3
   4575   4573   4585   4587     1  0.0000000  0.6508444  3
   4576   4564   4560   4589     1  0.0000000  0.6508444  3
   4577   4576   4582   8826     1  0.0000000  1.0460000  1
   4577   4576   4582   8826     1  0.0000000  0.0000000  3
   4577   4576   4582   4583     1  0.0000000  0.6508444  3
   4577   4576   4582   4584     1  0.0000000  0.6508444  3
   4578   4576   4582   8826     1  0.0000000  1.0460000  1
   4578   4576   4582   8826     1  0.0000000  0.0000000  3
   4578   4576   4582   4583     1  0.0000000  0.6508444  3
   4578   4576   4582   4584     1  0.0000000  0.6508444  3
   4582   8826   8822   8825     1  0.0000000  1.6038667  3
   4583   4582   8826   8822     1  0.0000000  1.6038667  3
   4584   4582   8826   8822     1  0.0000000  1.6038667  3
   4585   8849   8845   8848     1  0.0000000  1.6038667  3
   4586   4585   8849   8845     1  0.0000000  1.6038667  3
   4587   4585   8849   8845     1  0.0000000  1.6038667  3
   4590   4591   4603   4604     1  0.0000000  0.6508444  3
   4590   4591   4603   4605     1  0.0000000  0.6508444  3
   4590   4594   4606   4607     1  0.0000000  0.6508444  3
   4590   4594   4606   4608     1  0.0000000  0.6508444  3
   4590   4597   4600   4601     1  0.0000000  0.6508444  3
   4590   4597   4600   4602     1  0.0000000  0.6508444  3
   4591   4590   4594   4595     1  0.0000000  0.6508444  3
   4591   4590   4594   4596     1  0.0000000  0.6508444  3
   4591   4590   4597   4598     1  0.0000000  0.6508444  3
   4591   4590   4597   4599     1  0.0000000  0.6508444  3
   4591   4603   4615   4616     1  0.0000000  0.6508444  3
   4591   4603   4615   4617     1  0.0000000  0.6508444  3
   4592   4591   4590   4594     1  0.0000000  0.6508444  3
   4592   4591   4590   4597     1  0.0000000  0.6508444  3
   4592   4591   4590   4619     1  0.0000000  0.6508444  3
   4592   4591   4603   4615     1  0.0000000  0.6508444  3
   4592   4591   4603   4604     1  0.0000000  0.6508444  3
   4592   4591   4603   4605     1  0.0000000  0.6508444  3
   4593   4591   4590   4594     1  0.0000000  0.6508444  3
   4593   4591   4590   4597     1  0.0000000  0.6508444  3
   4593   4591   4590   4619     1  0.0000000  0.6508444  3
   4593   4591   4603   4615     1  0.0000000  0.6508444  3
   4593   4591   4603   4604     1  0.0000000  0.6508444  3
   4593   4591   4603   4605     1  0.0000000  0.6508444  3
   4594   4590   4597   4598     1  0.0000000  0.6508444  3
   4594   4590   4597   4599     1  0.0000000  0.6508444  3
   4594   4606   4612   4613     1  0.0000000  0.6508444  3
   4594   4606   4612   4614     1  0.0000000  0.6508444  3
   4595   4594   4590   4597     1  0.0000000  0.6508444  3
   4595   4594   4590   4619     1  0.0000000  0.6508444  3
   4595   4594   4606   4612     1  0.0000000  0.6508444  3
   4595   4594   4606   4607     1  0.0000000  0.6508444  3
   4595   4594   4606   4608     1  0.0000000  0.6508444  3
   4596   4594   4590   4597     1  0.0000000  0.6508444  3
   4596   4594   4590   4619     1  0.0000000  0.6508444  3
   4596   4594   4606   4612     1  0.0000000  0.6508444  3
   4596   4594   4606   4607     1  0.0000000  0.6508444  3
   4596   4594   4606   4608     1  0.0000000  0.6508444  3
   4597   4600   4609   4610     1  0.0000000  0.6508444  3
   4597   4600   4609   4611     1  0.0000000  0.6508444  3
   4598   4597   4590   4619     1  0.0000000  0.6508444  3
   4598   4597   4600   4609     1  0.0000000  0.6508444  3
   4598   4597   4600   4601     1  0.0000000  0.6508444  3
   4598   4597   4600   4602     1  0.0000000  0.6508444  3
   4599   4597   4590   4619     1  0.0000000  0.6508444  3
   4599   4597   4600   4609     1  0.0000000  0.6508444  3
   4599   4597   4600   4601     1  0.0000000  0.6508444  3
   4599   4597   4600   4602     1  0.0000000  0.6508444  3
   4600   4597   4590   4619     1  0.0000000  0.6508444  3
   4601   4600   4609   4618     1  0.0000000  1.0460000  1
   4601   4600   4609   4618     1  0.0000000  0.0000000  3
   4601   4600   4609   4610     1  0.0000000  0.6508444  3
   4601   4600   4609   4611     1  0.0000000  0.6508444  3
   4602   4600   4609   4618     1  0.0000000  1.0460000  1
   4602   4600   4609   4618     1  0.0000000  0.0000000  3
   4602   4600   4609   4610     1  0.0000000  0.6508444  3
   4602   4600   4609   4611     1  0.0000000  0.6508444  3
   4603   4591   4590   4619     1  0.0000000  0.6508444  3
   4604   4603   4615   8895     1  0.0000000  1.0460000  1
   4604   4603   4615   8895     1  0.0000000  0.0000000  3
   4604   4603   4615   4616     1  0.0000000  0.6508444  3
   4604   4603   4615   4617     1  0.0000000  0.6508444  3
   4605   4603   4615   8895     1  0.0000000  1.0460000  1
   4605   4603   4615   8895     1  0.0000000  0.0000000  3
   4605   4603   4615   4616     1  0.0000000  0.6508444  3
   4605   4603   4615   4617     1  0.0000000  0.6508444  3
   4606   4594   4590   4619     1  0.0000000  0.6508444  3
   4607   4606   4612   8872     1  0.0000000  1.0460000  1
   4607   4606   4612   8872     1  0.0000000  0.0000000  3
   4607   4606   4612   4613     1  0.0000000  0.6508444  3
   4607   4606   4612   4614     1  0.0000000  0.6508444  3
   4608   4606   4612   8872     1  0.0000000  1.0460000  1
   4608   4606   4612   8872     1  0.0000000  0.0000000  3
   4608   4606   4612   4613     1  0.0000000  0.6508444  3
   4608   4606   4612   4614     1  0.0000000  0.6508444  3
   4612   8872   8868   8871     1  0.0000000  1.6038667  3
   4613   4612   8872   8868     1  0.0000000  1.6038667  3
   4614   4612   8872   8868     1  0.0000000  1.6038667  3
   4615   8895   8891   8894     1  0.0000000  1.6038667  3
   4616   4615   8895   8891     1  0.0000000  1.6038667  3
   4617   4615   8895   8891     1  0.0000000  1.6038667  3
   4620   4621   4633   4634     1  0.0000000  0.6508444  3
   4620   4621   4633   4635     1  0.0000000  0.6508444  3
   4620   4624   4636   4637     1  0.0000000  0.6508444  3
   4620   4624   4636   4638     1  0.0000000  0.6508444  3
   4620   4627   4630   4631     1  0.0000000  0.6508444  3
   4620   4627   4630   4632     1  0.0000000  0.6508444  3
   4621   4620   4624   4625     1  0.0000000  0.6508444  3
   4621   4620   4624   4626     1  0.0000000  0.6508444  3
   4621   4620   4627   4628     1  0.0000000  0.6508444  3
   4621   4620   4627   4629     1  0.0000000  0.6508444  3
   4621   4633   4645   4646     1  0.0000000  0.6508444  3
   4621   4633   4645   4647     1  0.0000000  0.6508444  3
   4622   4621   4620   4624     1  0.0000000  0.6508444  3
   4622   4621   4620   4627     1  0.0000000  0.6508444  3
   4622   4621   4620   4649     1  0.0000000  0.6508444  3
   4622   4621   4633   4645     1  0.0000000  0.6508444  3
   4622   4621   4633   4634     1  0.0000000  0.6508444  3
   4622   4621   4633   4635     1  0.0000000  0.6508444  3
   4623   4621   4620   4624     1  0.0000000  0.6508444  3
   4623   4621   4620   4627     1  0.0000000  0.6508444  3
   4623   4621   4620   4649     1  0.0000000  0.6508444  3
   4623   4621   4633   4645     1  0.0000000  0.6508444  3
   4623   4621   4633   4634     1  0.0000000  0.6508444  3
   4623   4621   4633   4635     1  0.0000000  0.6508444  3
   4624   4620   4627   4628     1  0.0000000  0.6508444  3
   4624   4620   4627   4629     1  0.0000000  0.6508444  3
   4624   4636   4642   4643     1  0.0000000  0.6508444  3
   4624   4636   4642   4644     1  0.0000000  0.6508444  3
   4625   4624   4620   4627     1  0.0000000  0.6508444  3
   4625   4624   4620   4649     1  0.0000000  0.6508444  3
   4625   4624   4636   4642     1  0.0000000  0.6508444  3
   4625   4624   4636   4637     1  0.0000000  0.6508444  3
   4625   4624   4636   4638     1  0.0000000  0.6508444  3
   4626   4624   4620   4627     1  0.0000000  0.6508444  3
   4626   4624   4620   4649     1  0.0000000  0.6508444  3
   4626   4624   4636   4642     1  0.0000000  0.6508444  3
   4626   4624   4636   4637     1  0.0000000  0.6508444  3
   4626   4624   4636   4638     1  0.0000000  0.6508444  3
   4627   4630   4639   4640     1  0.0000000  0.6508444  3
   4627   4630   4639   4641     1  0.0000000  0.6508444  3
   4628   4627   4620   4649     1  0.0000000  0.6508444  3
   4628   4627   4630   4639     1  0.0000000  0.6508444  3
   4628   4627   4630   4631     1  0.0000000  0.6508444  3
   4628   4627   4630   4632     1  0.0000000  0.6508444  3
   4629   4627   4620   4649     1  0.0000000  0.6508444  3
   4629   4627   4630   4639     1  0.0000000  0.6508444  3
   4629   4627   4630   4631     1  0.0000000  0.6508444  3
   4629   4627   4630   4632     1  0.0000000  0.6508444  3
   4630   4627   4620   4649     1  0.0000000  0.6508444  3
   4631   4630   4639   4648     1  0.0000000  1.0460000  1
   4631   4630   4639   4648     1  0.0000000  0.0000000  3
   4631   4630   4639   4640     1  0.0000000  0.6508444  3
   4631   4630   4639   4641     1  0.0000000  0.6508444  3
   4632   4630   4639   4648     1  0.0000000  1.0460000  1
   4632   4630   4639   4648     1  0.0000000  0.0000000  3
   4632   4630   4639   4640     1  0.0000000  0.6508444  3
   4632   4630   4639   4641     1  0.0000000  0.6508444  3
   4633   4621   4620   4649     1  0.0000000  0.6508444  3
   4634   4633   4645   8941     1  0.0000000  1.0460000  1
   4634   4633   4645   8941     1  0.0000000  0.0000000  3
   4634   4633   4645   4646     1  0.0000000  0.6508444  3
   4634   4633   4645   4647     1  0.0000000  0.6508444  3
   4635   4633   4645   8941     1  0.0000000  1.0460000  1
   4635   4633   4645   8941     1  0.0000000  0.0000000  3
   4635   4633   4645   4646     1  0.0000000  0.6508444  3
   4635   4633   4645   4647     1  0.0000000  0.6508444  3
   4636   4624   4620   4649     1  0.0000000  0.6508444  3
   4637   4636   4642   8918     1  0.0000000  1.0460000  1
   4637   4636   4642   8918     1  0.0000000  0.0000000  3
   4637   4636   4642   4643     1  0.0000000  0.6508444  3
   4637   4636   4642   4644     1  0.0000000  0.6508444  3
   4638   4636   4642   8918     1  0.0000000  1.0460000  1
   4638   4636   4642   8918     1  0.0000000  0.0000000  3
   4638   4636   4642   4643     1  0.0000000  0.6508444  3
   4638   4636   4642   4644     1  0.0000000  0.6508444  3
   4642   8918   8914   8917     1  0.0000000  1.6038667  3
   4643   4642   8918   8914     1  0.0000000  1.6038667  3
   4644   4642   8918   8914     1  0.0000000  1.6038667  3
   4645   8941   8937   8940     1  0.0000000  1.6038667  3
   4646   4645   8941   8937     1  0.0000000  1.6038667  3
   4647   4645   8941   8937     1  0.0000000  1.6038667  3
   4650   4651   4663   4664     1  0.0000000  0.6508444  3
   4650   4651   4663   4665     1  0.0000000  0.6508444  3
   4650   4654   4666   4667     1  0.0000000  0.6508444  3
   4650   4654   4666   4668     1  0.0000000  0.6508444  3
   4650   4657   4660   4661     1  0.0000000  0.6508444  3
   4650   4657   4660   4662     1  0.0000000  0.6508444  3
   4651   4650   4654   4655     1  0.0000000  0.6508444  3
   4651   4650   4654   4656     1  0.0000000  0.6508444  3
   4651   4650   4657   4658     1  0.0000000  0.6508444  3
   4651   4650   4657   4659     1  0.0000000  0.6508444  3
   4651   4663   4675   4676     1  0.0000000  0.6508444  3
   4651   4663   4675   4677     1  0.0000000  0.6508444  3
   4652   4651   4650   4654     1  0.0000000  0.6508444  3
   4652   4651   4650   4657     1  0.0000000  0.6508444  3
   4652   4651   4650   4679     1  0.0000000  0.6508444  3
   4652   4651   4663   4675     1  0.0000000  0.6508444  3
   4652   4651   4663   4664     1  0.0000000  0.6508444  3
   4652   4651   4663   4665     1  0.0000000  0.6508444  3
   4653   4651   4650   4654     1  0.0000000  0.6508444  3
   4653   4651   4650   4657     1  0.0000000  0.6508444  3
   4653   4651   4650   4679     1  0.0000000  0.6508444  3
   4653   4651   4663   4675     1  0.0000000  0.6508444  3
   4653   4651   4663   4664     1  0.0000000  0.6508444  3
   4653   4651   4663   4665     1  0.0000000  0.6508444  3
   4654   4650   4657   4658     1  0.0000000  0.6508444  3
   4654   4650   4657   4659     1  0.0000000  0.6508444  3
   4654   4666   4672   4673     1  0.0000000  0.6508444  3
   4654   4666   4672   4674     1  0.0000000  0.6508444  3
   4655   4654   4650   4657     1  0.0000000  0.6508444  3
   4655   4654   4650   4679     1  0.0000000  0.6508444  3
   4655   4654   4666   4672     1  0.0000000  0.6508444  3
   4655   4654   4666   4667     1  0.0000000  0.6508444  3
   4655   4654   4666   4668     1  0.0000000  0.6508444  3
   4656   4654   4650   4657     1  0.0000000  0.6508444  3
   4656   4654   4650   4679     1  0.0000000  0.6508444  3
   4656   4654   4666   4672     1  0.0000000  0.6508444  3
   4656   4654   4666   4667     1  0.0000000  0.6508444  3
   4656   4654   4666   4668     1  0.0000000  0.6508444  3
   4657   4660   4669   4670     1  0.0000000  0.6508444  3
   4657   4660   4669   4671     1  0.0000000  0.6508444  3
   4658   4657   4650   4679     1  0.0000000  0.6508444  3
   4658   4657   4660   4669     1  0.0000000  0.6508444  3
   4658   4657   4660   4661     1  0.0000000  0.6508444  3
   4658   4657   4660   4662     1  0.0000000  0.6508444  3
   4659   4657   4650   4679     1  0.0000000  0.6508444  3
   4659   4657   4660   4669     1  0.0000000  0.6508444  3
   4659   4657   4660   4661     1  0.0000000  0.6508444  3
   4659   4657   4660   4662     1  0.0000000  0.6508444  3
   4660   4657   4650   4679     1  0.0000000  0.6508444  3
   4661   4660   4669   4678     1  0.0000000  1.0460000  1
   4661   4660   4669   4678     1  0.0000000  0.0000000  3
   4661   4660   4669   4670     1  0.0000000  0.6508444  3
   4661   4660   4669   4671     1  0.0000000  0.6508444  3
   4662   4660   4669   4678     1  0.0000000  1.0460000  1
   4662   4660   4669   4678     1  0.0000000  0.0000000  3
   4662   4660   4669   4670     1  0.0000000  0.6508444  3
   4662   4660   4669   4671     1  0.0000000  0.6508444  3
   4663   4651   4650   4679     1  0.0000000  0.6508444  3
   4664   4663   4675   8987     1  0.0000000  1.0460000  1
   4664   4663   4675   8987     1  0.0000000  0.0000000  3
   4664   4663   4675   4676     1  0.0000000  0.6508444  3
   4664   4663   4675   4677     1  0.0000000  0.6508444  3
   4665   4663   4675   8987     1  0.0000000  1.0460000  1
   4665   4663   4675   8987     1  0.0000000  0.0000000  3
   4665   4663   4675   4676     1  0.0000000  0.6508444  3
   4665   4663   4675   4677     1  0.0000000  0.6508444  3
   4666   4654   4650   4679     1  0.0000000  0.6508444  3
   4667   4666   4672   8964     1  0.0000000  1.0460000  1
   4667   4666   4672   8964     1  0.0000000  0.0000000  3
   4667   4666   4672   4673     1  0.0000000  0.6508444  3
   4667   4666   4672   4674     1  0.0000000  0.6508444  3
   4668   4666   4672   8964     1  0.0000000  1.0460000  1
   4668   4666   4672   8964     1  0.0000000  0.0000000  3
   4668   4666   4672   4673     1  0.0000000  0.6508444  3
   4668   4666   4672   4674     1  0.0000000  0.6508444  3
   4672   8964   8960   8963     1  0.0000000  1.6038667  3
   4673   4672   8964   8960     1  0.0000000  1.6038667  3
   4674   4672   8964   8960     1  0.0000000  1.6038667  3
   4675   8987   8983   8986     1  0.0000000  1.6038667  3
   4676   4675   8987   8983     1  0.0000000  1.6038667  3
   4677   4675   8987   8983     1  0.0000000  1.6038667  3
   4680   4681   4693   4694     1  0.0000000  0.6508444  3
   4680   4681   4693   4695     1  0.0000000  0.6508444  3
   4680   4684   4696   4697     1  0.0000000  0.6508444  3
   4680   4684   4696   4698     1  0.0000000  0.6508444  3
   4680   4687   4690   4691     1  0.0000000  0.6508444  3
   4680   4687   4690   4692     1  0.0000000  0.6508444  3
   4681   4680   4684   4685     1  0.0000000  0.6508444  3
   4681   4680   4684   4686     1  0.0000000  0.6508444  3
   4681   4680   4687   4688     1  0.0000000  0.6508444  3
   4681   4680   4687   4689     1  0.0000000  0.6508444  3
   4681   4693   4705   4706     1  0.0000000  0.6508444  3
   4681   4693   4705   4707     1  0.0000000  0.6508444  3
   4682   4681   4680   4684     1  0.0000000  0.6508444  3
   4682   4681   4680   4687     1  0.0000000  0.6508444  3
   4682   4681   4680   4709     1  0.0000000  0.6508444  3
   4682   4681   4693   4705     1  0.0000000  0.6508444  3
   4682   4681   4693   4694     1  0.0000000  0.6508444  3
   4682   4681   4693   4695     1  0.0000000  0.6508444  3
   4683   4681   4680   4684     1  0.0000000  0.6508444  3
   4683   4681   4680   4687     1  0.0000000  0.6508444  3
   4683   4681   4680   4709     1  0.0000000  0.6508444  3
   4683   4681   4693   4705     1  0.0000000  0.6508444  3
   4683   4681   4693   4694     1  0.0000000  0.6508444  3
   4683   4681   4693   4695     1  0.0000000  0.6508444  3
   4684   4680   4687   4688     1  0.0000000  0.6508444  3
   4684   4680   4687   4689     1  0.0000000  0.6508444  3
   4684   4696   4702   4703     1  0.0000000  0.6508444  3
   4684   4696   4702   4704     1  0.0000000  0.6508444  3
   4685   4684   4680   4687     1  0.0000000  0.6508444  3
   4685   4684   4680   4709     1  0.0000000  0.6508444  3
   4685   4684   4696   4702     1  0.0000000  0.6508444  3
   4685   4684   4696   4697     1  0.0000000  0.6508444  3
   4685   4684   4696   4698     1  0.0000000  0.6508444  3
   4686   4684   4680   4687     1  0.0000000  0.6508444  3
   4686   4684   4680   4709     1  0.0000000  0.6508444  3
   4686   4684   4696   4702     1  0.0000000  0.6508444  3
   4686   4684   4696   4697     1  0.0000000  0.6508444  3
   4686   4684   4696   4698     1  0.0000000  0.6508444  3
   4687   4690   4699   4700     1  0.0000000  0.6508444  3
   4687   4690   4699   4701     1  0.0000000  0.6508444  3
   4688   4687   4680   4709     1  0.0000000  0.6508444  3
   4688   4687   4690   4699     1  0.0000000  0.6508444  3
   4688   4687   4690   4691     1  0.0000000  0.6508444  3
   4688   4687   4690   4692     1  0.0000000  0.6508444  3
   4689   4687   4680   4709     1  0.0000000  0.6508444  3
   4689   4687   4690   4699     1  0.0000000  0.6508444  3
   4689   4687   4690   4691     1  0.0000000  0.6508444  3
   4689   4687   4690   4692     1  0.0000000  0.6508444  3
   4690   4687   4680   4709     1  0.0000000  0.6508444  3
   4691   4690   4699   4708     1  0.0000000  1.0460000  1
   4691   4690   4699   4708     1  0.0000000  0.0000000  3
   4691   4690   4699   4700     1  0.0000000  0.6508444  3
   4691   4690   4699   4701     1  0.0000000  0.6508444  3
   4692   4690   4699   4708     1  0.0000000  1.0460000  1
   4692   4690   4699   4708     1  0.0000000  0.0000000  3
   4692   4690   4699   4700     1  0.0000000  0.6508444  3
   4692   4690   4699   4701     1  0.0000000  0.6508444  3
   4693   4681   4680   4709     1  0.0000000  0.6508444  3
   4694   4693   4705   9033     1  0.0000000  1.0460000  1
   4694   4693   4705   9033     1  0.0000000  0.0000000  3
   4694   4693   4705   4706     1  0.0000000  0.6508444  3
   4694   4693   4705   4707     1  0.0000000  0.6508444  3
   4695   4693   4705   9033     1  0.0000000  1.0460000  1
   4695   4693   4705   9033     1  0.0000000  0.0000000  3
   4695   4693   4705   4706     1  0.0000000  0.6508444  3
   4695   4693   4705   4707     1  0.0000000  0.6508444  3
   4696   4684   4680   4709     1  0.0000000  0.6508444  3
   4697   4696   4702   9010     1  0.0000000  1.0460000  1
   4697   4696   4702   9010     1  0.0000000  0.0000000  3
   4697   4696   4702   4703     1  0.0000000  0.6508444  3
   4697   4696   4702   4704     1  0.0000000  0.6508444  3
   4698   4696   4702   9010     1  0.0000000  1.0460000  1
   4698   4696   4702   9010     1  0.0000000  0.0000000  3
   4698   4696   4702   4703     1  0.0000000  0.6508444  3
   4698   4696   4702   4704     1  0.0000000  0.6508444  3
   4702   9010   9006   9009     1  0.0000000  1.6038667  3
   4703   4702   9010   9006     1  0.0000000  1.6038667  3
   4704   4702   9010   9006     1  0.0000000  1.6038667  3
   4705   9033   9029   9032     1  0.0000000  1.6038667  3
   4706   4705   9033   9029     1  0.0000000  1.6038667  3
   4707   4705   9033   9029     1  0.0000000  1.6038667  3
   4710   4711   4723   4724     1  0.0000000  0.6508444  3
   4710   4711   4723   4725     1  0.0000000  0.6508444  3
   4710   4714   4726   4727     1  0.0000000  0.6508444  3
   4710   4714   4726   4728     1  0.0000000  0.6508444  3
   4710   4717   4720   4721     1  0.0000000  0.6508444  3
   4710   4717   4720   4722     1  0.0000000  0.6508444  3
   4711   4710   4714   4715     1  0.0000000  0.6508444  3
   4711   4710   4714   4716     1  0.0000000  0.6508444  3
   4711   4710   4717   4718     1  0.0000000  0.6508444  3
   4711   4710   4717   4719     1  0.0000000  0.6508444  3
   4711   4723   4735   4736     1  0.0000000  0.6508444  3
   4711   4723   4735   4737     1  0.0000000  0.6508444  3
   4712   4711   4710   4714     1  0.0000000  0.6508444  3
   4712   4711   4710   4717     1  0.0000000  0.6508444  3
   4712   4711   4710   4739     1  0.0000000  0.6508444  3
   4712   4711   4723   4735     1  0.0000000  0.6508444  3
   4712   4711   4723   4724     1  0.0000000  0.6508444  3
   4712   4711   4723   4725     1  0.0000000  0.6508444  3
   4713   4711   4710   4714     1  0.0000000  0.6508444  3
   4713   4711   4710   4717     1  0.0000000  0.6508444  3
   4713   4711   4710   4739     1  0.0000000  0.6508444  3
   4713   4711   4723   4735     1  0.0000000  0.6508444  3
   4713   4711   4723   4724     1  0.0000000  0.6508444  3
   4713   4711   4723   4725     1  0.0000000  0.6508444  3
   4714   4710   4717   4718     1  0.0000000  0.6508444  3
   4714   4710   4717   4719     1  0.0000000  0.6508444  3
   4714   4726   4732   4733     1  0.0000000  0.6508444  3
   4714   4726   4732   4734     1  0.0000000  0.6508444  3
   4715   4714   4710   4717     1  0.0000000  0.6508444  3
   4715   4714   4710   4739     1  0.0000000  0.6508444  3
   4715   4714   4726   4732     1  0.0000000  0.6508444  3
   4715   4714   4726   4727     1  0.0000000  0.6508444  3
   4715   4714   4726   4728     1  0.0000000  0.6508444  3
   4716   4714   4710   4717     1  0.0000000  0.6508444  3
   4716   4714   4710   4739     1  0.0000000  0.6508444  3
   4716   4714   4726   4732     1  0.0000000  0.6508444  3
   4716   4714   4726   4727     1  0.0000000  0.6508444  3
   4716   4714   4726   4728     1  0.0000000  0.6508444  3
   4717   4720   4729   4730     1  0.0000000  0.6508444  3
   4717   4720   4729   4731     1  0.0000000  0.6508444  3
   4718   4717   4710   4739     1  0.0000000  0.6508444  3
   4718   4717   4720   4729     1  0.0000000  0.6508444  3
   4718   4717   4720   4721     1  0.0000000  0.6508444  3
   4718   4717   4720   4722     1  0.0000000  0.6508444  3
   4719   4717   4710   4739     1  0.0000000  0.6508444  3
   4719   4717   4720   4729     1  0.0000000  0.6508444  3
   4719   4717   4720   4721     1  0.0000000  0.6508444  3
   4719   4717   4720   4722     1  0.0000000  0.6508444  3
   4720   4717   4710   4739     1  0.0000000  0.6508444  3
   4721   4720   4729   4738     1  0.0000000  1.0460000  1
   4721   4720   4729   4738     1  0.0000000  0.0000000  3
   4721   4720   4729   4730     1  0.0000000  0.6508444  3
   4721   4720   4729   4731     1  0.0000000  0.6508444  3
   4722   4720   4729   4738     1  0.0000000  1.0460000  1
   4722   4720   4729   4738     1  0.0000000  0.0000000  3
   4722   4720   4729   4730     1  0.0000000  0.6508444  3
   4722   4720   4729   4731     1  0.0000000  0.6508444  3
   4723   4711   4710   4739     1  0.0000000  0.6508444  3
   4724   4723   4735   9079     1  0.0000000  1.0460000  1
   4724   4723   4735   9079     1  0.0000000  0.0000000  3
   4724   4723   4735   4736     1  0.0000000  0.6508444  3
   4724   4723   4735   4737     1  0.0000000  0.6508444  3
   4725   4723   4735   9079     1  0.0000000  1.0460000  1
   4725   4723   4735   9079     1  0.0000000  0.0000000  3
   4725   4723   4735   4736     1  0.0000000  0.6508444  3
   4725   4723   4735   4737     1  0.0000000  0.6508444  3
   4726   4714   4710   4739     1  0.0000000  0.6508444  3
   4727   4726   4732   9056     1  0.0000000  1.0460000  1
   4727   4726   4732   9056     1  0.0000000  0.0000000  3
   4727   4726   4732   4733     1  0.0000000  0.6508444  3
   4727   4726   4732   4734     1  0.0000000  0.6508444  3
   4728   4726   4732   9056     1  0.0000000  1.0460000  1
   4728   4726   4732   9056     1  0.0000000  0.0000000  3
   4728   4726   4732   4733     1  0.0000000  0.6508444  3
   4728   4726   4732   4734     1  0.0000000  0.6508444  3
   4732   9056   9052   9055     1  0.0000000  1.6038667  3
   4733   4732   9056   9052     1  0.0000000  1.6038667  3
   4734   4732   9056   9052     1  0.0000000  1.6038667  3
   4735   9079   9075   9078     1  0.0000000  1.6038667  3
   4736   4735   9079   9075     1  0.0000000  1.6038667  3
   4737   4735   9079   9075     1  0.0000000  1.6038667  3
   4740   4741   4753   4754     1  0.0000000  0.6508444  3
   4740   4741   4753   4755     1  0.0000000  0.6508444  3
   4740   4744   4756   4757     1  0.0000000  0.6508444  3
   4740   4744   4756   4758     1  0.0000000  0.6508444  3
   4740   4747   4750   4751     1  0.0000000  0.6508444  3
   4740   4747   4750   4752     1  0.0000000  0.6508444  3
   4741   4740   4744   4745     1  0.0000000  0.6508444  3
   4741   4740   4744   4746     1  0.0000000  0.6508444  3
   4741   4740   4747   4748     1  0.0000000  0.6508444  3
   4741   4740   4747   4749     1  0.0000000  0.6508444  3
   4741   4753   4765   4766     1  0.0000000  0.6508444  3
   4741   4753   4765   4767     1  0.0000000  0.6508444  3
   4742   4741   4740   4744     1  0.0000000  0.6508444  3
   4742   4741   4740   4747     1  0.0000000  0.6508444  3
   4742   4741   4740   4769     1  0.0000000  0.6508444  3
   4742   4741   4753   4765     1  0.0000000  0.6508444  3
   4742   4741   4753   4754     1  0.0000000  0.6508444  3
   4742   4741   4753   4755     1  0.0000000  0.6508444  3
   4743   4741   4740   4744     1  0.0000000  0.6508444  3
   4743   4741   4740   4747     1  0.0000000  0.6508444  3
   4743   4741   4740   4769     1  0.0000000  0.6508444  3
   4743   4741   4753   4765     1  0.0000000  0.6508444  3
   4743   4741   4753   4754     1  0.0000000  0.6508444  3
   4743   4741   4753   4755     1  0.0000000  0.6508444  3
   4744   4740   4747   4748     1  0.0000000  0.6508444  3
   4744   4740   4747   4749     1  0.0000000  0.6508444  3
   4744   4756   4762   4763     1  0.0000000  0.6508444  3
   4744   4756   4762   4764     1  0.0000000  0.6508444  3
   4745   4744   4740   4747     1  0.0000000  0.6508444  3
   4745   4744   4740   4769     1  0.0000000  0.6508444  3
   4745   4744   4756   4762     1  0.0000000  0.6508444  3
   4745   4744   4756   4757     1  0.0000000  0.6508444  3
   4745   4744   4756   4758     1  0.0000000  0.6508444  3
   4746   4744   4740   4747     1  0.0000000  0.6508444  3
   4746   4744   4740   4769     1  0.0000000  0.6508444  3
   4746   4744   4756   4762     1  0.0000000  0.6508444  3
   4746   4744   4756   4757     1  0.0000000  0.6508444  3
   4746   4744   4756   4758     1  0.0000000  0.6508444  3
   4747   4750   4759   4760     1  0.0000000  0.6508444  3
   4747   4750   4759   4761     1  0.0000000  0.6508444  3
   4748   4747   4740   4769     1  0.0000000  0.6508444  3
   4748   4747   4750   4759     1  0.0000000  0.6508444  3
   4748   4747   4750   4751     1  0.0000000  0.6508444  3
   4748   4747   4750   4752     1  0.0000000  0.6508444  3
   4749   4747   4740   4769     1  0.0000000  0.6508444  3
   4749   4747   4750   4759     1  0.0000000  0.6508444  3
   4749   4747   4750   4751     1  0.0000000  0.6508444  3
   4749   4747   4750   4752     1  0.0000000  0.6508444  3
   4750   4747   4740   4769     1  0.0000000  0.6508444  3
   4751   4750   4759   4768     1  0.0000000  1.0460000  1
   4751   4750   4759   4768     1  0.0000000  0.0000000  3
   4751   4750   4759   4760     1  0.0000000  0.6508444  3
   4751   4750   4759   4761     1  0.0000000  0.6508444  3
   4752   4750   4759   4768     1  0.0000000  1.0460000  1
   4752   4750   4759   4768     1  0.0000000  0.0000000  3
   4752   4750   4759   4760     1  0.0000000  0.6508444  3
   4752   4750   4759   4761     1  0.0000000  0.6508444  3
   4753   4741   4740   4769     1  0.0000000  0.6508444  3
   4754   4753   4765   9125     1  0.0000000  1.0460000  1
   4754   4753   4765   9125     1  0.0000000  0.0000000  3
   4754   4753   4765   4766     1  0.0000000  0.6508444  3
   4754   4753   4765   4767     1  0.0000000  0.6508444  3
   4755   4753   4765   9125     1  0.0000000  1.0460000  1
   4755   4753   4765   9125     1  0.0000000  0.0000000  3
   4755   4753   4765   4766     1  0.0000000  0.6508444  3
   4755   4753   4765   4767     1  0.0000000  0.6508444  3
   4756   4744   4740   4769     1  0.0000000  0.6508444  3
   4757   4756   4762   9102     1  0.0000000  1.0460000  1
   4757   4756   4762   9102     1  0.0000000  0.0000000  3
   4757   4756   4762   4763     1  0.0000000  0.6508444  3
   4757   4756   4762   4764     1  0.0000000  0.6508444  3
   4758   4756   4762   9102     1  0.0000000  1.0460000  1
   4758   4756   4762   9102     1  0.0000000  0.0000000  3
   4758   4756   4762   4763     1  0.0000000  0.6508444  3
   4758   4756   4762   4764     1  0.0000000  0.6508444  3
   4762   9102   9098   9101     1  0.0000000  1.6038667  3
   4763   4762   9102   9098     1  0.0000000  1.6038667  3
   4764   4762   9102   9098     1  0.0000000  1.6038667  3
   4765   9125   9121   9124     1  0.0000000  1.6038667  3
   4766   4765   9125   9121     1  0.0000000  1.6038667  3
   4767   4765   9125   9121     1  0.0000000  1.6038667  3
   4770   4771   4783   4784     1  0.0000000  0.6508444  3
   4770   4771   4783   4785     1  0.0000000  0.6508444  3
   4770   4774   4786   4787     1  0.0000000  0.6508444  3
   4770   4774   4786   4788     1  0.0000000  0.6508444  3
   4770   4777   4780   4781     1  0.0000000  0.6508444  3
   4770   4777   4780   4782     1  0.0000000  0.6508444  3
   4771   4770   4774   4775     1  0.0000000  0.6508444  3
   4771   4770   4774   4776     1  0.0000000  0.6508444  3
   4771   4770   4777   4778     1  0.0000000  0.6508444  3
   4771   4770   4777   4779     1  0.0000000  0.6508444  3
   4771   4783   4795   4796     1  0.0000000  0.6508444  3
   4771   4783   4795   4797     1  0.0000000  0.6508444  3
   4772   4771   4770   4774     1  0.0000000  0.6508444  3
   4772   4771   4770   4777     1  0.0000000  0.6508444  3
   4772   4771   4770   4799     1  0.0000000  0.6508444  3
   4772   4771   4783   4795     1  0.0000000  0.6508444  3
   4772   4771   4783   4784     1  0.0000000  0.6508444  3
   4772   4771   4783   4785     1  0.0000000  0.6508444  3
   4773   4771   4770   4774     1  0.0000000  0.6508444  3
   4773   4771   4770   4777     1  0.0000000  0.6508444  3
   4773   4771   4770   4799     1  0.0000000  0.6508444  3
   4773   4771   4783   4795     1  0.0000000  0.6508444  3
   4773   4771   4783   4784     1  0.0000000  0.6508444  3
   4773   4771   4783   4785     1  0.0000000  0.6508444  3
   4774   4770   4777   4778     1  0.0000000  0.6508444  3
   4774   4770   4777   4779     1  0.0000000  0.6508444  3
   4774   4786   4792   4793     1  0.0000000  0.6508444  3
   4774   4786   4792   4794     1  0.0000000  0.6508444  3
   4775   4774   4770   4777     1  0.0000000  0.6508444  3
   4775   4774   4770   4799     1  0.0000000  0.6508444  3
   4775   4774   4786   4792     1  0.0000000  0.6508444  3
   4775   4774   4786   4787     1  0.0000000  0.6508444  3
   4775   4774   4786   4788     1  0.0000000  0.6508444  3
   4776   4774   4770   4777     1  0.0000000  0.6508444  3
   4776   4774   4770   4799     1  0.0000000  0.6508444  3
   4776   4774   4786   4792     1  0.0000000  0.6508444  3
   4776   4774   4786   4787     1  0.0000000  0.6508444  3
   4776   4774   4786   4788     1  0.0000000  0.6508444  3
   4777   4780   4789   4790     1  0.0000000  0.6508444  3
   4777   4780   4789   4791     1  0.0000000  0.6508444  3
   4778   4777   4770   4799     1  0.0000000  0.6508444  3
   4778   4777   4780   4789     1  0.0000000  0.6508444  3
   4778   4777   4780   4781     1  0.0000000  0.6508444  3
   4778   4777   4780   4782     1  0.0000000  0.6508444  3
   4779   4777   4770   4799     1  0.0000000  0.6508444  3
   4779   4777   4780   4789     1  0.0000000  0.6508444  3
   4779   4777   4780   4781     1  0.0000000  0.6508444  3
   4779   4777   4780   4782     1  0.0000000  0.6508444  3
   4780   4777   4770   4799     1  0.0000000  0.6508444  3
   4781   4780   4789   4798     1  0.0000000  1.0460000  1
   4781   4780   4789   4798     1  0.0000000  0.0000000  3
   4781   4780   4789   4790     1  0.0000000  0.6508444  3
   4781   4780   4789   4791     1  0.0000000  0.6508444  3
   4782   4780   4789   4798     1  0.0000000  1.0460000  1
   4782   4780   4789   4798     1  0.0000000  0.0000000  3
   4782   4780   4789   4790     1  0.0000000  0.6508444  3
   4782   4780   4789   4791     1  0.0000000  0.6508444  3
   4783   4771   4770   4799     1  0.0000000  0.6508444  3
   4784   4783   4795   9171     1  0.0000000  1.0460000  1
   4784   4783   4795   9171     1  0.0000000  0.0000000  3
   4784   4783   4795   4796     1  0.0000000  0.6508444  3
   4784   4783   4795   4797     1  0.0000000  0.6508444  3
   4785   4783   4795   9171     1  0.0000000  1.0460000  1
   4785   4783   4795   9171     1  0.0000000  0.0000000  3
   4785   4783   4795   4796     1  0.0000000  0.6508444  3
   4785   4783   4795   4797     1  0.0000000  0.6508444  3
   4786   4774   4770   4799     1  0.0000000  0.6508444  3
   4787   4786   4792   9148     1  0.0000000  1.0460000  1
   4787   4786   4792   9148     1  0.0000000  0.0000000  3
   4787   4786   4792   4793     1  0.0000000  0.6508444  3
   4787   4786   4792   4794     1  0.0000000  0.6508444  3
   4788   4786   4792   9148     1  0.0000000  1.0460000  1
   4788   4786   4792   9148     1  0.0000000  0.0000000  3
   4788   4786   4792   4793     1  0.0000000  0.6508444  3
   4788   4786   4792   4794     1  0.0000000  0.6508444  3
   4792   9148   9144   9147     1  0.0000000  1.6038667  3
   4793   4792   9148   9144     1  0.0000000  1.6038667  3
   4794   4792   9148   9144     1  0.0000000  1.6038667  3
   4795   9171   9167   9170     1  0.0000000  1.6038667  3
   4796   4795   9171   9167     1  0.0000000  1.6038667  3
   4797   4795   9171   9167     1  0.0000000  1.6038667  3
   4800   4801   4813   4814     1  0.0000000  0.6508444  3
   4800   4801   4813   4815     1  0.0000000  0.6508444  3
   4800   4804   4816   4817     1  0.0000000  0.6508444  3
   4800   4804   4816   4818     1  0.0000000  0.6508444  3
   4800   4807   4810   4811     1  0.0000000  0.6508444  3
   4800   4807   4810   4812     1  0.0000000  0.6508444  3
   4801   4800   4804   4805     1  0.0000000  0.6508444  3
   4801   4800   4804   4806     1  0.0000000  0.6508444  3
   4801   4800   4807   4808     1  0.0000000  0.6508444  3
   4801   4800   4807   4809     1  0.0000000  0.6508444  3
   4801   4813   4825   4826     1  0.0000000  0.6508444  3
   4801   4813   4825   4827     1  0.0000000  0.6508444  3
   4802   4801   4800   4804     1  0.0000000  0.6508444  3
   4802   4801   4800   4807     1  0.0000000  0.6508444  3
   4802   4801   4800   4829     1  0.0000000  0.6508444  3
   4802   4801   4813   4825     1  0.0000000  0.6508444  3
   4802   4801   4813   4814     1  0.0000000  0.6508444  3
   4802   4801   4813   4815     1  0.0000000  0.6508444  3
   4803   4801   4800   4804     1  0.0000000  0.6508444  3
   4803   4801   4800   4807     1  0.0000000  0.6508444  3
   4803   4801   4800   4829     1  0.0000000  0.6508444  3
   4803   4801   4813   4825     1  0.0000000  0.6508444  3
   4803   4801   4813   4814     1  0.0000000  0.6508444  3
   4803   4801   4813   4815     1  0.0000000  0.6508444  3
   4804   4800   4807   4808     1  0.0000000  0.6508444  3
   4804   4800   4807   4809     1  0.0000000  0.6508444  3
   4804   4816   4822   4823     1  0.0000000  0.6508444  3
   4804   4816   4822   4824     1  0.0000000  0.6508444  3
   4805   4804   4800   4807     1  0.0000000  0.6508444  3
   4805   4804   4800   4829     1  0.0000000  0.6508444  3
   4805   4804   4816   4822     1  0.0000000  0.6508444  3
   4805   4804   4816   4817     1  0.0000000  0.6508444  3
   4805   4804   4816   4818     1  0.0000000  0.6508444  3
   4806   4804   4800   4807     1  0.0000000  0.6508444  3
   4806   4804   4800   4829     1  0.0000000  0.6508444  3
   4806   4804   4816   4822     1  0.0000000  0.6508444  3
   4806   4804   4816   4817     1  0.0000000  0.6508444  3
   4806   4804   4816   4818     1  0.0000000  0.6508444  3
   4807   4810   4819   4820     1  0.0000000  0.6508444  3
   4807   4810   4819   4821     1  0.0000000  0.6508444  3
   4808   4807   4800   4829     1  0.0000000  0.6508444  3
   4808   4807   4810   4819     1  0.0000000  0.6508444  3
   4808   4807   4810   4811     1  0.0000000  0.6508444  3
   4808   4807   4810   4812     1  0.0000000  0.6508444  3
   4809   4807   4800   4829     1  0.0000000  0.6508444  3
   4809   4807   4810   4819     1  0.0000000  0.6508444  3
   4809   4807   4810   4811     1  0.0000000  0.6508444  3
   4809   4807   4810   4812     1  0.0000000  0.6508444  3
   4810   4807   4800   4829     1  0.0000000  0.6508444  3
   4811   4810   4819   4828     1  0.0000000  1.0460000  1
   4811   4810   4819   4828     1  0.0000000  0.0000000  3
   4811   4810   4819   4820     1  0.0000000  0.6508444  3
   4811   4810   4819   4821     1  0.0000000  0.6508444  3
   4812   4810   4819   4828     1  0.0000000  1.0460000  1
   4812   4810   4819   4828     1  0.0000000  0.0000000  3
   4812   4810   4819   4820     1  0.0000000  0.6508444  3
   4812   4810   4819   4821     1  0.0000000  0.6508444  3
   4813   4801   4800   4829     1  0.0000000  0.6508444  3
   4814   4813   4825   9217     1  0.0000000  1.0460000  1
   4814   4813   4825   9217     1  0.0000000  0.0000000  3
   4814   4813   4825   4826     1  0.0000000  0.6508444  3
   4814   4813   4825   4827     1  0.0000000  0.6508444  3
   4815   4813   4825   9217     1  0.0000000  1.0460000  1
   4815   4813   4825   9217     1  0.0000000  0.0000000  3
   4815   4813   4825   4826     1  0.0000000  0.6508444  3
   4815   4813   4825   4827     1  0.0000000  0.6508444  3
   4816   4804   4800   4829     1  0.0000000  0.6508444  3
   4817   4816   4822   9194     1  0.0000000  1.0460000  1
   4817   4816   4822   9194     1  0.0000000  0.0000000  3
   4817   4816   4822   4823     1  0.0000000  0.6508444  3
   4817   4816   4822   4824     1  0.0000000  0.6508444  3
   4818   4816   4822   9194     1  0.0000000  1.0460000  1
   4818   4816   4822   9194     1  0.0000000  0.0000000  3
   4818   4816   4822   4823     1  0.0000000  0.6508444  3
   4818   4816   4822   4824     1  0.0000000  0.6508444  3
   4822   9194   9190   9193     1  0.0000000  1.6038667  3
   4823   4822   9194   9190     1  0.0000000  1.6038667  3
   4824   4822   9194   9190     1  0.0000000  1.6038667  3
   4825   9217   9213   9216     1  0.0000000  1.6038667  3
   4826   4825   9217   9213     1  0.0000000  1.6038667  3
   4827   4825   9217   9213     1  0.0000000  1.6038667  3
   4830   4831   4843   4844     1  0.0000000  0.6508444  3
   4830   4831   4843   4845     1  0.0000000  0.6508444  3
   4830   4834   4846   4847     1  0.0000000  0.6508444  3
   4830   4834   4846   4848     1  0.0000000  0.6508444  3
   4830   4837   4840   4841     1  0.0000000  0.6508444  3
   4830   4837   4840   4842     1  0.0000000  0.6508444  3
   4831   4830   4834   4835     1  0.0000000  0.6508444  3
   4831   4830   4834   4836     1  0.0000000  0.6508444  3
   4831   4830   4837   4838     1  0.0000000  0.6508444  3
   4831   4830   4837   4839     1  0.0000000  0.6508444  3
   4831   4843   4855   4856     1  0.0000000  0.6508444  3
   4831   4843   4855   4857     1  0.0000000  0.6508444  3
   4832   4831   4830   4834     1  0.0000000  0.6508444  3
   4832   4831   4830   4837     1  0.0000000  0.6508444  3
   4832   4831   4830   4859     1  0.0000000  0.6508444  3
   4832   4831   4843   4855     1  0.0000000  0.6508444  3
   4832   4831   4843   4844     1  0.0000000  0.6508444  3
   4832   4831   4843   4845     1  0.0000000  0.6508444  3
   4833   4831   4830   4834     1  0.0000000  0.6508444  3
   4833   4831   4830   4837     1  0.0000000  0.6508444  3
   4833   4831   4830   4859     1  0.0000000  0.6508444  3
   4833   4831   4843   4855     1  0.0000000  0.6508444  3
   4833   4831   4843   4844     1  0.0000000  0.6508444  3
   4833   4831   4843   4845     1  0.0000000  0.6508444  3
   4834   4830   4837   4838     1  0.0000000  0.6508444  3
   4834   4830   4837   4839     1  0.0000000  0.6508444  3
   4834   4846   4852   4853     1  0.0000000  0.6508444  3
   4834   4846   4852   4854     1  0.0000000  0.6508444  3
   4835   4834   4830   4837     1  0.0000000  0.6508444  3
   4835   4834   4830   4859     1  0.0000000  0.6508444  3
   4835   4834   4846   4852     1  0.0000000  0.6508444  3
   4835   4834   4846   4847     1  0.0000000  0.6508444  3
   4835   4834   4846   4848     1  0.0000000  0.6508444  3
   4836   4834   4830   4837     1  0.0000000  0.6508444  3
   4836   4834   4830   4859     1  0.0000000  0.6508444  3
   4836   4834   4846   4852     1  0.0000000  0.6508444  3
   4836   4834   4846   4847     1  0.0000000  0.6508444  3
   4836   4834   4846   4848     1  0.0000000  0.6508444  3
   4837   4840   4849   4850     1  0.0000000  0.6508444  3
   4837   4840   4849   4851     1  0.0000000  0.6508444  3
   4838   4837   4830   4859     1  0.0000000  0.6508444  3
   4838   4837   4840   4849     1  0.0000000  0.6508444  3
   4838   4837   4840   4841     1  0.0000000  0.6508444  3
   4838   4837   4840   4842     1  0.0000000  0.6508444  3
   4839   4837   4830   4859     1  0.0000000  0.6508444  3
   4839   4837   4840   4849     1  0.0000000  0.6508444  3
   4839   4837   4840   4841     1  0.0000000  0.6508444  3
   4839   4837   4840   4842     1  0.0000000  0.6508444  3
   4840   4837   4830   4859     1  0.0000000  0.6508444  3
   4841   4840   4849   4858     1  0.0000000  1.0460000  1
   4841   4840   4849   4858     1  0.0000000  0.0000000  3
   4841   4840   4849   4850     1  0.0000000  0.6508444  3
   4841   4840   4849   4851     1  0.0000000  0.6508444  3
   4842   4840   4849   4858     1  0.0000000  1.0460000  1
   4842   4840   4849   4858     1  0.0000000  0.0000000  3
   4842   4840   4849   4850     1  0.0000000  0.6508444  3
   4842   4840   4849   4851     1  0.0000000  0.6508444  3
   4843   4831   4830   4859     1  0.0000000  0.6508444  3
   4844   4843   4855   9263     1  0.0000000  1.0460000  1
   4844   4843   4855   9263     1  0.0000000  0.0000000  3
   4844   4843   4855   4856     1  0.0000000  0.6508444  3
   4844   4843   4855   4857     1  0.0000000  0.6508444  3
   4845   4843   4855   9263     1  0.0000000  1.0460000  1
   4845   4843   4855   9263     1  0.0000000  0.0000000  3
   4845   4843   4855   4856     1  0.0000000  0.6508444  3
   4845   4843   4855   4857     1  0.0000000  0.6508444  3
   4846   4834   4830   4859     1  0.0000000  0.6508444  3
   4847   4846   4852   9240     1  0.0000000  1.0460000  1
   4847   4846   4852   9240     1  0.0000000  0.0000000  3
   4847   4846   4852   4853     1  0.0000000  0.6508444  3
   4847   4846   4852   4854     1  0.0000000  0.6508444  3
   4848   4846   4852   9240     1  0.0000000  1.0460000  1
   4848   4846   4852   9240     1  0.0000000  0.0000000  3
   4848   4846   4852   4853     1  0.0000000  0.6508444  3
   4848   4846   4852   4854     1  0.0000000  0.6508444  3
   4852   9240   9236   9239     1  0.0000000  1.6038667  3
   4853   4852   9240   9236     1  0.0000000  1.6038667  3
   4854   4852   9240   9236     1  0.0000000  1.6038667  3
   4855   9263   9259   9262     1  0.0000000  1.6038667  3
   4856   4855   9263   9259     1  0.0000000  1.6038667  3
   4857   4855   9263   9259     1  0.0000000  1.6038667  3
   4860   4861   4873   4874     1  0.0000000  0.6508444  3
   4860   4861   4873   4875     1  0.0000000  0.6508444  3
   4860   4864   4876   4877     1  0.0000000  0.6508444  3
   4860   4864   4876   4878     1  0.0000000  0.6508444  3
   4860   4867   4870   4871     1  0.0000000  0.6508444  3
   4860   4867   4870   4872     1  0.0000000  0.6508444  3
   4861   4860   4864   4865     1  0.0000000  0.6508444  3
   4861   4860   4864   4866     1  0.0000000  0.6508444  3
   4861   4860   4867   4868     1  0.0000000  0.6508444  3
   4861   4860   4867   4869     1  0.0000000  0.6508444  3
   4861   4873   4885   4886     1  0.0000000  0.6508444  3
   4861   4873   4885   4887     1  0.0000000  0.6508444  3
   4862   4861   4860   4864     1  0.0000000  0.6508444  3
   4862   4861   4860   4867     1  0.0000000  0.6508444  3
   4862   4861   4860   4889     1  0.0000000  0.6508444  3
   4862   4861   4873   4885     1  0.0000000  0.6508444  3
   4862   4861   4873   4874     1  0.0000000  0.6508444  3
   4862   4861   4873   4875     1  0.0000000  0.6508444  3
   4863   4861   4860   4864     1  0.0000000  0.6508444  3
   4863   4861   4860   4867     1  0.0000000  0.6508444  3
   4863   4861   4860   4889     1  0.0000000  0.6508444  3
   4863   4861   4873   4885     1  0.0000000  0.6508444  3
   4863   4861   4873   4874     1  0.0000000  0.6508444  3
   4863   4861   4873   4875     1  0.0000000  0.6508444  3
   4864   4860   4867   4868     1  0.0000000  0.6508444  3
   4864   4860   4867   4869     1  0.0000000  0.6508444  3
   4864   4876   4882   4883     1  0.0000000  0.6508444  3
   4864   4876   4882   4884     1  0.0000000  0.6508444  3
   4865   4864   4860   4867     1  0.0000000  0.6508444  3
   4865   4864   4860   4889     1  0.0000000  0.6508444  3
   4865   4864   4876   4882     1  0.0000000  0.6508444  3
   4865   4864   4876   4877     1  0.0000000  0.6508444  3
   4865   4864   4876   4878     1  0.0000000  0.6508444  3
   4866   4864   4860   4867     1  0.0000000  0.6508444  3
   4866   4864   4860   4889     1  0.0000000  0.6508444  3
   4866   4864   4876   4882     1  0.0000000  0.6508444  3
   4866   4864   4876   4877     1  0.0000000  0.6508444  3
   4866   4864   4876   4878     1  0.0000000  0.6508444  3
   4867   4870   4879   4880     1  0.0000000  0.6508444  3
   4867   4870   4879   4881     1  0.0000000  0.6508444  3
   4868   4867   4860   4889     1  0.0000000  0.6508444  3
   4868   4867   4870   4879     1  0.0000000  0.6508444  3
   4868   4867   4870   4871     1  0.0000000  0.6508444  3
   4868   4867   4870   4872     1  0.0000000  0.6508444  3
   4869   4867   4860   4889     1  0.0000000  0.6508444  3
   4869   4867   4870   4879     1  0.0000000  0.6508444  3
   4869   4867   4870   4871     1  0.0000000  0.6508444  3
   4869   4867   4870   4872     1  0.0000000  0.6508444  3
   4870   4867   4860   4889     1  0.0000000  0.6508444  3
   4871   4870   4879   4888     1  0.0000000  1.0460000  1
   4871   4870   4879   4888     1  0.0000000  0.0000000  3
   4871   4870   4879   4880     1  0.0000000  0.6508444  3
   4871   4870   4879   4881     1  0.0000000  0.6508444  3
   4872   4870   4879   4888     1  0.0000000  1.0460000  1
   4872   4870   4879   4888     1  0.0000000  0.0000000  3
   4872   4870   4879   4880     1  0.0000000  0.6508444  3
   4872   4870   4879   4881     1  0.0000000  0.6508444  3
   4873   4861   4860   4889     1  0.0000000  0.6508444  3
   4874   4873   4885   9309     1  0.0000000  1.0460000  1
   4874   4873   4885   9309     1  0.0000000  0.0000000  3
   4874   4873   4885   4886     1  0.0000000  0.6508444  3
   4874   4873   4885   4887     1  0.0000000  0.6508444  3
   4875   4873   4885   9309     1  0.0000000  1.0460000  1
   4875   4873   4885   9309     1  0.0000000  0.0000000  3
   4875   4873   4885   4886     1  0.0000000  0.6508444  3
   4875   4873   4885   4887     1  0.0000000  0.6508444  3
   4876   4864   4860   4889     1  0.0000000  0.6508444  3
   4877   4876   4882   9286     1  0.0000000  1.0460000  1
   4877   4876   4882   9286     1  0.0000000  0.0000000  3
   4877   4876   4882   4883     1  0.0000000  0.6508444  3
   4877   4876   4882   4884     1  0.0000000  0.6508444  3
   4878   4876   4882   9286     1  0.0000000  1.0460000  1
   4878   4876   4882   9286     1  0.0000000  0.0000000  3
   4878   4876   4882   4883     1  0.0000000  0.6508444  3
   4878   4876   4882   4884     1  0.0000000  0.6508444  3
   4882   9286   9282   9285     1  0.0000000  1.6038667  3
   4883   4882   9286   9282     1  0.0000000  1.6038667  3
   4884   4882   9286   9282     1  0.0000000  1.6038667  3
   4885   9309   9305   9308     1  0.0000000  1.6038667  3
   4886   4885   9309   9305     1  0.0000000  1.6038667  3
   4887   4885   9309   9305     1  0.0000000  1.6038667  3
   4890   4891   4903   4904     1  0.0000000  0.6508444  3
   4890   4891   4903   4905     1  0.0000000  0.6508444  3
   4890   4894   4906   4907     1  0.0000000  0.6508444  3
   4890   4894   4906   4908     1  0.0000000  0.6508444  3
   4890   4897   4900   4901     1  0.0000000  0.6508444  3
   4890   4897   4900   4902     1  0.0000000  0.6508444  3
   4891   4890   4894   4895     1  0.0000000  0.6508444  3
   4891   4890   4894   4896     1  0.0000000  0.6508444  3
   4891   4890   4897   4898     1  0.0000000  0.6508444  3
   4891   4890   4897   4899     1  0.0000000  0.6508444  3
   4891   4903   4915   4916     1  0.0000000  0.6508444  3
   4891   4903   4915   4917     1  0.0000000  0.6508444  3
   4892   4891   4890   4894     1  0.0000000  0.6508444  3
   4892   4891   4890   4897     1  0.0000000  0.6508444  3
   4892   4891   4890   4919     1  0.0000000  0.6508444  3
   4892   4891   4903   4915     1  0.0000000  0.6508444  3
   4892   4891   4903   4904     1  0.0000000  0.6508444  3
   4892   4891   4903   4905     1  0.0000000  0.6508444  3
   4893   4891   4890   4894     1  0.0000000  0.6508444  3
   4893   4891   4890   4897     1  0.0000000  0.6508444  3
   4893   4891   4890   4919     1  0.0000000  0.6508444  3
   4893   4891   4903   4915     1  0.0000000  0.6508444  3
   4893   4891   4903   4904     1  0.0000000  0.6508444  3
   4893   4891   4903   4905     1  0.0000000  0.6508444  3
   4894   4890   4897   4898     1  0.0000000  0.6508444  3
   4894   4890   4897   4899     1  0.0000000  0.6508444  3
   4894   4906   4912   4913     1  0.0000000  0.6508444  3
   4894   4906   4912   4914     1  0.0000000  0.6508444  3
   4895   4894   4890   4897     1  0.0000000  0.6508444  3
   4895   4894   4890   4919     1  0.0000000  0.6508444  3
   4895   4894   4906   4912     1  0.0000000  0.6508444  3
   4895   4894   4906   4907     1  0.0000000  0.6508444  3
   4895   4894   4906   4908     1  0.0000000  0.6508444  3
   4896   4894   4890   4897     1  0.0000000  0.6508444  3
   4896   4894   4890   4919     1  0.0000000  0.6508444  3
   4896   4894   4906   4912     1  0.0000000  0.6508444  3
   4896   4894   4906   4907     1  0.0000000  0.6508444  3
   4896   4894   4906   4908     1  0.0000000  0.6508444  3
   4897   4900   4909   4910     1  0.0000000  0.6508444  3
   4897   4900   4909   4911     1  0.0000000  0.6508444  3
   4898   4897   4890   4919     1  0.0000000  0.6508444  3
   4898   4897   4900   4909     1  0.0000000  0.6508444  3
   4898   4897   4900   4901     1  0.0000000  0.6508444  3
   4898   4897   4900   4902     1  0.0000000  0.6508444  3
   4899   4897   4890   4919     1  0.0000000  0.6508444  3
   4899   4897   4900   4909     1  0.0000000  0.6508444  3
   4899   4897   4900   4901     1  0.0000000  0.6508444  3
   4899   4897   4900   4902     1  0.0000000  0.6508444  3
   4900   4897   4890   4919     1  0.0000000  0.6508444  3
   4901   4900   4909   4918     1  0.0000000  1.0460000  1
   4901   4900   4909   4918     1  0.0000000  0.0000000  3
   4901   4900   4909   4910     1  0.0000000  0.6508444  3
   4901   4900   4909   4911     1  0.0000000  0.6508444  3
   4902   4900   4909   4918     1  0.0000000  1.0460000  1
   4902   4900   4909   4918     1  0.0000000  0.0000000  3
   4902   4900   4909   4910     1  0.0000000  0.6508444  3
   4902   4900   4909   4911     1  0.0000000  0.6508444  3
   4903   4891   4890   4919     1  0.0000000  0.6508444  3
   4904   4903   4915   9355     1  0.0000000  1.0460000  1
   4904   4903   4915   9355     1  0.0000000  0.0000000  3
   4904   4903   4915   4916     1  0.0000000  0.6508444  3
   4904   4903   4915   4917     1  0.0000000  0.6508444  3
   4905   4903   4915   9355     1  0.0000000  1.0460000  1
   4905   4903   4915   9355     1  0.0000000  0.0000000  3
   4905   4903   4915   4916     1  0.0000000  0.6508444  3
   4905   4903   4915   4917     1  0.0000000  0.6508444  3
   4906   4894   4890   4919     1  0.0000000  0.6508444  3
   4907   4906   4912   9332     1  0.0000000  1.0460000  1
   4907   4906   4912   9332     1  0.0000000  0.0000000  3
   4907   4906   4912   4913     1  0.0000000  0.6508444  3
   4907   4906   4912   4914     1  0.0000000  0.6508444  3
   4908   4906   4912   9332     1  0.0000000  1.0460000  1
   4908   4906   4912   9332     1  0.0000000  0.0000000  3
   4908   4906   4912   4913     1  0.0000000  0.6508444  3
   4908   4906   4912   4914     1  0.0000000  0.6508444  3
   4912   9332   9328   9331     1  0.0000000  1.6038667  3
   4913   4912   9332   9328     1  0.0000000  1.6038667  3
   4914   4912   9332   9328     1  0.0000000  1.6038667  3
   4915   9355   9351   9354     1  0.0000000  1.6038667  3
   4916   4915   9355   9351     1  0.0000000  1.6038667  3
   4917   4915   9355   9351     1  0.0000000  1.6038667  3
   4920   4921   4933   4934     1  0.0000000  0.6508444  3
   4920   4921   4933   4935     1  0.0000000  0.6508444  3
   4920   4924   4936   4937     1  0.0000000  0.6508444  3
   4920   4924   4936   4938     1  0.0000000  0.6508444  3
   4920   4927   4930   4931     1  0.0000000  0.6508444  3
   4920   4927   4930   4932     1  0.0000000  0.6508444  3
   4921   4920   4924   4925     1  0.0000000  0.6508444  3
   4921   4920   4924   4926     1  0.0000000  0.6508444  3
   4921   4920   4927   4928     1  0.0000000  0.6508444  3
   4921   4920   4927   4929     1  0.0000000  0.6508444  3
   4921   4933   4945   4946     1  0.0000000  0.6508444  3
   4921   4933   4945   4947     1  0.0000000  0.6508444  3
   4922   4921   4920   4924     1  0.0000000  0.6508444  3
   4922   4921   4920   4927     1  0.0000000  0.6508444  3
   4922   4921   4920   4949     1  0.0000000  0.6508444  3
   4922   4921   4933   4945     1  0.0000000  0.6508444  3
   4922   4921   4933   4934     1  0.0000000  0.6508444  3
   4922   4921   4933   4935     1  0.0000000  0.6508444  3
   4923   4921   4920   4924     1  0.0000000  0.6508444  3
   4923   4921   4920   4927     1  0.0000000  0.6508444  3
   4923   4921   4920   4949     1  0.0000000  0.6508444  3
   4923   4921   4933   4945     1  0.0000000  0.6508444  3
   4923   4921   4933   4934     1  0.0000000  0.6508444  3
   4923   4921   4933   4935     1  0.0000000  0.6508444  3
   4924   4920   4927   4928     1  0.0000000  0.6508444  3
   4924   4920   4927   4929     1  0.0000000  0.6508444  3
   4924   4936   4942   4943     1  0.0000000  0.6508444  3
   4924   4936   4942   4944     1  0.0000000  0.6508444  3
   4925   4924   4920   4927     1  0.0000000  0.6508444  3
   4925   4924   4920   4949     1  0.0000000  0.6508444  3
   4925   4924   4936   4942     1  0.0000000  0.6508444  3
   4925   4924   4936   4937     1  0.0000000  0.6508444  3
   4925   4924   4936   4938     1  0.0000000  0.6508444  3
   4926   4924   4920   4927     1  0.0000000  0.6508444  3
   4926   4924   4920   4949     1  0.0000000  0.6508444  3
   4926   4924   4936   4942     1  0.0000000  0.6508444  3
   4926   4924   4936   4937     1  0.0000000  0.6508444  3
   4926   4924   4936   4938     1  0.0000000  0.6508444  3
   4927   4930   4939   4940     1  0.0000000  0.6508444  3
   4927   4930   4939   4941     1  0.0000000  0.6508444  3
   4928   4927   4920   4949     1  0.0000000  0.6508444  3
   4928   4927   4930   4939     1  0.0000000  0.6508444  3
   4928   4927   4930   4931     1  0.0000000  0.6508444  3
   4928   4927   4930   4932     1  0.0000000  0.6508444  3
   4929   4927   4920   4949     1  0.0000000  0.6508444  3
   4929   4927   4930   4939     1  0.0000000  0.6508444  3
   4929   4927   4930   4931     1  0.0000000  0.6508444  3
   4929   4927   4930   4932     1  0.0000000  0.6508444  3
   4930   4927   4920   4949     1  0.0000000  0.6508444  3
   4931   4930   4939   4948     1  0.0000000  1.0460000  1
   4931   4930   4939   4948     1  0.0000000  0.0000000  3
   4931   4930   4939   4940     1  0.0000000  0.6508444  3
   4931   4930   4939   4941     1  0.0000000  0.6508444  3
   4932   4930   4939   4948     1  0.0000000  1.0460000  1
   4932   4930   4939   4948     1  0.0000000  0.0000000  3
   4932   4930   4939   4940     1  0.0000000  0.6508444  3
   4932   4930   4939   4941     1  0.0000000  0.6508444  3
   4933   4921   4920   4949     1  0.0000000  0.6508444  3
   4934   4933   4945   9401     1  0.0000000  1.0460000  1
   4934   4933   4945   9401     1  0.0000000  0.0000000  3
   4934   4933   4945   4946     1  0.0000000  0.6508444  3
   4934   4933   4945   4947     1  0.0000000  0.6508444  3
   4935   4933   4945   9401     1  0.0000000  1.0460000  1
   4935   4933   4945   9401     1  0.0000000  0.0000000  3
   4935   4933   4945   4946     1  0.0000000  0.6508444  3
   4935   4933   4945   4947     1  0.0000000  0.6508444  3
   4936   4924   4920   4949     1  0.0000000  0.6508444  3
   4937   4936   4942   9378     1  0.0000000  1.0460000  1
   4937   4936   4942   9378     1  0.0000000  0.0000000  3
   4937   4936   4942   4943     1  0.0000000  0.6508444  3
   4937   4936   4942   4944     1  0.0000000  0.6508444  3
   4938   4936   4942   9378     1  0.0000000  1.0460000  1
   4938   4936   4942   9378     1  0.0000000  0.0000000  3
   4938   4936   4942   4943     1  0.0000000  0.6508444  3
   4938   4936   4942   4944     1  0.0000000  0.6508444  3
   4942   9378   9374   9377     1  0.0000000  1.6038667  3
   4943   4942   9378   9374     1  0.0000000  1.6038667  3
   4944   4942   9378   9374     1  0.0000000  1.6038667  3
   4945   9401   9397   9400     1  0.0000000  1.6038667  3
   4946   4945   9401   9397     1  0.0000000  1.6038667  3
   4947   4945   9401   9397     1  0.0000000  1.6038667  3
   4950   4951   4963   4964     1  0.0000000  0.6508444  3
   4950   4951   4963   4965     1  0.0000000  0.6508444  3
   4950   4954   4966   4967     1  0.0000000  0.6508444  3
   4950   4954   4966   4968     1  0.0000000  0.6508444  3
   4950   4957   4960   4961     1  0.0000000  0.6508444  3
   4950   4957   4960   4962     1  0.0000000  0.6508444  3
   4951   4950   4954   4955     1  0.0000000  0.6508444  3
   4951   4950   4954   4956     1  0.0000000  0.6508444  3
   4951   4950   4957   4958     1  0.0000000  0.6508444  3
   4951   4950   4957   4959     1  0.0000000  0.6508444  3
   4951   4963   4975   4976     1  0.0000000  0.6508444  3
   4951   4963   4975   4977     1  0.0000000  0.6508444  3
   4952   4951   4950   4954     1  0.0000000  0.6508444  3
   4952   4951   4950   4957     1  0.0000000  0.6508444  3
   4952   4951   4950   4979     1  0.0000000  0.6508444  3
   4952   4951   4963   4975     1  0.0000000  0.6508444  3
   4952   4951   4963   4964     1  0.0000000  0.6508444  3
   4952   4951   4963   4965     1  0.0000000  0.6508444  3
   4953   4951   4950   4954     1  0.0000000  0.6508444  3
   4953   4951   4950   4957     1  0.0000000  0.6508444  3
   4953   4951   4950   4979     1  0.0000000  0.6508444  3
   4953   4951   4963   4975     1  0.0000000  0.6508444  3
   4953   4951   4963   4964     1  0.0000000  0.6508444  3
   4953   4951   4963   4965     1  0.0000000  0.6508444  3
   4954   4950   4957   4958     1  0.0000000  0.6508444  3
   4954   4950   4957   4959     1  0.0000000  0.6508444  3
   4954   4966   4972   4973     1  0.0000000  0.6508444  3
   4954   4966   4972   4974     1  0.0000000  0.6508444  3
   4955   4954   4950   4957     1  0.0000000  0.6508444  3
   4955   4954   4950   4979     1  0.0000000  0.6508444  3
   4955   4954   4966   4972     1  0.0000000  0.6508444  3
   4955   4954   4966   4967     1  0.0000000  0.6508444  3
   4955   4954   4966   4968     1  0.0000000  0.6508444  3
   4956   4954   4950   4957     1  0.0000000  0.6508444  3
   4956   4954   4950   4979     1  0.0000000  0.6508444  3
   4956   4954   4966   4972     1  0.0000000  0.6508444  3
   4956   4954   4966   4967     1  0.0000000  0.6508444  3
   4956   4954   4966   4968     1  0.0000000  0.6508444  3
   4957   4960   4969   4970     1  0.0000000  0.6508444  3
   4957   4960   4969   4971     1  0.0000000  0.6508444  3
   4958   4957   4950   4979     1  0.0000000  0.6508444  3
   4958   4957   4960   4969     1  0.0000000  0.6508444  3
   4958   4957   4960   4961     1  0.0000000  0.6508444  3
   4958   4957   4960   4962     1  0.0000000  0.6508444  3
   4959   4957   4950   4979     1  0.0000000  0.6508444  3
   4959   4957   4960   4969     1  0.0000000  0.6508444  3
   4959   4957   4960   4961     1  0.0000000  0.6508444  3
   4959   4957   4960   4962     1  0.0000000  0.6508444  3
   4960   4957   4950   4979     1  0.0000000  0.6508444  3
   4961   4960   4969   4978     1  0.0000000  1.0460000  1
   4961   4960   4969   4978     1  0.0000000  0.0000000  3
   4961   4960   4969   4970     1  0.0000000  0.6508444  3
   4961   4960   4969   4971     1  0.0000000  0.6508444  3
   4962   4960   4969   4978     1  0.0000000  1.0460000  1
   4962   4960   4969   4978     1  0.0000000  0.0000000  3
   4962   4960   4969   4970     1  0.0000000  0.6508444  3
   4962   4960   4969   4971     1  0.0000000  0.6508444  3
   4963   4951   4950   4979     1  0.0000000  0.6508444  3
   4964   4963   4975   9447     1  0.0000000  1.0460000  1
   4964   4963   4975   9447     1  0.0000000  0.0000000  3
   4964   4963   4975   4976     1  0.0000000  0.6508444  3
   4964   4963   4975   4977     1  0.0000000  0.6508444  3
   4965   4963   4975   9447     1  0.0000000  1.0460000  1
   4965   4963   4975   9447     1  0.0000000  0.0000000  3
   4965   4963   4975   4976     1  0.0000000  0.6508444  3
   4965   4963   4975   4977     1  0.0000000  0.6508444  3
   4966   4954   4950   4979     1  0.0000000  0.6508444  3
   4967   4966   4972   9424     1  0.0000000  1.0460000  1
   4967   4966   4972   9424     1  0.0000000  0.0000000  3
   4967   4966   4972   4973     1  0.0000000  0.6508444  3
   4967   4966   4972   4974     1  0.0000000  0.6508444  3
   4968   4966   4972   9424     1  0.0000000  1.0460000  1
   4968   4966   4972   9424     1  0.0000000  0.0000000  3
   4968   4966   4972   4973     1  0.0000000  0.6508444  3
   4968   4966   4972   4974     1  0.0000000  0.6508444  3
   4972   9424   9420   9423     1  0.0000000  1.6038667  3
   4973   4972   9424   9420     1  0.0000000  1.6038667  3
   4974   4972   9424   9420     1  0.0000000  1.6038667  3
   4975   9447   9443   9446     1  0.0000000  1.6038667  3
   4976   4975   9447   9443     1  0.0000000  1.6038667  3
   4977   4975   9447   9443     1  0.0000000  1.6038667  3
   4980   4981   4993   4994     1  0.0000000  0.6508444  3
   4980   4981   4993   4995     1  0.0000000  0.6508444  3
   4980   4984   4996   4997     1  0.0000000  0.6508444  3
   4980   4984   4996   4998     1  0.0000000  0.6508444  3
   4980   4987   4990   4991     1  0.0000000  0.6508444  3
   4980   4987   4990   4992     1  0.0000000  0.6508444  3
   4981   4980   4984   4985     1  0.0000000  0.6508444  3
   4981   4980   4984   4986     1  0.0000000  0.6508444  3
   4981   4980   4987   4988     1  0.0000000  0.6508444  3
   4981   4980   4987   4989     1  0.0000000  0.6508444  3
   4981   4993   5005   5006     1  0.0000000  0.6508444  3
   4981   4993   5005   5007     1  0.0000000  0.6508444  3
   4982   4981   4980   4984     1  0.0000000  0.6508444  3
   4982   4981   4980   4987     1  0.0000000  0.6508444  3
   4982   4981   4980   5009     1  0.0000000  0.6508444  3
   4982   4981   4993   5005     1  0.0000000  0.6508444  3
   4982   4981   4993   4994     1  0.0000000  0.6508444  3
   4982   4981   4993   4995     1  0.0000000  0.6508444  3
   4983   4981   4980   4984     1  0.0000000  0.6508444  3
   4983   4981   4980   4987     1  0.0000000  0.6508444  3
   4983   4981   4980   5009     1  0.0000000  0.6508444  3
   4983   4981   4993   5005     1  0.0000000  0.6508444  3
   4983   4981   4993   4994     1  0.0000000  0.6508444  3
   4983   4981   4993   4995     1  0.0000000  0.6508444  3
   4984   4980   4987   4988     1  0.0000000  0.6508444  3
   4984   4980   4987   4989     1  0.0000000  0.6508444  3
   4984   4996   5002   5003     1  0.0000000  0.6508444  3
   4984   4996   5002   5004     1  0.0000000  0.6508444  3
   4985   4984   4980   4987     1  0.0000000  0.6508444  3
   4985   4984   4980   5009     1  0.0000000  0.6508444  3
   4985   4984   4996   5002     1  0.0000000  0.6508444  3
   4985   4984   4996   4997     1  0.0000000  0.6508444  3
   4985   4984   4996   4998     1  0.0000000  0.6508444  3
   4986   4984   4980   4987     1  0.0000000  0.6508444  3
   4986   4984   4980   5009     1  0.0000000  0.6508444  3
   4986   4984   4996   5002     1  0.0000000  0.6508444  3
   4986   4984   4996   4997     1  0.0000000  0.6508444  3
   4986   4984   4996   4998     1  0.0000000  0.6508444  3
   4987   4990   4999   5000     1  0.0000000  0.6508444  3
   4987   4990   4999   5001     1  0.0000000  0.6508444  3
   4988   4987   4980   5009     1  0.0000000  0.6508444  3
   4988   4987   4990   4999     1  0.0000000  0.6508444  3
   4988   4987   4990   4991     1  0.0000000  0.6508444  3
   4988   4987   4990   4992     1  0.0000000  0.6508444  3
   4989   4987   4980   5009     1  0.0000000  0.6508444  3
   4989   4987   4990   4999     1  0.0000000  0.6508444  3
   4989   4987   4990   4991     1  0.0000000  0.6508444  3
   4989   4987   4990   4992     1  0.0000000  0.6508444  3
   4990   4987   4980   5009     1  0.0000000  0.6508444  3
   4991   4990   4999   5008     1  0.0000000  1.0460000  1
   4991   4990   4999   5008     1  0.0000000  0.0000000  3
   4991   4990   4999   5000     1  0.0000000  0.6508444  3
   4991   4990   4999   5001     1  0.0000000  0.6508444  3
   4992   4990   4999   5008     1  0.0000000  1.0460000  1
   4992   4990   4999   5008     1  0.0000000  0.0000000  3
   4992   4990   4999   5000     1  0.0000000  0.6508444  3
   4992   4990   4999   5001     1  0.0000000  0.6508444  3
   4993   4981   4980   5009     1  0.0000000  0.6508444  3
   4994   4993   5005   9493     1  0.0000000  1.0460000  1
   4994   4993   5005   9493     1  0.0000000  0.0000000  3
   4994   4993   5005   5006     1  0.0000000  0.6508444  3
   4994   4993   5005   5007     1  0.0000000  0.6508444  3
   4995   4993   5005   9493     1  0.0000000  1.0460000  1
   4995   4993   5005   9493     1  0.0000000  0.0000000  3
   4995   4993   5005   5006     1  0.0000000  0.6508444  3
   4995   4993   5005   5007     1  0.0000000  0.6508444  3
   4996   4984   4980   5009     1  0.0000000  0.6508444  3
   4997   4996   5002   9470     1  0.0000000  1.0460000  1
   4997   4996   5002   9470     1  0.0000000  0.0000000  3
   4997   4996   5002   5003     1  0.0000000  0.6508444  3
   4997   4996   5002   5004     1  0.0000000  0.6508444  3
   4998   4996   5002   9470     1  0.0000000  1.0460000  1
   4998   4996   5002   9470     1  0.0000000  0.0000000  3
   4998   4996   5002   5003     1  0.0000000  0.6508444  3
   4998   4996   5002   5004     1  0.0000000  0.6508444  3
   5002   9470   9466   9469     1  0.0000000  1.6038667  3
   5003   5002   9470   9466     1  0.0000000  1.6038667  3
   5004   5002   9470   9466     1  0.0000000  1.6038667  3
   5005   9493   9489   9492     1  0.0000000  1.6038667  3
   5006   5005   9493   9489     1  0.0000000  1.6038667  3
   5007   5005   9493   9489     1  0.0000000  1.6038667  3
   5010   5011   5023   5024     1  0.0000000  0.6508444  3
   5010   5011   5023   5025     1  0.0000000  0.6508444  3
   5010   5014   5026   5027     1  0.0000000  0.6508444  3
   5010   5014   5026   5028     1  0.0000000  0.6508444  3
   5010   5017   5020   5021     1  0.0000000  0.6508444  3
   5010   5017   5020   5022     1  0.0000000  0.6508444  3
   5011   5010   5014   5015     1  0.0000000  0.6508444  3
   5011   5010   5014   5016     1  0.0000000  0.6508444  3
   5011   5010   5017   5018     1  0.0000000  0.6508444  3
   5011   5010   5017   5019     1  0.0000000  0.6508444  3
   5011   5023   5035   5036     1  0.0000000  0.6508444  3
   5011   5023   5035   5037     1  0.0000000  0.6508444  3
   5012   5011   5010   5014     1  0.0000000  0.6508444  3
   5012   5011   5010   5017     1  0.0000000  0.6508444  3
   5012   5011   5010   5039     1  0.0000000  0.6508444  3
   5012   5011   5023   5035     1  0.0000000  0.6508444  3
   5012   5011   5023   5024     1  0.0000000  0.6508444  3
   5012   5011   5023   5025     1  0.0000000  0.6508444  3
   5013   5011   5010   5014     1  0.0000000  0.6508444  3
   5013   5011   5010   5017     1  0.0000000  0.6508444  3
   5013   5011   5010   5039     1  0.0000000  0.6508444  3
   5013   5011   5023   5035     1  0.0000000  0.6508444  3
   5013   5011   5023   5024     1  0.0000000  0.6508444  3
   5013   5011   5023   5025     1  0.0000000  0.6508444  3
   5014   5010   5017   5018     1  0.0000000  0.6508444  3
   5014   5010   5017   5019     1  0.0000000  0.6508444  3
   5014   5026   5032   5033     1  0.0000000  0.6508444  3
   5014   5026   5032   5034     1  0.0000000  0.6508444  3
   5015   5014   5010   5017     1  0.0000000  0.6508444  3
   5015   5014   5010   5039     1  0.0000000  0.6508444  3
   5015   5014   5026   5032     1  0.0000000  0.6508444  3
   5015   5014   5026   5027     1  0.0000000  0.6508444  3
   5015   5014   5026   5028     1  0.0000000  0.6508444  3
   5016   5014   5010   5017     1  0.0000000  0.6508444  3
   5016   5014   5010   5039     1  0.0000000  0.6508444  3
   5016   5014   5026   5032     1  0.0000000  0.6508444  3
   5016   5014   5026   5027     1  0.0000000  0.6508444  3
   5016   5014   5026   5028     1  0.0000000  0.6508444  3
   5017   5020   5029   5030     1  0.0000000  0.6508444  3
   5017   5020   5029   5031     1  0.0000000  0.6508444  3
   5018   5017   5010   5039     1  0.0000000  0.6508444  3
   5018   5017   5020   5029     1  0.0000000  0.6508444  3
   5018   5017   5020   5021     1  0.0000000  0.6508444  3
   5018   5017   5020   5022     1  0.0000000  0.6508444  3
   5019   5017   5010   5039     1  0.0000000  0.6508444  3
   5019   5017   5020   5029     1  0.0000000  0.6508444  3
   5019   5017   5020   5021     1  0.0000000  0.6508444  3
   5019   5017   5020   5022     1  0.0000000  0.6508444  3
   5020   5017   5010   5039     1  0.0000000  0.6508444  3
   5021   5020   5029   5038     1  0.0000000  1.0460000  1
   5021   5020   5029   5038     1  0.0000000  0.0000000  3
   5021   5020   5029   5030     1  0.0000000  0.6508444  3
   5021   5020   5029   5031     1  0.0000000  0.6508444  3
   5022   5020   5029   5038     1  0.0000000  1.0460000  1
   5022   5020   5029   5038     1  0.0000000  0.0000000  3
   5022   5020   5029   5030     1  0.0000000  0.6508444  3
   5022   5020   5029   5031     1  0.0000000  0.6508444  3
   5023   5011   5010   5039     1  0.0000000  0.6508444  3
   5024   5023   5035   9539     1  0.0000000  1.0460000  1
   5024   5023   5035   9539     1  0.0000000  0.0000000  3
   5024   5023   5035   5036     1  0.0000000  0.6508444  3
   5024   5023   5035   5037     1  0.0000000  0.6508444  3
   5025   5023   5035   9539     1  0.0000000  1.0460000  1
   5025   5023   5035   9539     1  0.0000000  0.0000000  3
   5025   5023   5035   5036     1  0.0000000  0.6508444  3
   5025   5023   5035   5037     1  0.0000000  0.6508444  3
   5026   5014   5010   5039     1  0.0000000  0.6508444  3
   5027   5026   5032   9516     1  0.0000000  1.0460000  1
   5027   5026   5032   9516     1  0.0000000  0.0000000  3
   5027   5026   5032   5033     1  0.0000000  0.6508444  3
   5027   5026   5032   5034     1  0.0000000  0.6508444  3
   5028   5026   5032   9516     1  0.0000000  1.0460000  1
   5028   5026   5032   9516     1  0.0000000  0.0000000  3
   5028   5026   5032   5033     1  0.0000000  0.6508444  3
   5028   5026   5032   5034     1  0.0000000  0.6508444  3
   5032   9516   9512   9515     1  0.0000000  1.6038667  3
   5033   5032   9516   9512     1  0.0000000  1.6038667  3
   5034   5032   9516   9512     1  0.0000000  1.6038667  3
   5035   9539   9535   9538     1  0.0000000  1.6038667  3
   5036   5035   9539   9535     1  0.0000000  1.6038667  3
   5037   5035   9539   9535     1  0.0000000  1.6038667  3
   5040   5041   5053   5054     1  0.0000000  0.6508444  3
   5040   5041   5053   5055     1  0.0000000  0.6508444  3
   5040   5044   5056   5057     1  0.0000000  0.6508444  3
   5040   5044   5056   5058     1  0.0000000  0.6508444  3
   5040   5047   5050   5051     1  0.0000000  0.6508444  3
   5040   5047   5050   5052     1  0.0000000  0.6508444  3
   5041   5040   5044   5045     1  0.0000000  0.6508444  3
   5041   5040   5044   5046     1  0.0000000  0.6508444  3
   5041   5040   5047   5048     1  0.0000000  0.6508444  3
   5041   5040   5047   5049     1  0.0000000  0.6508444  3
   5041   5053   5065   5066     1  0.0000000  0.6508444  3
   5041   5053   5065   5067     1  0.0000000  0.6508444  3
   5042   5041   5040   5044     1  0.0000000  0.6508444  3
   5042   5041   5040   5047     1  0.0000000  0.6508444  3
   5042   5041   5040   5069     1  0.0000000  0.6508444  3
   5042   5041   5053   5065     1  0.0000000  0.6508444  3
   5042   5041   5053   5054     1  0.0000000  0.6508444  3
   5042   5041   5053   5055     1  0.0000000  0.6508444  3
   5043   5041   5040   5044     1  0.0000000  0.6508444  3
   5043   5041   5040   5047     1  0.0000000  0.6508444  3
   5043   5041   5040   5069     1  0.0000000  0.6508444  3
   5043   5041   5053   5065     1  0.0000000  0.6508444  3
   5043   5041   5053   5054     1  0.0000000  0.6508444  3
   5043   5041   5053   5055     1  0.0000000  0.6508444  3
   5044   5040   5047   5048     1  0.0000000  0.6508444  3
   5044   5040   5047   5049     1  0.0000000  0.6508444  3
   5044   5056   5062   5063     1  0.0000000  0.6508444  3
   5044   5056   5062   5064     1  0.0000000  0.6508444  3
   5045   5044   5040   5047     1  0.0000000  0.6508444  3
   5045   5044   5040   5069     1  0.0000000  0.6508444  3
   5045   5044   5056   5062     1  0.0000000  0.6508444  3
   5045   5044   5056   5057     1  0.0000000  0.6508444  3
   5045   5044   5056   5058     1  0.0000000  0.6508444  3
   5046   5044   5040   5047     1  0.0000000  0.6508444  3
   5046   5044   5040   5069     1  0.0000000  0.6508444  3
   5046   5044   5056   5062     1  0.0000000  0.6508444  3
   5046   5044   5056   5057     1  0.0000000  0.6508444  3
   5046   5044   5056   5058     1  0.0000000  0.6508444  3
   5047   5050   5059   5060     1  0.0000000  0.6508444  3
   5047   5050   5059   5061     1  0.0000000  0.6508444  3
   5048   5047   5040   5069     1  0.0000000  0.6508444  3
   5048   5047   5050   5059     1  0.0000000  0.6508444  3
   5048   5047   5050   5051     1  0.0000000  0.6508444  3
   5048   5047   5050   5052     1  0.0000000  0.6508444  3
   5049   5047   5040   5069     1  0.0000000  0.6508444  3
   5049   5047   5050   5059     1  0.0000000  0.6508444  3
   5049   5047   5050   5051     1  0.0000000  0.6508444  3
   5049   5047   5050   5052     1  0.0000000  0.6508444  3
   5050   5047   5040   5069     1  0.0000000  0.6508444  3
   5051   5050   5059   5068     1  0.0000000  1.0460000  1
   5051   5050   5059   5068     1  0.0000000  0.0000000  3
   5051   5050   5059   5060     1  0.0000000  0.6508444  3
   5051   5050   5059   5061     1  0.0000000  0.6508444  3
   5052   5050   5059   5068     1  0.0000000  1.0460000  1
   5052   5050   5059   5068     1  0.0000000  0.0000000  3
   5052   5050   5059   5060     1  0.0000000  0.6508444  3
   5052   5050   5059   5061     1  0.0000000  0.6508444  3
   5053   5041   5040   5069     1  0.0000000  0.6508444  3
   5054   5053   5065   9585     1  0.0000000  1.0460000  1
   5054   5053   5065   9585     1  0.0000000  0.0000000  3
   5054   5053   5065   5066     1  0.0000000  0.6508444  3
   5054   5053   5065   5067     1  0.0000000  0.6508444  3
   5055   5053   5065   9585     1  0.0000000  1.0460000  1
   5055   5053   5065   9585     1  0.0000000  0.0000000  3
   5055   5053   5065   5066     1  0.0000000  0.6508444  3
   5055   5053   5065   5067     1  0.0000000  0.6508444  3
   5056   5044   5040   5069     1  0.0000000  0.6508444  3
   5057   5056   5062   9562     1  0.0000000  1.0460000  1
   5057   5056   5062   9562     1  0.0000000  0.0000000  3
   5057   5056   5062   5063     1  0.0000000  0.6508444  3
   5057   5056   5062   5064     1  0.0000000  0.6508444  3
   5058   5056   5062   9562     1  0.0000000  1.0460000  1
   5058   5056   5062   9562     1  0.0000000  0.0000000  3
   5058   5056   5062   5063     1  0.0000000  0.6508444  3
   5058   5056   5062   5064     1  0.0000000  0.6508444  3
   5062   9562   9558   9561     1  0.0000000  1.6038667  3
   5063   5062   9562   9558     1  0.0000000  1.6038667  3
   5064   5062   9562   9558     1  0.0000000  1.6038667  3
   5065   9585   9581   9584     1  0.0000000  1.6038667  3
   5066   5065   9585   9581     1  0.0000000  1.6038667  3
   5067   5065   9585   9581     1  0.0000000  1.6038667  3
   5070   5071   5083   5084     1  0.0000000  0.6508444  3
   5070   5071   5083   5085     1  0.0000000  0.6508444  3
   5070   5074   5086   5087     1  0.0000000  0.6508444  3
   5070   5074   5086   5088     1  0.0000000  0.6508444  3
   5070   5077   5080   5081     1  0.0000000  0.6508444  3
   5070   5077   5080   5082     1  0.0000000  0.6508444  3
   5071   5070   5074   5075     1  0.0000000  0.6508444  3
   5071   5070   5074   5076     1  0.0000000  0.6508444  3
   5071   5070   5077   5078     1  0.0000000  0.6508444  3
   5071   5070   5077   5079     1  0.0000000  0.6508444  3
   5071   5083   5095   5096     1  0.0000000  0.6508444  3
   5071   5083   5095   5097     1  0.0000000  0.6508444  3
   5072   5071   5070   5074     1  0.0000000  0.6508444  3
   5072   5071   5070   5077     1  0.0000000  0.6508444  3
   5072   5071   5070   5099     1  0.0000000  0.6508444  3
   5072   5071   5083   5095     1  0.0000000  0.6508444  3
   5072   5071   5083   5084     1  0.0000000  0.6508444  3
   5072   5071   5083   5085     1  0.0000000  0.6508444  3
   5073   5071   5070   5074     1  0.0000000  0.6508444  3
   5073   5071   5070   5077     1  0.0000000  0.6508444  3
   5073   5071   5070   5099     1  0.0000000  0.6508444  3
   5073   5071   5083   5095     1  0.0000000  0.6508444  3
   5073   5071   5083   5084     1  0.0000000  0.6508444  3
   5073   5071   5083   5085     1  0.0000000  0.6508444  3
   5074   5070   5077   5078     1  0.0000000  0.6508444  3
   5074   5070   5077   5079     1  0.0000000  0.6508444  3
   5074   5086   5092   5093     1  0.0000000  0.6508444  3
   5074   5086   5092   5094     1  0.0000000  0.6508444  3
   5075   5074   5070   5077     1  0.0000000  0.6508444  3
   5075   5074   5070   5099     1  0.0000000  0.6508444  3
   5075   5074   5086   5092     1  0.0000000  0.6508444  3
   5075   5074   5086   5087     1  0.0000000  0.6508444  3
   5075   5074   5086   5088     1  0.0000000  0.6508444  3
   5076   5074   5070   5077     1  0.0000000  0.6508444  3
   5076   5074   5070   5099     1  0.0000000  0.6508444  3
   5076   5074   5086   5092     1  0.0000000  0.6508444  3
   5076   5074   5086   5087     1  0.0000000  0.6508444  3
   5076   5074   5086   5088     1  0.0000000  0.6508444  3
   5077   5080   5089   5090     1  0.0000000  0.6508444  3
   5077   5080   5089   5091     1  0.0000000  0.6508444  3
   5078   5077   5070   5099     1  0.0000000  0.6508444  3
   5078   5077   5080   5089     1  0.0000000  0.6508444  3
   5078   5077   5080   5081     1  0.0000000  0.6508444  3
   5078   5077   5080   5082     1  0.0000000  0.6508444  3
   5079   5077   5070   5099     1  0.0000000  0.6508444  3
   5079   5077   5080   5089     1  0.0000000  0.6508444  3
   5079   5077   5080   5081     1  0.0000000  0.6508444  3
   5079   5077   5080   5082     1  0.0000000  0.6508444  3
   5080   5077   5070   5099     1  0.0000000  0.6508444  3
   5081   5080   5089   5098     1  0.0000000  1.0460000  1
   5081   5080   5089   5098     1  0.0000000  0.0000000  3
   5081   5080   5089   5090     1  0.0000000  0.6508444  3
   5081   5080   5089   5091     1  0.0000000  0.6508444  3
   5082   5080   5089   5098     1  0.0000000  1.0460000  1
   5082   5080   5089   5098     1  0.0000000  0.0000000  3
   5082   5080   5089   5090     1  0.0000000  0.6508444  3
   5082   5080   5089   5091     1  0.0000000  0.6508444  3
   5083   5071   5070   5099     1  0.0000000  0.6508444  3
   5084   5083   5095   9631     1  0.0000000  1.0460000  1
   5084   5083   5095   9631     1  0.0000000  0.0000000  3
   5084   5083   5095   5096     1  0.0000000  0.6508444  3
   5084   5083   5095   5097     1  0.0000000  0.6508444  3
   5085   5083   5095   9631     1  0.0000000  1.0460000  1
   5085   5083   5095   9631     1  0.0000000  0.0000000  3
   5085   5083   5095   5096     1  0.0000000  0.6508444  3
   5085   5083   5095   5097     1  0.0000000  0.6508444  3
   5086   5074   5070   5099     1  0.0000000  0.6508444  3
   5087   5086   5092   9608     1  0.0000000  1.0460000  1
   5087   5086   5092   9608     1  0.0000000  0.0000000  3
   5087   5086   5092   5093     1  0.0000000  0.6508444  3
   5087   5086   5092   5094     1  0.0000000  0.6508444  3
   5088   5086   5092   9608     1  0.0000000  1.0460000  1
   5088   5086   5092   9608     1  0.0000000  0.0000000  3
   5088   5086   5092   5093     1  0.0000000  0.6508444  3
   5088   5086   5092   5094     1  0.0000000  0.6508444  3
   5092   9608   9604   9607     1  0.0000000  1.6038667  3
   5093   5092   9608   9604     1  0.0000000  1.6038667  3
   5094   5092   9608   9604     1  0.0000000  1.6038667  3
   5095   9631   9627   9630     1  0.0000000  1.6038667  3
   5096   5095   9631   9627     1  0.0000000  1.6038667  3
   5097   5095   9631   9627     1  0.0000000  1.6038667  3
   5100   5101   5113   5114     1  0.0000000  0.6508444  3
   5100   5101   5113   5115     1  0.0000000  0.6508444  3
   5100   5104   5116   5117     1  0.0000000  0.6508444  3
   5100   5104   5116   5118     1  0.0000000  0.6508444  3
   5100   5107   5110   5111     1  0.0000000  0.6508444  3
   5100   5107   5110   5112     1  0.0000000  0.6508444  3
   5101   5100   5104   5105     1  0.0000000  0.6508444  3
   5101   5100   5104   5106     1  0.0000000  0.6508444  3
   5101   5100   5107   5108     1  0.0000000  0.6508444  3
   5101   5100   5107   5109     1  0.0000000  0.6508444  3
   5101   5113   5125   5126     1  0.0000000  0.6508444  3
   5101   5113   5125   5127     1  0.0000000  0.6508444  3
   5102   5101   5100   5104     1  0.0000000  0.6508444  3
   5102   5101   5100   5107     1  0.0000000  0.6508444  3
   5102   5101   5100   5129     1  0.0000000  0.6508444  3
   5102   5101   5113   5125     1  0.0000000  0.6508444  3
   5102   5101   5113   5114     1  0.0000000  0.6508444  3
   5102   5101   5113   5115     1  0.0000000  0.6508444  3
   5103   5101   5100   5104     1  0.0000000  0.6508444  3
   5103   5101   5100   5107     1  0.0000000  0.6508444  3
   5103   5101   5100   5129     1  0.0000000  0.6508444  3
   5103   5101   5113   5125     1  0.0000000  0.6508444  3
   5103   5101   5113   5114     1  0.0000000  0.6508444  3
   5103   5101   5113   5115     1  0.0000000  0.6508444  3
   5104   5100   5107   5108     1  0.0000000  0.6508444  3
   5104   5100   5107   5109     1  0.0000000  0.6508444  3
   5104   5116   5122   5123     1  0.0000000  0.6508444  3
   5104   5116   5122   5124     1  0.0000000  0.6508444  3
   5105   5104   5100   5107     1  0.0000000  0.6508444  3
   5105   5104   5100   5129     1  0.0000000  0.6508444  3
   5105   5104   5116   5122     1  0.0000000  0.6508444  3
   5105   5104   5116   5117     1  0.0000000  0.6508444  3
   5105   5104   5116   5118     1  0.0000000  0.6508444  3
   5106   5104   5100   5107     1  0.0000000  0.6508444  3
   5106   5104   5100   5129     1  0.0000000  0.6508444  3
   5106   5104   5116   5122     1  0.0000000  0.6508444  3
   5106   5104   5116   5117     1  0.0000000  0.6508444  3
   5106   5104   5116   5118     1  0.0000000  0.6508444  3
   5107   5110   5119   5120     1  0.0000000  0.6508444  3
   5107   5110   5119   5121     1  0.0000000  0.6508444  3
   5108   5107   5100   5129     1  0.0000000  0.6508444  3
   5108   5107   5110   5119     1  0.0000000  0.6508444  3
   5108   5107   5110   5111     1  0.0000000  0.6508444  3
   5108   5107   5110   5112     1  0.0000000  0.6508444  3
   5109   5107   5100   5129     1  0.0000000  0.6508444  3
   5109   5107   5110   5119     1  0.0000000  0.6508444  3
   5109   5107   5110   5111     1  0.0000000  0.6508444  3
   5109   5107   5110   5112     1  0.0000000  0.6508444  3
   5110   5107   5100   5129     1  0.0000000  0.6508444  3
   5111   5110   5119   5128     1  0.0000000  1.0460000  1
   5111   5110   5119   5128     1  0.0000000  0.0000000  3
   5111   5110   5119   5120     1  0.0000000  0.6508444  3
   5111   5110   5119   5121     1  0.0000000  0.6508444  3
   5112   5110   5119   5128     1  0.0000000  1.0460000  1
   5112   5110   5119   5128     1  0.0000000  0.0000000  3
   5112   5110   5119   5120     1  0.0000000  0.6508444  3
   5112   5110   5119   5121     1  0.0000000  0.6508444  3
   5113   5101   5100   5129     1  0.0000000  0.6508444  3
   5114   5113   5125   9677     1  0.0000000  1.0460000  1
   5114   5113   5125   9677     1  0.0000000  0.0000000  3
   5114   5113   5125   5126     1  0.0000000  0.6508444  3
   5114   5113   5125   5127     1  0.0000000  0.6508444  3
   5115   5113   5125   9677     1  0.0000000  1.0460000  1
   5115   5113   5125   9677     1  0.0000000  0.0000000  3
   5115   5113   5125   5126     1  0.0000000  0.6508444  3
   5115   5113   5125   5127     1  0.0000000  0.6508444  3
   5116   5104   5100   5129     1  0.0000000  0.6508444  3
   5117   5116   5122   9654     1  0.0000000  1.0460000  1
   5117   5116   5122   9654     1  0.0000000  0.0000000  3
   5117   5116   5122   5123     1  0.0000000  0.6508444  3
   5117   5116   5122   5124     1  0.0000000  0.6508444  3
   5118   5116   5122   9654     1  0.0000000  1.0460000  1
   5118   5116   5122   9654     1  0.0000000  0.0000000  3
   5118   5116   5122   5123     1  0.0000000  0.6508444  3
   5118   5116   5122   5124     1  0.0000000  0.6508444  3
   5122   9654   9650   9653     1  0.0000000  1.6038667  3
   5123   5122   9654   9650     1  0.0000000  1.6038667  3
   5124   5122   9654   9650     1  0.0000000  1.6038667  3
   5125   9677   9673   9676     1  0.0000000  1.6038667  3
   5126   5125   9677   9673     1  0.0000000  1.6038667  3
   5127   5125   9677   9673     1  0.0000000  1.6038667  3
   5130   5131   5143   5144     1  0.0000000  0.6508444  3
   5130   5131   5143   5145     1  0.0000000  0.6508444  3
   5130   5134   5146   5147     1  0.0000000  0.6508444  3
   5130   5134   5146   5148     1  0.0000000  0.6508444  3
   5130   5137   5140   5141     1  0.0000000  0.6508444  3
   5130   5137   5140   5142     1  0.0000000  0.6508444  3
   5131   5130   5134   5135     1  0.0000000  0.6508444  3
   5131   5130   5134   5136     1  0.0000000  0.6508444  3
   5131   5130   5137   5138     1  0.0000000  0.6508444  3
   5131   5130   5137   5139     1  0.0000000  0.6508444  3
   5131   5143   5155   5156     1  0.0000000  0.6508444  3
   5131   5143   5155   5157     1  0.0000000  0.6508444  3
   5132   5131   5130   5134     1  0.0000000  0.6508444  3
   5132   5131   5130   5137     1  0.0000000  0.6508444  3
   5132   5131   5130   5159     1  0.0000000  0.6508444  3
   5132   5131   5143   5155     1  0.0000000  0.6508444  3
   5132   5131   5143   5144     1  0.0000000  0.6508444  3
   5132   5131   5143   5145     1  0.0000000  0.6508444  3
   5133   5131   5130   5134     1  0.0000000  0.6508444  3
   5133   5131   5130   5137     1  0.0000000  0.6508444  3
   5133   5131   5130   5159     1  0.0000000  0.6508444  3
   5133   5131   5143   5155     1  0.0000000  0.6508444  3
   5133   5131   5143   5144     1  0.0000000  0.6508444  3
   5133   5131   5143   5145     1  0.0000000  0.6508444  3
   5134   5130   5137   5138     1  0.0000000  0.6508444  3
   5134   5130   5137   5139     1  0.0000000  0.6508444  3
   5134   5146   5152   5153     1  0.0000000  0.6508444  3
   5134   5146   5152   5154     1  0.0000000  0.6508444  3
   5135   5134   5130   5137     1  0.0000000  0.6508444  3
   5135   5134   5130   5159     1  0.0000000  0.6508444  3
   5135   5134   5146   5152     1  0.0000000  0.6508444  3
   5135   5134   5146   5147     1  0.0000000  0.6508444  3
   5135   5134   5146   5148     1  0.0000000  0.6508444  3
   5136   5134   5130   5137     1  0.0000000  0.6508444  3
   5136   5134   5130   5159     1  0.0000000  0.6508444  3
   5136   5134   5146   5152     1  0.0000000  0.6508444  3
   5136   5134   5146   5147     1  0.0000000  0.6508444  3
   5136   5134   5146   5148     1  0.0000000  0.6508444  3
   5137   5140   5149   5150     1  0.0000000  0.6508444  3
   5137   5140   5149   5151     1  0.0000000  0.6508444  3
   5138   5137   5130   5159     1  0.0000000  0.6508444  3
   5138   5137   5140   5149     1  0.0000000  0.6508444  3
   5138   5137   5140   5141     1  0.0000000  0.6508444  3
   5138   5137   5140   5142     1  0.0000000  0.6508444  3
   5139   5137   5130   5159     1  0.0000000  0.6508444  3
   5139   5137   5140   5149     1  0.0000000  0.6508444  3
   5139   5137   5140   5141     1  0.0000000  0.6508444  3
   5139   5137   5140   5142     1  0.0000000  0.6508444  3
   5140   5137   5130   5159     1  0.0000000  0.6508444  3
   5141   5140   5149   5158     1  0.0000000  1.0460000  1
   5141   5140   5149   5158     1  0.0000000  0.0000000  3
   5141   5140   5149   5150     1  0.0000000  0.6508444  3
   5141   5140   5149   5151     1  0.0000000  0.6508444  3
   5142   5140   5149   5158     1  0.0000000  1.0460000  1
   5142   5140   5149   5158     1  0.0000000  0.0000000  3
   5142   5140   5149   5150     1  0.0000000  0.6508444  3
   5142   5140   5149   5151     1  0.0000000  0.6508444  3
   5143   5131   5130   5159     1  0.0000000  0.6508444  3
   5144   5143   5155   9723     1  0.0000000  1.0460000  1
   5144   5143   5155   9723     1  0.0000000  0.0000000  3
   5144   5143   5155   5156     1  0.0000000  0.6508444  3
   5144   5143   5155   5157     1  0.0000000  0.6508444  3
   5145   5143   5155   9723     1  0.0000000  1.0460000  1
   5145   5143   5155   9723     1  0.0000000  0.0000000  3
   5145   5143   5155   5156     1  0.0000000  0.6508444  3
   5145   5143   5155   5157     1  0.0000000  0.6508444  3
   5146   5134   5130   5159     1  0.0000000  0.6508444  3
   5147   5146   5152   9700     1  0.0000000  1.0460000  1
   5147   5146   5152   9700     1  0.0000000  0.0000000  3
   5147   5146   5152   5153     1  0.0000000  0.6508444  3
   5147   5146   5152   5154     1  0.0000000  0.6508444  3
   5148   5146   5152   9700     1  0.0000000  1.0460000  1
   5148   5146   5152   9700     1  0.0000000  0.0000000  3
   5148   5146   5152   5153     1  0.0000000  0.6508444  3
   5148   5146   5152   5154     1  0.0000000  0.6508444  3
   5152   9700   9696   9699     1  0.0000000  1.6038667  3
   5153   5152   9700   9696     1  0.0000000  1.6038667  3
   5154   5152   9700   9696     1  0.0000000  1.6038667  3
   5155   9723   9719   9722     1  0.0000000  1.6038667  3
   5156   5155   9723   9719     1  0.0000000  1.6038667  3
   5157   5155   9723   9719     1  0.0000000  1.6038667  3
   5160   5161   5173   5174     1  0.0000000  0.6508444  3
   5160   5161   5173   5175     1  0.0000000  0.6508444  3
   5160   5164   5176   5177     1  0.0000000  0.6508444  3
   5160   5164   5176   5178     1  0.0000000  0.6508444  3
   5160   5167   5170   5171     1  0.0000000  0.6508444  3
   5160   5167   5170   5172     1  0.0000000  0.6508444  3
   5161   5160   5164   5165     1  0.0000000  0.6508444  3
   5161   5160   5164   5166     1  0.0000000  0.6508444  3
   5161   5160   5167   5168     1  0.0000000  0.6508444  3
   5161   5160   5167   5169     1  0.0000000  0.6508444  3
   5161   5173   5185   5186     1  0.0000000  0.6508444  3
   5161   5173   5185   5187     1  0.0000000  0.6508444  3
   5162   5161   5160   5164     1  0.0000000  0.6508444  3
   5162   5161   5160   5167     1  0.0000000  0.6508444  3
   5162   5161   5160   5189     1  0.0000000  0.6508444  3
   5162   5161   5173   5185     1  0.0000000  0.6508444  3
   5162   5161   5173   5174     1  0.0000000  0.6508444  3
   5162   5161   5173   5175     1  0.0000000  0.6508444  3
   5163   5161   5160   5164     1  0.0000000  0.6508444  3
   5163   5161   5160   5167     1  0.0000000  0.6508444  3
   5163   5161   5160   5189     1  0.0000000  0.6508444  3
   5163   5161   5173   5185     1  0.0000000  0.6508444  3
   5163   5161   5173   5174     1  0.0000000  0.6508444  3
   5163   5161   5173   5175     1  0.0000000  0.6508444  3
   5164   5160   5167   5168     1  0.0000000  0.6508444  3
   5164   5160   5167   5169     1  0.0000000  0.6508444  3
   5164   5176   5182   5183     1  0.0000000  0.6508444  3
   5164   5176   5182   5184     1  0.0000000  0.6508444  3
   5165   5164   5160   5167     1  0.0000000  0.6508444  3
   5165   5164   5160   5189     1  0.0000000  0.6508444  3
   5165   5164   5176   5182     1  0.0000000  0.6508444  3
   5165   5164   5176   5177     1  0.0000000  0.6508444  3
   5165   5164   5176   5178     1  0.0000000  0.6508444  3
   5166   5164   5160   5167     1  0.0000000  0.6508444  3
   5166   5164   5160   5189     1  0.0000000  0.6508444  3
   5166   5164   5176   5182     1  0.0000000  0.6508444  3
   5166   5164   5176   5177     1  0.0000000  0.6508444  3
   5166   5164   5176   5178     1  0.0000000  0.6508444  3
   5167   5170   5179   5180     1  0.0000000  0.6508444  3
   5167   5170   5179   5181     1  0.0000000  0.6508444  3
   5168   5167   5160   5189     1  0.0000000  0.6508444  3
   5168   5167   5170   5179     1  0.0000000  0.6508444  3
   5168   5167   5170   5171     1  0.0000000  0.6508444  3
   5168   5167   5170   5172     1  0.0000000  0.6508444  3
   5169   5167   5160   5189     1  0.0000000  0.6508444  3
   5169   5167   5170   5179     1  0.0000000  0.6508444  3
   5169   5167   5170   5171     1  0.0000000  0.6508444  3
   5169   5167   5170   5172     1  0.0000000  0.6508444  3
   5170   5167   5160   5189     1  0.0000000  0.6508444  3
   5171   5170   5179   5188     1  0.0000000  1.0460000  1
   5171   5170   5179   5188     1  0.0000000  0.0000000  3
   5171   5170   5179   5180     1  0.0000000  0.6508444  3
   5171   5170   5179   5181     1  0.0000000  0.6508444  3
   5172   5170   5179   5188     1  0.0000000  1.0460000  1
   5172   5170   5179   5188     1  0.0000000  0.0000000  3
   5172   5170   5179   5180     1  0.0000000  0.6508444  3
   5172   5170   5179   5181     1  0.0000000  0.6508444  3
   5173   5161   5160   5189     1  0.0000000  0.6508444  3
   5174   5173   5185   9769     1  0.0000000  1.0460000  1
   5174   5173   5185   9769     1  0.0000000  0.0000000  3
   5174   5173   5185   5186     1  0.0000000  0.6508444  3
   5174   5173   5185   5187     1  0.0000000  0.6508444  3
   5175   5173   5185   9769     1  0.0000000  1.0460000  1
   5175   5173   5185   9769     1  0.0000000  0.0000000  3
   5175   5173   5185   5186     1  0.0000000  0.6508444  3
   5175   5173   5185   5187     1  0.0000000  0.6508444  3
   5176   5164   5160   5189     1  0.0000000  0.6508444  3
   5177   5176   5182   9746     1  0.0000000  1.0460000  1
   5177   5176   5182   9746     1  0.0000000  0.0000000  3
   5177   5176   5182   5183     1  0.0000000  0.6508444  3
   5177   5176   5182   5184     1  0.0000000  0.6508444  3
   5178   5176   5182   9746     1  0.0000000  1.0460000  1
   5178   5176   5182   9746     1  0.0000000  0.0000000  3
   5178   5176   5182   5183     1  0.0000000  0.6508444  3
   5178   5176   5182   5184     1  0.0000000  0.6508444  3
   5182   9746   9742   9745     1  0.0000000  1.6038667  3
   5183   5182   9746   9742     1  0.0000000  1.6038667  3
   5184   5182   9746   9742     1  0.0000000  1.6038667  3
   5185   9769   9765   9768     1  0.0000000  1.6038667  3
   5186   5185   9769   9765     1  0.0000000  1.6038667  3
   5187   5185   9769   9765     1  0.0000000  1.6038667  3
   5190   5191   5203   5204     1  0.0000000  0.6508444  3
   5190   5191   5203   5205     1  0.0000000  0.6508444  3
   5190   5194   5206   5207     1  0.0000000  0.6508444  3
   5190   5194   5206   5208     1  0.0000000  0.6508444  3
   5190   5197   5200   5201     1  0.0000000  0.6508444  3
   5190   5197   5200   5202     1  0.0000000  0.6508444  3
   5191   5190   5194   5195     1  0.0000000  0.6508444  3
   5191   5190   5194   5196     1  0.0000000  0.6508444  3
   5191   5190   5197   5198     1  0.0000000  0.6508444  3
   5191   5190   5197   5199     1  0.0000000  0.6508444  3
   5191   5203   5215   5216     1  0.0000000  0.6508444  3
   5191   5203   5215   5217     1  0.0000000  0.6508444  3
   5192   5191   5190   5194     1  0.0000000  0.6508444  3
   5192   5191   5190   5197     1  0.0000000  0.6508444  3
   5192   5191   5190   5219     1  0.0000000  0.6508444  3
   5192   5191   5203   5215     1  0.0000000  0.6508444  3
   5192   5191   5203   5204     1  0.0000000  0.6508444  3
   5192   5191   5203   5205     1  0.0000000  0.6508444  3
   5193   5191   5190   5194     1  0.0000000  0.6508444  3
   5193   5191   5190   5197     1  0.0000000  0.6508444  3
   5193   5191   5190   5219     1  0.0000000  0.6508444  3
   5193   5191   5203   5215     1  0.0000000  0.6508444  3
   5193   5191   5203   5204     1  0.0000000  0.6508444  3
   5193   5191   5203   5205     1  0.0000000  0.6508444  3
   5194   5190   5197   5198     1  0.0000000  0.6508444  3
   5194   5190   5197   5199     1  0.0000000  0.6508444  3
   5194   5206   5212   5213     1  0.0000000  0.6508444  3
   5194   5206   5212   5214     1  0.0000000  0.6508444  3
   5195   5194   5190   5197     1  0.0000000  0.6508444  3
   5195   5194   5190   5219     1  0.0000000  0.6508444  3
   5195   5194   5206   5212     1  0.0000000  0.6508444  3
   5195   5194   5206   5207     1  0.0000000  0.6508444  3
   5195   5194   5206   5208     1  0.0000000  0.6508444  3
   5196   5194   5190   5197     1  0.0000000  0.6508444  3
   5196   5194   5190   5219     1  0.0000000  0.6508444  3
   5196   5194   5206   5212     1  0.0000000  0.6508444  3
   5196   5194   5206   5207     1  0.0000000  0.6508444  3
   5196   5194   5206   5208     1  0.0000000  0.6508444  3
   5197   5200   5209   5210     1  0.0000000  0.6508444  3
   5197   5200   5209   5211     1  0.0000000  0.6508444  3
   5198   5197   5190   5219     1  0.0000000  0.6508444  3
   5198   5197   5200   5209     1  0.0000000  0.6508444  3
   5198   5197   5200   5201     1  0.0000000  0.6508444  3
   5198   5197   5200   5202     1  0.0000000  0.6508444  3
   5199   5197   5190   5219     1  0.0000000  0.6508444  3
   5199   5197   5200   5209     1  0.0000000  0.6508444  3
   5199   5197   5200   5201     1  0.0000000  0.6508444  3
   5199   5197   5200   5202     1  0.0000000  0.6508444  3
   5200   5197   5190   5219     1  0.0000000  0.6508444  3
   5201   5200   5209   5218     1  0.0000000  1.0460000  1
   5201   5200   5209   5218     1  0.0000000  0.0000000  3
   5201   5200   5209   5210     1  0.0000000  0.6508444  3
   5201   5200   5209   5211     1  0.0000000  0.6508444  3
   5202   5200   5209   5218     1  0.0000000  1.0460000  1
   5202   5200   5209   5218     1  0.0000000  0.0000000  3
   5202   5200   5209   5210     1  0.0000000  0.6508444  3
   5202   5200   5209   5211     1  0.0000000  0.6508444  3
   5203   5191   5190   5219     1  0.0000000  0.6508444  3
   5204   5203   5215   9815     1  0.0000000  1.0460000  1
   5204   5203   5215   9815     1  0.0000000  0.0000000  3
   5204   5203   5215   5216     1  0.0000000  0.6508444  3
   5204   5203   5215   5217     1  0.0000000  0.6508444  3
   5205   5203   5215   9815     1  0.0000000  1.0460000  1
   5205   5203   5215   9815     1  0.0000000  0.0000000  3
   5205   5203   5215   5216     1  0.0000000  0.6508444  3
   5205   5203   5215   5217     1  0.0000000  0.6508444  3
   5206   5194   5190   5219     1  0.0000000  0.6508444  3
   5207   5206   5212   9792     1  0.0000000  1.0460000  1
   5207   5206   5212   9792     1  0.0000000  0.0000000  3
   5207   5206   5212   5213     1  0.0000000  0.6508444  3
   5207   5206   5212   5214     1  0.0000000  0.6508444  3
   5208   5206   5212   9792     1  0.0000000  1.0460000  1
   5208   5206   5212   9792     1  0.0000000  0.0000000  3
   5208   5206   5212   5213     1  0.0000000  0.6508444  3
   5208   5206   5212   5214     1  0.0000000  0.6508444  3
   5212   9792   9788   9791     1  0.0000000  1.6038667  3
   5213   5212   9792   9788     1  0.0000000  1.6038667  3
   5214   5212   9792   9788     1  0.0000000  1.6038667  3
   5215   9815   9811   9814     1  0.0000000  1.6038667  3
   5216   5215   9815   9811     1  0.0000000  1.6038667  3
   5217   5215   9815   9811     1  0.0000000  1.6038667  3
   5220   5221   5233   5234     1  0.0000000  0.6508444  3
   5220   5221   5233   5235     1  0.0000000  0.6508444  3
   5220   5224   5236   5237     1  0.0000000  0.6508444  3
   5220   5224   5236   5238     1  0.0000000  0.6508444  3
   5220   5227   5230   5231     1  0.0000000  0.6508444  3
   5220   5227   5230   5232     1  0.0000000  0.6508444  3
   5221   5220   5224   5225     1  0.0000000  0.6508444  3
   5221   5220   5224   5226     1  0.0000000  0.6508444  3
   5221   5220   5227   5228     1  0.0000000  0.6508444  3
   5221   5220   5227   5229     1  0.0000000  0.6508444  3
   5221   5233   5245   5246     1  0.0000000  0.6508444  3
   5221   5233   5245   5247     1  0.0000000  0.6508444  3
   5222   5221   5220   5224     1  0.0000000  0.6508444  3
   5222   5221   5220   5227     1  0.0000000  0.6508444  3
   5222   5221   5220   5249     1  0.0000000  0.6508444  3
   5222   5221   5233   5245     1  0.0000000  0.6508444  3
   5222   5221   5233   5234     1  0.0000000  0.6508444  3
   5222   5221   5233   5235     1  0.0000000  0.6508444  3
   5223   5221   5220   5224     1  0.0000000  0.6508444  3
   5223   5221   5220   5227     1  0.0000000  0.6508444  3
   5223   5221   5220   5249     1  0.0000000  0.6508444  3
   5223   5221   5233   5245     1  0.0000000  0.6508444  3
   5223   5221   5233   5234     1  0.0000000  0.6508444  3
   5223   5221   5233   5235     1  0.0000000  0.6508444  3
   5224   5220   5227   5228     1  0.0000000  0.6508444  3
   5224   5220   5227   5229     1  0.0000000  0.6508444  3
   5224   5236   5242   5243     1  0.0000000  0.6508444  3
   5224   5236   5242   5244     1  0.0000000  0.6508444  3
   5225   5224   5220   5227     1  0.0000000  0.6508444  3
   5225   5224   5220   5249     1  0.0000000  0.6508444  3
   5225   5224   5236   5242     1  0.0000000  0.6508444  3
   5225   5224   5236   5237     1  0.0000000  0.6508444  3
   5225   5224   5236   5238     1  0.0000000  0.6508444  3
   5226   5224   5220   5227     1  0.0000000  0.6508444  3
   5226   5224   5220   5249     1  0.0000000  0.6508444  3
   5226   5224   5236   5242     1  0.0000000  0.6508444  3
   5226   5224   5236   5237     1  0.0000000  0.6508444  3
   5226   5224   5236   5238     1  0.0000000  0.6508444  3
   5227   5230   5239   5240     1  0.0000000  0.6508444  3
   5227   5230   5239   5241     1  0.0000000  0.6508444  3
   5228   5227   5220   5249     1  0.0000000  0.6508444  3
   5228   5227   5230   5239     1  0.0000000  0.6508444  3
   5228   5227   5230   5231     1  0.0000000  0.6508444  3
   5228   5227   5230   5232     1  0.0000000  0.6508444  3
   5229   5227   5220   5249     1  0.0000000  0.6508444  3
   5229   5227   5230   5239     1  0.0000000  0.6508444  3
   5229   5227   5230   5231     1  0.0000000  0.6508444  3
   5229   5227   5230   5232     1  0.0000000  0.6508444  3
   5230   5227   5220   5249     1  0.0000000  0.6508444  3
   5231   5230   5239   5248     1  0.0000000  1.0460000  1
   5231   5230   5239   5248     1  0.0000000  0.0000000  3
   5231   5230   5239   5240     1  0.0000000  0.6508444  3
   5231   5230   5239   5241     1  0.0000000  0.6508444  3
   5232   5230   5239   5248     1  0.0000000  1.0460000  1
   5232   5230   5239   5248     1  0.0000000  0.0000000  3
   5232   5230   5239   5240     1  0.0000000  0.6508444  3
   5232   5230   5239   5241     1  0.0000000  0.6508444  3
   5233   5221   5220   5249     1  0.0000000  0.6508444  3
   5234   5233   5245   9861     1  0.0000000  1.0460000  1
   5234   5233   5245   9861     1  0.0000000  0.0000000  3
   5234   5233   5245   5246     1  0.0000000  0.6508444  3
   5234   5233   5245   5247     1  0.0000000  0.6508444  3
   5235   5233   5245   9861     1  0.0000000  1.0460000  1
   5235   5233   5245   9861     1  0.0000000  0.0000000  3
   5235   5233   5245   5246     1  0.0000000  0.6508444  3
   5235   5233   5245   5247     1  0.0000000  0.6508444  3
   5236   5224   5220   5249     1  0.0000000  0.6508444  3
   5237   5236   5242   9838     1  0.0000000  1.0460000  1
   5237   5236   5242   9838     1  0.0000000  0.0000000  3
   5237   5236   5242   5243     1  0.0000000  0.6508444  3
   5237   5236   5242   5244     1  0.0000000  0.6508444  3
   5238   5236   5242   9838     1  0.0000000  1.0460000  1
   5238   5236   5242   9838     1  0.0000000  0.0000000  3
   5238   5236   5242   5243     1  0.0000000  0.6508444  3
   5238   5236   5242   5244     1  0.0000000  0.6508444  3
   5242   9838   9834   9837     1  0.0000000  1.6038667  3
   5243   5242   9838   9834     1  0.0000000  1.6038667  3
   5244   5242   9838   9834     1  0.0000000  1.6038667  3
   5245   9861   9857   9860     1  0.0000000  1.6038667  3
   5246   5245   9861   9857     1  0.0000000  1.6038667  3
   5247   5245   9861   9857     1  0.0000000  1.6038667  3
   5250   5251   5263   5264     1  0.0000000  0.6508444  3
   5250   5251   5263   5265     1  0.0000000  0.6508444  3
   5250   5254   5266   5267     1  0.0000000  0.6508444  3
   5250   5254   5266   5268     1  0.0000000  0.6508444  3
   5250   5257   5260   5261     1  0.0000000  0.6508444  3
   5250   5257   5260   5262     1  0.0000000  0.6508444  3
   5251   5250   5254   5255     1  0.0000000  0.6508444  3
   5251   5250   5254   5256     1  0.0000000  0.6508444  3
   5251   5250   5257   5258     1  0.0000000  0.6508444  3
   5251   5250   5257   5259     1  0.0000000  0.6508444  3
   5251   5263   5275   5276     1  0.0000000  0.6508444  3
   5251   5263   5275   5277     1  0.0000000  0.6508444  3
   5252   5251   5250   5254     1  0.0000000  0.6508444  3
   5252   5251   5250   5257     1  0.0000000  0.6508444  3
   5252   5251   5250   5279     1  0.0000000  0.6508444  3
   5252   5251   5263   5275     1  0.0000000  0.6508444  3
   5252   5251   5263   5264     1  0.0000000  0.6508444  3
   5252   5251   5263   5265     1  0.0000000  0.6508444  3
   5253   5251   5250   5254     1  0.0000000  0.6508444  3
   5253   5251   5250   5257     1  0.0000000  0.6508444  3
   5253   5251   5250   5279     1  0.0000000  0.6508444  3
   5253   5251   5263   5275     1  0.0000000  0.6508444  3
   5253   5251   5263   5264     1  0.0000000  0.6508444  3
   5253   5251   5263   5265     1  0.0000000  0.6508444  3
   5254   5250   5257   5258     1  0.0000000  0.6508444  3
   5254   5250   5257   5259     1  0.0000000  0.6508444  3
   5254   5266   5272   5273     1  0.0000000  0.6508444  3
   5254   5266   5272   5274     1  0.0000000  0.6508444  3
   5255   5254   5250   5257     1  0.0000000  0.6508444  3
   5255   5254   5250   5279     1  0.0000000  0.6508444  3
   5255   5254   5266   5272     1  0.0000000  0.6508444  3
   5255   5254   5266   5267     1  0.0000000  0.6508444  3
   5255   5254   5266   5268     1  0.0000000  0.6508444  3
   5256   5254   5250   5257     1  0.0000000  0.6508444  3
   5256   5254   5250   5279     1  0.0000000  0.6508444  3
   5256   5254   5266   5272     1  0.0000000  0.6508444  3
   5256   5254   5266   5267     1  0.0000000  0.6508444  3
   5256   5254   5266   5268     1  0.0000000  0.6508444  3
   5257   5260   5269   5270     1  0.0000000  0.6508444  3
   5257   5260   5269   5271     1  0.0000000  0.6508444  3
   5258   5257   5250   5279     1  0.0000000  0.6508444  3
   5258   5257   5260   5269     1  0.0000000  0.6508444  3
   5258   5257   5260   5261     1  0.0000000  0.6508444  3
   5258   5257   5260   5262     1  0.0000000  0.6508444  3
   5259   5257   5250   5279     1  0.0000000  0.6508444  3
   5259   5257   5260   5269     1  0.0000000  0.6508444  3
   5259   5257   5260   5261     1  0.0000000  0.6508444  3
   5259   5257   5260   5262     1  0.0000000  0.6508444  3
   5260   5257   5250   5279     1  0.0000000  0.6508444  3
   5261   5260   5269   5278     1  0.0000000  1.0460000  1
   5261   5260   5269   5278     1  0.0000000  0.0000000  3
   5261   5260   5269   5270     1  0.0000000  0.6508444  3
   5261   5260   5269   5271     1  0.0000000  0.6508444  3
   5262   5260   5269   5278     1  0.0000000  1.0460000  1
   5262   5260   5269   5278     1  0.0000000  0.0000000  3
   5262   5260   5269   5270     1  0.0000000  0.6508444  3
   5262   5260   5269   5271     1  0.0000000  0.6508444  3
   5263   5251   5250   5279     1  0.0000000  0.6508444  3
   5264   5263   5275   9907     1  0.0000000  1.0460000  1
   5264   5263   5275   9907     1  0.0000000  0.0000000  3
   5264   5263   5275   5276     1  0.0000000  0.6508444  3
   5264   5263   5275   5277     1  0.0000000  0.6508444  3
   5265   5263   5275   9907     1  0.0000000  1.0460000  1
   5265   5263   5275   9907     1  0.0000000  0.0000000  3
   5265   5263   5275   5276     1  0.0000000  0.6508444  3
   5265   5263   5275   5277     1  0.0000000  0.6508444  3
   5266   5254   5250   5279     1  0.0000000  0.6508444  3
   5267   5266   5272   9884     1  0.0000000  1.0460000  1
   5267   5266   5272   9884     1  0.0000000  0.0000000  3
   5267   5266   5272   5273     1  0.0000000  0.6508444  3
   5267   5266   5272   5274     1  0.0000000  0.6508444  3
   5268   5266   5272   9884     1  0.0000000  1.0460000  1
   5268   5266   5272   9884     1  0.0000000  0.0000000  3
   5268   5266   5272   5273     1  0.0000000  0.6508444  3
   5268   5266   5272   5274     1  0.0000000  0.6508444  3
   5272   9884   9880   9883     1  0.0000000  1.6038667  3
   5273   5272   9884   9880     1  0.0000000  1.6038667  3
   5274   5272   9884   9880     1  0.0000000  1.6038667  3
   5275   9907   9903   9906     1  0.0000000  1.6038667  3
   5276   5275   9907   9903     1  0.0000000  1.6038667  3
   5277   5275   9907   9903     1  0.0000000  1.6038667  3
   5280   5281   5293   5294     1  0.0000000  0.6508444  3
   5280   5281   5293   5295     1  0.0000000  0.6508444  3
   5280   5284   5296   5297     1  0.0000000  0.6508444  3
   5280   5284   5296   5298     1  0.0000000  0.6508444  3
   5280   5287   5290   5291     1  0.0000000  0.6508444  3
   5280   5287   5290   5292     1  0.0000000  0.6508444  3
   5281   5280   5284   5285     1  0.0000000  0.6508444  3
   5281   5280   5284   5286     1  0.0000000  0.6508444  3
   5281   5280   5287   5288     1  0.0000000  0.6508444  3
   5281   5280   5287   5289     1  0.0000000  0.6508444  3
   5281   5293   5305   5306     1  0.0000000  0.6508444  3
   5281   5293   5305   5307     1  0.0000000  0.6508444  3
   5282   5281   5280   5284     1  0.0000000  0.6508444  3
   5282   5281   5280   5287     1  0.0000000  0.6508444  3
   5282   5281   5280   5309     1  0.0000000  0.6508444  3
   5282   5281   5293   5305     1  0.0000000  0.6508444  3
   5282   5281   5293   5294     1  0.0000000  0.6508444  3
   5282   5281   5293   5295     1  0.0000000  0.6508444  3
   5283   5281   5280   5284     1  0.0000000  0.6508444  3
   5283   5281   5280   5287     1  0.0000000  0.6508444  3
   5283   5281   5280   5309     1  0.0000000  0.6508444  3
   5283   5281   5293   5305     1  0.0000000  0.6508444  3
   5283   5281   5293   5294     1  0.0000000  0.6508444  3
   5283   5281   5293   5295     1  0.0000000  0.6508444  3
   5284   5280   5287   5288     1  0.0000000  0.6508444  3
   5284   5280   5287   5289     1  0.0000000  0.6508444  3
   5284   5296   5302   5303     1  0.0000000  0.6508444  3
   5284   5296   5302   5304     1  0.0000000  0.6508444  3
   5285   5284   5280   5287     1  0.0000000  0.6508444  3
   5285   5284   5280   5309     1  0.0000000  0.6508444  3
   5285   5284   5296   5302     1  0.0000000  0.6508444  3
   5285   5284   5296   5297     1  0.0000000  0.6508444  3
   5285   5284   5296   5298     1  0.0000000  0.6508444  3
   5286   5284   5280   5287     1  0.0000000  0.6508444  3
   5286   5284   5280   5309     1  0.0000000  0.6508444  3
   5286   5284   5296   5302     1  0.0000000  0.6508444  3
   5286   5284   5296   5297     1  0.0000000  0.6508444  3
   5286   5284   5296   5298     1  0.0000000  0.6508444  3
   5287   5290   5299   5300     1  0.0000000  0.6508444  3
   5287   5290   5299   5301     1  0.0000000  0.6508444  3
   5288   5287   5280   5309     1  0.0000000  0.6508444  3
   5288   5287   5290   5299     1  0.0000000  0.6508444  3
   5288   5287   5290   5291     1  0.0000000  0.6508444  3
   5288   5287   5290   5292     1  0.0000000  0.6508444  3
   5289   5287   5280   5309     1  0.0000000  0.6508444  3
   5289   5287   5290   5299     1  0.0000000  0.6508444  3
   5289   5287   5290   5291     1  0.0000000  0.6508444  3
   5289   5287   5290   5292     1  0.0000000  0.6508444  3
   5290   5287   5280   5309     1  0.0000000  0.6508444  3
   5291   5290   5299   5308     1  0.0000000  1.0460000  1
   5291   5290   5299   5308     1  0.0000000  0.0000000  3
   5291   5290   5299   5300     1  0.0000000  0.6508444  3
   5291   5290   5299   5301     1  0.0000000  0.6508444  3
   5292   5290   5299   5308     1  0.0000000  1.0460000  1
   5292   5290   5299   5308     1  0.0000000  0.0000000  3
   5292   5290   5299   5300     1  0.0000000  0.6508444  3
   5292   5290   5299   5301     1  0.0000000  0.6508444  3
   5293   5281   5280   5309     1  0.0000000  0.6508444  3
   5294   5293   5305   9953     1  0.0000000  1.0460000  1
   5294   5293   5305   9953     1  0.0000000  0.0000000  3
   5294   5293   5305   5306     1  0.0000000  0.6508444  3
   5294   5293   5305   5307     1  0.0000000  0.6508444  3
   5295   5293   5305   9953     1  0.0000000  1.0460000  1
   5295   5293   5305   9953     1  0.0000000  0.0000000  3
   5295   5293   5305   5306     1  0.0000000  0.6508444  3
   5295   5293   5305   5307     1  0.0000000  0.6508444  3
   5296   5284   5280   5309     1  0.0000000  0.6508444  3
   5297   5296   5302   9930     1  0.0000000  1.0460000  1
   5297   5296   5302   9930     1  0.0000000  0.0000000  3
   5297   5296   5302   5303     1  0.0000000  0.6508444  3
   5297   5296   5302   5304     1  0.0000000  0.6508444  3
   5298   5296   5302   9930     1  0.0000000  1.0460000  1
   5298   5296   5302   9930     1  0.0000000  0.0000000  3
   5298   5296   5302   5303     1  0.0000000  0.6508444  3
   5298   5296   5302   5304     1  0.0000000  0.6508444  3
   5302   9930   9926   9929     1  0.0000000  1.6038667  3
   5303   5302   9930   9926     1  0.0000000  1.6038667  3
   5304   5302   9930   9926     1  0.0000000  1.6038667  3
   5305   9953   9949   9952     1  0.0000000  1.6038667  3
   5306   5305   9953   9949     1  0.0000000  1.6038667  3
   5307   5305   9953   9949     1  0.0000000  1.6038667  3
   5310   5311   5323   5324     1  0.0000000  0.6508444  3
   5310   5311   5323   5325     1  0.0000000  0.6508444  3
   5310   5314   5326   5327     1  0.0000000  0.6508444  3
   5310   5314   5326   5328     1  0.0000000  0.6508444  3
   5310   5317   5320   5321     1  0.0000000  0.6508444  3
   5310   5317   5320   5322     1  0.0000000  0.6508444  3
   5311   5310   5314   5315     1  0.0000000  0.6508444  3
   5311   5310   5314   5316     1  0.0000000  0.6508444  3
   5311   5310   5317   5318     1  0.0000000  0.6508444  3
   5311   5310   5317   5319     1  0.0000000  0.6508444  3
   5311   5323   5335   5336     1  0.0000000  0.6508444  3
   5311   5323   5335   5337     1  0.0000000  0.6508444  3
   5312   5311   5310   5314     1  0.0000000  0.6508444  3
   5312   5311   5310   5317     1  0.0000000  0.6508444  3
   5312   5311   5310   5339     1  0.0000000  0.6508444  3
   5312   5311   5323   5335     1  0.0000000  0.6508444  3
   5312   5311   5323   5324     1  0.0000000  0.6508444  3
   5312   5311   5323   5325     1  0.0000000  0.6508444  3
   5313   5311   5310   5314     1  0.0000000  0.6508444  3
   5313   5311   5310   5317     1  0.0000000  0.6508444  3
   5313   5311   5310   5339     1  0.0000000  0.6508444  3
   5313   5311   5323   5335     1  0.0000000  0.6508444  3
   5313   5311   5323   5324     1  0.0000000  0.6508444  3
   5313   5311   5323   5325     1  0.0000000  0.6508444  3
   5314   5310   5317   5318     1  0.0000000  0.6508444  3
   5314   5310   5317   5319     1  0.0000000  0.6508444  3
   5314   5326   5332   5333     1  0.0000000  0.6508444  3
   5314   5326   5332   5334     1  0.0000000  0.6508444  3
   5315   5314   5310   5317     1  0.0000000  0.6508444  3
   5315   5314   5310   5339     1  0.0000000  0.6508444  3
   5315   5314   5326   5332     1  0.0000000  0.6508444  3
   5315   5314   5326   5327     1  0.0000000  0.6508444  3
   5315   5314   5326   5328     1  0.0000000  0.6508444  3
   5316   5314   5310   5317     1  0.0000000  0.6508444  3
   5316   5314   5310   5339     1  0.0000000  0.6508444  3
   5316   5314   5326   5332     1  0.0000000  0.6508444  3
   5316   5314   5326   5327     1  0.0000000  0.6508444  3
   5316   5314   5326   5328     1  0.0000000  0.6508444  3
   5317   5320   5329   5330     1  0.0000000  0.6508444  3
   5317   5320   5329   5331     1  0.0000000  0.6508444  3
   5318   5317   5310   5339     1  0.0000000  0.6508444  3
   5318   5317   5320   5329     1  0.0000000  0.6508444  3
   5318   5317   5320   5321     1  0.0000000  0.6508444  3
   5318   5317   5320   5322     1  0.0000000  0.6508444  3
   5319   5317   5310   5339     1  0.0000000  0.6508444  3
   5319   5317   5320   5329     1  0.0000000  0.6508444  3
   5319   5317   5320   5321     1  0.0000000  0.6508444  3
   5319   5317   5320   5322     1  0.0000000  0.6508444  3
   5320   5317   5310   5339     1  0.0000000  0.6508444  3
   5321   5320   5329   5338     1  0.0000000  1.0460000  1
   5321   5320   5329   5338     1  0.0000000  0.0000000  3
   5321   5320   5329   5330     1  0.0000000  0.6508444  3
   5321   5320   5329   5331     1  0.0000000  0.6508444  3
   5322   5320   5329   5338     1  0.0000000  1.0460000  1
   5322   5320   5329   5338     1  0.0000000  0.0000000  3
   5322   5320   5329   5330     1  0.0000000  0.6508444  3
   5322   5320   5329   5331     1  0.0000000  0.6508444  3
   5323   5311   5310   5339     1  0.0000000  0.6508444  3
   5324   5323   5335   9999     1  0.0000000  1.0460000  1
   5324   5323   5335   9999     1  0.0000000  0.0000000  3
   5324   5323   5335   5336     1  0.0000000  0.6508444  3
   5324   5323   5335   5337     1  0.0000000  0.6508444  3
   5325   5323   5335   9999     1  0.0000000  1.0460000  1
   5325   5323   5335   9999     1  0.0000000  0.0000000  3
   5325   5323   5335   5336     1  0.0000000  0.6508444  3
   5325   5323   5335   5337     1  0.0000000  0.6508444  3
   5326   5314   5310   5339     1  0.0000000  0.6508444  3
   5327   5326   5332   9976     1  0.0000000  1.0460000  1
   5327   5326   5332   9976     1  0.0000000  0.0000000  3
   5327   5326   5332   5333     1  0.0000000  0.6508444  3
   5327   5326   5332   5334     1  0.0000000  0.6508444  3
   5328   5326   5332   9976     1  0.0000000  1.0460000  1
   5328   5326   5332   9976     1  0.0000000  0.0000000  3
   5328   5326   5332   5333     1  0.0000000  0.6508444  3
   5328   5326   5332   5334     1  0.0000000  0.6508444  3
   5332   9976   9972   9975     1  0.0000000  1.6038667  3
   5333   5332   9976   9972     1  0.0000000  1.6038667  3
   5334   5332   9976   9972     1  0.0000000  1.6038667  3
   5335   9999   9995   9998     1  0.0000000  1.6038667  3
   5336   5335   9999   9995     1  0.0000000  1.6038667  3
   5337   5335   9999   9995     1  0.0000000  1.6038667  3
   5340   5341   5353   5354     1  0.0000000  0.6508444  3
   5340   5341   5353   5355     1  0.0000000  0.6508444  3
   5340   5344   5356   5357     1  0.0000000  0.6508444  3
   5340   5344   5356   5358     1  0.0000000  0.6508444  3
   5340   5347   5350   5351     1  0.0000000  0.6508444  3
   5340   5347   5350   5352     1  0.0000000  0.6508444  3
   5341   5340   5344   5345     1  0.0000000  0.6508444  3
   5341   5340   5344   5346     1  0.0000000  0.6508444  3
   5341   5340   5347   5348     1  0.0000000  0.6508444  3
   5341   5340   5347   5349     1  0.0000000  0.6508444  3
   5341   5353   5365   5366     1  0.0000000  0.6508444  3
   5341   5353   5365   5367     1  0.0000000  0.6508444  3
   5342   5341   5340   5344     1  0.0000000  0.6508444  3
   5342   5341   5340   5347     1  0.0000000  0.6508444  3
   5342   5341   5340   5369     1  0.0000000  0.6508444  3
   5342   5341   5353   5365     1  0.0000000  0.6508444  3
   5342   5341   5353   5354     1  0.0000000  0.6508444  3
   5342   5341   5353   5355     1  0.0000000  0.6508444  3
   5343   5341   5340   5344     1  0.0000000  0.6508444  3
   5343   5341   5340   5347     1  0.0000000  0.6508444  3
   5343   5341   5340   5369     1  0.0000000  0.6508444  3
   5343   5341   5353   5365     1  0.0000000  0.6508444  3
   5343   5341   5353   5354     1  0.0000000  0.6508444  3
   5343   5341   5353   5355     1  0.0000000  0.6508444  3
   5344   5340   5347   5348     1  0.0000000  0.6508444  3
   5344   5340   5347   5349     1  0.0000000  0.6508444  3
   5344   5356   5362   5363     1  0.0000000  0.6508444  3
   5344   5356   5362   5364     1  0.0000000  0.6508444  3
   5345   5344   5340   5347     1  0.0000000  0.6508444  3
   5345   5344   5340   5369     1  0.0000000  0.6508444  3
   5345   5344   5356   5362     1  0.0000000  0.6508444  3
   5345   5344   5356   5357     1  0.0000000  0.6508444  3
   5345   5344   5356   5358     1  0.0000000  0.6508444  3
   5346   5344   5340   5347     1  0.0000000  0.6508444  3
   5346   5344   5340   5369     1  0.0000000  0.6508444  3
   5346   5344   5356   5362     1  0.0000000  0.6508444  3
   5346   5344   5356   5357     1  0.0000000  0.6508444  3
   5346   5344   5356   5358     1  0.0000000  0.6508444  3
   5347   5350   5359   5360     1  0.0000000  0.6508444  3
   5347   5350   5359   5361     1  0.0000000  0.6508444  3
   5348   5347   5340   5369     1  0.0000000  0.6508444  3
   5348   5347   5350   5359     1  0.0000000  0.6508444  3
   5348   5347   5350   5351     1  0.0000000  0.6508444  3
   5348   5347   5350   5352     1  0.0000000  0.6508444  3
   5349   5347   5340   5369     1  0.0000000  0.6508444  3
   5349   5347   5350   5359     1  0.0000000  0.6508444  3
   5349   5347   5350   5351     1  0.0000000  0.6508444  3
   5349   5347   5350   5352     1  0.0000000  0.6508444  3
   5350   5347   5340   5369     1  0.0000000  0.6508444  3
   5351   5350   5359   5368     1  0.0000000  1.0460000  1
   5351   5350   5359   5368     1  0.0000000  0.0000000  3
   5351   5350   5359   5360     1  0.0000000  0.6508444  3
   5351   5350   5359   5361     1  0.0000000  0.6508444  3
   5352   5350   5359   5368     1  0.0000000  1.0460000  1
   5352   5350   5359   5368     1  0.0000000  0.0000000  3
   5352   5350   5359   5360     1  0.0000000  0.6508444  3
   5352   5350   5359   5361     1  0.0000000  0.6508444  3
   5353   5341   5340   5369     1  0.0000000  0.6508444  3
   5354   5353   5365  10045     1  0.0000000  1.0460000  1
   5354   5353   5365  10045     1  0.0000000  0.0000000  3
   5354   5353   5365   5366     1  0.0000000  0.6508444  3
   5354   5353   5365   5367     1  0.0000000  0.6508444  3
   5355   5353   5365  10045     1  0.0000000  1.0460000  1
   5355   5353   5365  10045     1  0.0000000  0.0000000  3
   5355   5353   5365   5366     1  0.0000000  0.6508444  3
   5355   5353   5365   5367     1  0.0000000  0.6508444  3
   5356   5344   5340   5369     1  0.0000000  0.6508444  3
   5357   5356   5362  10022     1  0.0000000  1.0460000  1
   5357   5356   5362  10022     1  0.0000000  0.0000000  3
   5357   5356   5362   5363     1  0.0000000  0.6508444  3
   5357   5356   5362   5364     1  0.0000000  0.6508444  3
   5358   5356   5362  10022     1  0.0000000  1.0460000  1
   5358   5356   5362  10022     1  0.0000000  0.0000000  3
   5358   5356   5362   5363     1  0.0000000  0.6508444  3
   5358   5356   5362   5364     1  0.0000000  0.6508444  3
   5362  10022  10018  10021     1  0.0000000  1.6038667  3
   5363   5362  10022  10018     1  0.0000000  1.6038667  3
   5364   5362  10022  10018     1  0.0000000  1.6038667  3
   5365  10045  10041  10044     1  0.0000000  1.6038667  3
   5366   5365  10045  10041     1  0.0000000  1.6038667  3
   5367   5365  10045  10041     1  0.0000000  1.6038667  3
   5370   5371   5383   5384     1  0.0000000  0.6508444  3
   5370   5371   5383   5385     1  0.0000000  0.6508444  3
   5370   5374   5386   5387     1  0.0000000  0.6508444  3
   5370   5374   5386   5388     1  0.0000000  0.6508444  3
   5370   5377   5380   5381     1  0.0000000  0.6508444  3
   5370   5377   5380   5382     1  0.0000000  0.6508444  3
   5371   5370   5374   5375     1  0.0000000  0.6508444  3
   5371   5370   5374   5376     1  0.0000000  0.6508444  3
   5371   5370   5377   5378     1  0.0000000  0.6508444  3
   5371   5370   5377   5379     1  0.0000000  0.6508444  3
   5371   5383   5395   5396     1  0.0000000  0.6508444  3
   5371   5383   5395   5397     1  0.0000000  0.6508444  3
   5372   5371   5370   5374     1  0.0000000  0.6508444  3
   5372   5371   5370   5377     1  0.0000000  0.6508444  3
   5372   5371   5370   5399     1  0.0000000  0.6508444  3
   5372   5371   5383   5395     1  0.0000000  0.6508444  3
   5372   5371   5383   5384     1  0.0000000  0.6508444  3
   5372   5371   5383   5385     1  0.0000000  0.6508444  3
   5373   5371   5370   5374     1  0.0000000  0.6508444  3
   5373   5371   5370   5377     1  0.0000000  0.6508444  3
   5373   5371   5370   5399     1  0.0000000  0.6508444  3
   5373   5371   5383   5395     1  0.0000000  0.6508444  3
   5373   5371   5383   5384     1  0.0000000  0.6508444  3
   5373   5371   5383   5385     1  0.0000000  0.6508444  3
   5374   5370   5377   5378     1  0.0000000  0.6508444  3
   5374   5370   5377   5379     1  0.0000000  0.6508444  3
   5374   5386   5392   5393     1  0.0000000  0.6508444  3
   5374   5386   5392   5394     1  0.0000000  0.6508444  3
   5375   5374   5370   5377     1  0.0000000  0.6508444  3
   5375   5374   5370   5399     1  0.0000000  0.6508444  3
   5375   5374   5386   5392     1  0.0000000  0.6508444  3
   5375   5374   5386   5387     1  0.0000000  0.6508444  3
   5375   5374   5386   5388     1  0.0000000  0.6508444  3
   5376   5374   5370   5377     1  0.0000000  0.6508444  3
   5376   5374   5370   5399     1  0.0000000  0.6508444  3
   5376   5374   5386   5392     1  0.0000000  0.6508444  3
   5376   5374   5386   5387     1  0.0000000  0.6508444  3
   5376   5374   5386   5388     1  0.0000000  0.6508444  3
   5377   5380   5389   5390     1  0.0000000  0.6508444  3
   5377   5380   5389   5391     1  0.0000000  0.6508444  3
   5378   5377   5370   5399     1  0.0000000  0.6508444  3
   5378   5377   5380   5389     1  0.0000000  0.6508444  3
   5378   5377   5380   5381     1  0.0000000  0.6508444  3
   5378   5377   5380   5382     1  0.0000000  0.6508444  3
   5379   5377   5370   5399     1  0.0000000  0.6508444  3
   5379   5377   5380   5389     1  0.0000000  0.6508444  3
   5379   5377   5380   5381     1  0.0000000  0.6508444  3
   5379   5377   5380   5382     1  0.0000000  0.6508444  3
   5380   5377   5370   5399     1  0.0000000  0.6508444  3
   5381   5380   5389   5398     1  0.0000000  1.0460000  1
   5381   5380   5389   5398     1  0.0000000  0.0000000  3
   5381   5380   5389   5390     1  0.0000000  0.6508444  3
   5381   5380   5389   5391     1  0.0000000  0.6508444  3
   5382   5380   5389   5398     1  0.0000000  1.0460000  1
   5382   5380   5389   5398     1  0.0000000  0.0000000  3
   5382   5380   5389   5390     1  0.0000000  0.6508444  3
   5382   5380   5389   5391     1  0.0000000  0.6508444  3
   5383   5371   5370   5399     1  0.0000000  0.6508444  3
   5384   5383   5395  10091     1  0.0000000  1.0460000  1
   5384   5383   5395  10091     1  0.0000000  0.0000000  3
   5384   5383   5395   5396     1  0.0000000  0.6508444  3
   5384   5383   5395   5397     1  0.0000000  0.6508444  3
   5385   5383   5395  10091     1  0.0000000  1.0460000  1
   5385   5383   5395  10091     1  0.0000000  0.0000000  3
   5385   5383   5395   5396     1  0.0000000  0.6508444  3
   5385   5383   5395   5397     1  0.0000000  0.6508444  3
   5386   5374   5370   5399     1  0.0000000  0.6508444  3
   5387   5386   5392  10068     1  0.0000000  1.0460000  1
   5387   5386   5392  10068     1  0.0000000  0.0000000  3
   5387   5386   5392   5393     1  0.0000000  0.6508444  3
   5387   5386   5392   5394     1  0.0000000  0.6508444  3
   5388   5386   5392  10068     1  0.0000000  1.0460000  1
   5388   5386   5392  10068     1  0.0000000  0.0000000  3
   5388   5386   5392   5393     1  0.0000000  0.6508444  3
   5388   5386   5392   5394     1  0.0000000  0.6508444  3
   5392  10068  10064  10067     1  0.0000000  1.6038667  3
   5393   5392  10068  10064     1  0.0000000  1.6038667  3
   5394   5392  10068  10064     1  0.0000000  1.6038667  3
   5395  10091  10087  10090     1  0.0000000  1.6038667  3
   5396   5395  10091  10087     1  0.0000000  1.6038667  3
   5397   5395  10091  10087     1  0.0000000  1.6038667  3
   5400   5401   5413   5414     1  0.0000000  0.6508444  3
   5400   5401   5413   5415     1  0.0000000  0.6508444  3
   5400   5404   5416   5417     1  0.0000000  0.6508444  3
   5400   5404   5416   5418     1  0.0000000  0.6508444  3
   5400   5407   5410   5411     1  0.0000000  0.6508444  3
   5400   5407   5410   5412     1  0.0000000  0.6508444  3
   5401   5400   5404   5405     1  0.0000000  0.6508444  3
   5401   5400   5404   5406     1  0.0000000  0.6508444  3
   5401   5400   5407   5408     1  0.0000000  0.6508444  3
   5401   5400   5407   5409     1  0.0000000  0.6508444  3
   5401   5413   5425   5426     1  0.0000000  0.6508444  3
   5401   5413   5425   5427     1  0.0000000  0.6508444  3
   5402   5401   5400   5404     1  0.0000000  0.6508444  3
   5402   5401   5400   5407     1  0.0000000  0.6508444  3
   5402   5401   5400   5429     1  0.0000000  0.6508444  3
   5402   5401   5413   5425     1  0.0000000  0.6508444  3
   5402   5401   5413   5414     1  0.0000000  0.6508444  3
   5402   5401   5413   5415     1  0.0000000  0.6508444  3
   5403   5401   5400   5404     1  0.0000000  0.6508444  3
   5403   5401   5400   5407     1  0.0000000  0.6508444  3
   5403   5401   5400   5429     1  0.0000000  0.6508444  3
   5403   5401   5413   5425     1  0.0000000  0.6508444  3
   5403   5401   5413   5414     1  0.0000000  0.6508444  3
   5403   5401   5413   5415     1  0.0000000  0.6508444  3
   5404   5400   5407   5408     1  0.0000000  0.6508444  3
   5404   5400   5407   5409     1  0.0000000  0.6508444  3
   5404   5416   5422   5423     1  0.0000000  0.6508444  3
   5404   5416   5422   5424     1  0.0000000  0.6508444  3
   5405   5404   5400   5407     1  0.0000000  0.6508444  3
   5405   5404   5400   5429     1  0.0000000  0.6508444  3
   5405   5404   5416   5422     1  0.0000000  0.6508444  3
   5405   5404   5416   5417     1  0.0000000  0.6508444  3
   5405   5404   5416   5418     1  0.0000000  0.6508444  3
   5406   5404   5400   5407     1  0.0000000  0.6508444  3
   5406   5404   5400   5429     1  0.0000000  0.6508444  3
   5406   5404   5416   5422     1  0.0000000  0.6508444  3
   5406   5404   5416   5417     1  0.0000000  0.6508444  3
   5406   5404   5416   5418     1  0.0000000  0.6508444  3
   5407   5410   5419   5420     1  0.0000000  0.6508444  3
   5407   5410   5419   5421     1  0.0000000  0.6508444  3
   5408   5407   5400   5429     1  0.0000000  0.6508444  3
   5408   5407   5410   5419     1  0.0000000  0.6508444  3
   5408   5407   5410   5411     1  0.0000000  0.6508444  3
   5408   5407   5410   5412     1  0.0000000  0.6508444  3
   5409   5407   5400   5429     1  0.0000000  0.6508444  3
   5409   5407   5410   5419     1  0.0000000  0.6508444  3
   5409   5407   5410   5411     1  0.0000000  0.6508444  3
   5409   5407   5410   5412     1  0.0000000  0.6508444  3
   5410   5407   5400   5429     1  0.0000000  0.6508444  3
   5411   5410   5419   5428     1  0.0000000  1.0460000  1
   5411   5410   5419   5428     1  0.0000000  0.0000000  3
   5411   5410   5419   5420     1  0.0000000  0.6508444  3
   5411   5410   5419   5421     1  0.0000000  0.6508444  3
   5412   5410   5419   5428     1  0.0000000  1.0460000  1
   5412   5410   5419   5428     1  0.0000000  0.0000000  3
   5412   5410   5419   5420     1  0.0000000  0.6508444  3
   5412   5410   5419   5421     1  0.0000000  0.6508444  3
   5413   5401   5400   5429     1  0.0000000  0.6508444  3
   5414   5413   5425  10137     1  0.0000000  1.0460000  1
   5414   5413   5425  10137     1  0.0000000  0.0000000  3
   5414   5413   5425   5426     1  0.0000000  0.6508444  3
   5414   5413   5425   5427     1  0.0000000  0.6508444  3
   5415   5413   5425  10137     1  0.0000000  1.0460000  1
   5415   5413   5425  10137     1  0.0000000  0.0000000  3
   5415   5413   5425   5426     1  0.0000000  0.6508444  3
   5415   5413   5425   5427     1  0.0000000  0.6508444  3
   5416   5404   5400   5429     1  0.0000000  0.6508444  3
   5417   5416   5422  10114     1  0.0000000  1.0460000  1
   5417   5416   5422  10114     1  0.0000000  0.0000000  3
   5417   5416   5422   5423     1  0.0000000  0.6508444  3
   5417   5416   5422   5424     1  0.0000000  0.6508444  3
   5418   5416   5422  10114     1  0.0000000  1.0460000  1
   5418   5416   5422  10114     1  0.0000000  0.0000000  3
   5418   5416   5422   5423     1  0.0000000  0.6508444  3
   5418   5416   5422   5424     1  0.0000000  0.6508444  3
   5422  10114  10110  10113     1  0.0000000  1.6038667  3
   5423   5422  10114  10110     1  0.0000000  1.6038667  3
   5424   5422  10114  10110     1  0.0000000  1.6038667  3
   5425  10137  10133  10136     1  0.0000000  1.6038667  3
   5426   5425  10137  10133     1  0.0000000  1.6038667  3
   5427   5425  10137  10133     1  0.0000000  1.6038667  3
   5430   5431   5443   5444     1  0.0000000  0.6508444  3
   5430   5431   5443   5445     1  0.0000000  0.6508444  3
   5430   5434   5446   5447     1  0.0000000  0.6508444  3
   5430   5434   5446   5448     1  0.0000000  0.6508444  3
   5430   5437   5440   5441     1  0.0000000  0.6508444  3
   5430   5437   5440   5442     1  0.0000000  0.6508444  3
   5431   5430   5434   5435     1  0.0000000  0.6508444  3
   5431   5430   5434   5436     1  0.0000000  0.6508444  3
   5431   5430   5437   5438     1  0.0000000  0.6508444  3
   5431   5430   5437   5439     1  0.0000000  0.6508444  3
   5431   5443   5455   5456     1  0.0000000  0.6508444  3
   5431   5443   5455   5457     1  0.0000000  0.6508444  3
   5432   5431   5430   5434     1  0.0000000  0.6508444  3
   5432   5431   5430   5437     1  0.0000000  0.6508444  3
   5432   5431   5430   5459     1  0.0000000  0.6508444  3
   5432   5431   5443   5455     1  0.0000000  0.6508444  3
   5432   5431   5443   5444     1  0.0000000  0.6508444  3
   5432   5431   5443   5445     1  0.0000000  0.6508444  3
   5433   5431   5430   5434     1  0.0000000  0.6508444  3
   5433   5431   5430   5437     1  0.0000000  0.6508444  3
   5433   5431   5430   5459     1  0.0000000  0.6508444  3
   5433   5431   5443   5455     1  0.0000000  0.6508444  3
   5433   5431   5443   5444     1  0.0000000  0.6508444  3
   5433   5431   5443   5445     1  0.0000000  0.6508444  3
   5434   5430   5437   5438     1  0.0000000  0.6508444  3
   5434   5430   5437   5439     1  0.0000000  0.6508444  3
   5434   5446   5452   5453     1  0.0000000  0.6508444  3
   5434   5446   5452   5454     1  0.0000000  0.6508444  3
   5435   5434   5430   5437     1  0.0000000  0.6508444  3
   5435   5434   5430   5459     1  0.0000000  0.6508444  3
   5435   5434   5446   5452     1  0.0000000  0.6508444  3
   5435   5434   5446   5447     1  0.0000000  0.6508444  3
   5435   5434   5446   5448     1  0.0000000  0.6508444  3
   5436   5434   5430   5437     1  0.0000000  0.6508444  3
   5436   5434   5430   5459     1  0.0000000  0.6508444  3
   5436   5434   5446   5452     1  0.0000000  0.6508444  3
   5436   5434   5446   5447     1  0.0000000  0.6508444  3
   5436   5434   5446   5448     1  0.0000000  0.6508444  3
   5437   5440   5449   5450     1  0.0000000  0.6508444  3
   5437   5440   5449   5451     1  0.0000000  0.6508444  3
   5438   5437   5430   5459     1  0.0000000  0.6508444  3
   5438   5437   5440   5449     1  0.0000000  0.6508444  3
   5438   5437   5440   5441     1  0.0000000  0.6508444  3
   5438   5437   5440   5442     1  0.0000000  0.6508444  3
   5439   5437   5430   5459     1  0.0000000  0.6508444  3
   5439   5437   5440   5449     1  0.0000000  0.6508444  3
   5439   5437   5440   5441     1  0.0000000  0.6508444  3
   5439   5437   5440   5442     1  0.0000000  0.6508444  3
   5440   5437   5430   5459     1  0.0000000  0.6508444  3
   5441   5440   5449   5458     1  0.0000000  1.0460000  1
   5441   5440   5449   5458     1  0.0000000  0.0000000  3
   5441   5440   5449   5450     1  0.0000000  0.6508444  3
   5441   5440   5449   5451     1  0.0000000  0.6508444  3
   5442   5440   5449   5458     1  0.0000000  1.0460000  1
   5442   5440   5449   5458     1  0.0000000  0.0000000  3
   5442   5440   5449   5450     1  0.0000000  0.6508444  3
   5442   5440   5449   5451     1  0.0000000  0.6508444  3
   5443   5431   5430   5459     1  0.0000000  0.6508444  3
   5444   5443   5455  10183     1  0.0000000  1.0460000  1
   5444   5443   5455  10183     1  0.0000000  0.0000000  3
   5444   5443   5455   5456     1  0.0000000  0.6508444  3
   5444   5443   5455   5457     1  0.0000000  0.6508444  3
   5445   5443   5455  10183     1  0.0000000  1.0460000  1
   5445   5443   5455  10183     1  0.0000000  0.0000000  3
   5445   5443   5455   5456     1  0.0000000  0.6508444  3
   5445   5443   5455   5457     1  0.0000000  0.6508444  3
   5446   5434   5430   5459     1  0.0000000  0.6508444  3
   5447   5446   5452  10160     1  0.0000000  1.0460000  1
   5447   5446   5452  10160     1  0.0000000  0.0000000  3
   5447   5446   5452   5453     1  0.0000000  0.6508444  3
   5447   5446   5452   5454     1  0.0000000  0.6508444  3
   5448   5446   5452  10160     1  0.0000000  1.0460000  1
   5448   5446   5452  10160     1  0.0000000  0.0000000  3
   5448   5446   5452   5453     1  0.0000000  0.6508444  3
   5448   5446   5452   5454     1  0.0000000  0.6508444  3
   5452  10160  10156  10159     1  0.0000000  1.6038667  3
   5453   5452  10160  10156     1  0.0000000  1.6038667  3
   5454   5452  10160  10156     1  0.0000000  1.6038667  3
   5455  10183  10179  10182     1  0.0000000  1.6038667  3
   5456   5455  10183  10179     1  0.0000000  1.6038667  3
   5457   5455  10183  10179     1  0.0000000  1.6038667  3
   5460   5461   5473   5474     1  0.0000000  0.6508444  3
   5460   5461   5473   5475     1  0.0000000  0.6508444  3
   5460   5464   5476   5477     1  0.0000000  0.6508444  3
   5460   5464   5476   5478     1  0.0000000  0.6508444  3
   5460   5467   5470   5471     1  0.0000000  0.6508444  3
   5460   5467   5470   5472     1  0.0000000  0.6508444  3
   5461   5460   5464   5465     1  0.0000000  0.6508444  3
   5461   5460   5464   5466     1  0.0000000  0.6508444  3
   5461   5460   5467   5468     1  0.0000000  0.6508444  3
   5461   5460   5467   5469     1  0.0000000  0.6508444  3
   5461   5473   5485   5486     1  0.0000000  0.6508444  3
   5461   5473   5485   5487     1  0.0000000  0.6508444  3
   5462   5461   5460   5464     1  0.0000000  0.6508444  3
   5462   5461   5460   5467     1  0.0000000  0.6508444  3
   5462   5461   5460   5489     1  0.0000000  0.6508444  3
   5462   5461   5473   5485     1  0.0000000  0.6508444  3
   5462   5461   5473   5474     1  0.0000000  0.6508444  3
   5462   5461   5473   5475     1  0.0000000  0.6508444  3
   5463   5461   5460   5464     1  0.0000000  0.6508444  3
   5463   5461   5460   5467     1  0.0000000  0.6508444  3
   5463   5461   5460   5489     1  0.0000000  0.6508444  3
   5463   5461   5473   5485     1  0.0000000  0.6508444  3
   5463   5461   5473   5474     1  0.0000000  0.6508444  3
   5463   5461   5473   5475     1  0.0000000  0.6508444  3
   5464   5460   5467   5468     1  0.0000000  0.6508444  3
   5464   5460   5467   5469     1  0.0000000  0.6508444  3
   5464   5476   5482   5483     1  0.0000000  0.6508444  3
   5464   5476   5482   5484     1  0.0000000  0.6508444  3
   5465   5464   5460   5467     1  0.0000000  0.6508444  3
   5465   5464   5460   5489     1  0.0000000  0.6508444  3
   5465   5464   5476   5482     1  0.0000000  0.6508444  3
   5465   5464   5476   5477     1  0.0000000  0.6508444  3
   5465   5464   5476   5478     1  0.0000000  0.6508444  3
   5466   5464   5460   5467     1  0.0000000  0.6508444  3
   5466   5464   5460   5489     1  0.0000000  0.6508444  3
   5466   5464   5476   5482     1  0.0000000  0.6508444  3
   5466   5464   5476   5477     1  0.0000000  0.6508444  3
   5466   5464   5476   5478     1  0.0000000  0.6508444  3
   5467   5470   5479   5480     1  0.0000000  0.6508444  3
   5467   5470   5479   5481     1  0.0000000  0.6508444  3
   5468   5467   5460   5489     1  0.0000000  0.6508444  3
   5468   5467   5470   5479     1  0.0000000  0.6508444  3
   5468   5467   5470   5471     1  0.0000000  0.6508444  3
   5468   5467   5470   5472     1  0.0000000  0.6508444  3
   5469   5467   5460   5489     1  0.0000000  0.6508444  3
   5469   5467   5470   5479     1  0.0000000  0.6508444  3
   5469   5467   5470   5471     1  0.0000000  0.6508444  3
   5469   5467   5470   5472     1  0.0000000  0.6508444  3
   5470   5467   5460   5489     1  0.0000000  0.6508444  3
   5471   5470   5479   5488     1  0.0000000  1.0460000  1
   5471   5470   5479   5488     1  0.0000000  0.0000000  3
   5471   5470   5479   5480     1  0.0000000  0.6508444  3
   5471   5470   5479   5481     1  0.0000000  0.6508444  3
   5472   5470   5479   5488     1  0.0000000  1.0460000  1
   5472   5470   5479   5488     1  0.0000000  0.0000000  3
   5472   5470   5479   5480     1  0.0000000  0.6508444  3
   5472   5470   5479   5481     1  0.0000000  0.6508444  3
   5473   5461   5460   5489     1  0.0000000  0.6508444  3
   5474   5473   5485  10229     1  0.0000000  1.0460000  1
   5474   5473   5485  10229     1  0.0000000  0.0000000  3
   5474   5473   5485   5486     1  0.0000000  0.6508444  3
   5474   5473   5485   5487     1  0.0000000  0.6508444  3
   5475   5473   5485  10229     1  0.0000000  1.0460000  1
   5475   5473   5485  10229     1  0.0000000  0.0000000  3
   5475   5473   5485   5486     1  0.0000000  0.6508444  3
   5475   5473   5485   5487     1  0.0000000  0.6508444  3
   5476   5464   5460   5489     1  0.0000000  0.6508444  3
   5477   5476   5482  10206     1  0.0000000  1.0460000  1
   5477   5476   5482  10206     1  0.0000000  0.0000000  3
   5477   5476   5482   5483     1  0.0000000  0.6508444  3
   5477   5476   5482   5484     1  0.0000000  0.6508444  3
   5478   5476   5482  10206     1  0.0000000  1.0460000  1
   5478   5476   5482  10206     1  0.0000000  0.0000000  3
   5478   5476   5482   5483     1  0.0000000  0.6508444  3
   5478   5476   5482   5484     1  0.0000000  0.6508444  3
   5482  10206  10202  10205     1  0.0000000  1.6038667  3
   5483   5482  10206  10202     1  0.0000000  1.6038667  3
   5484   5482  10206  10202     1  0.0000000  1.6038667  3
   5485  10229  10225  10228     1  0.0000000  1.6038667  3
   5486   5485  10229  10225     1  0.0000000  1.6038667  3
   5487   5485  10229  10225     1  0.0000000  1.6038667  3
   5490   5491   5503   5504     1  0.0000000  0.6508444  3
   5490   5491   5503   5505     1  0.0000000  0.6508444  3
   5490   5494   5506   5507     1  0.0000000  0.6508444  3
   5490   5494   5506   5508     1  0.0000000  0.6508444  3
   5490   5497   5500   5501     1  0.0000000  0.6508444  3
   5490   5497   5500   5502     1  0.0000000  0.6508444  3
   5491   5490   5494   5495     1  0.0000000  0.6508444  3
   5491   5490   5494   5496     1  0.0000000  0.6508444  3
   5491   5490   5497   5498     1  0.0000000  0.6508444  3
   5491   5490   5497   5499     1  0.0000000  0.6508444  3
   5491   5503   5515   5516     1  0.0000000  0.6508444  3
   5491   5503   5515   5517     1  0.0000000  0.6508444  3
   5492   5491   5490   5494     1  0.0000000  0.6508444  3
   5492   5491   5490   5497     1  0.0000000  0.6508444  3
   5492   5491   5490   5519     1  0.0000000  0.6508444  3
   5492   5491   5503   5515     1  0.0000000  0.6508444  3
   5492   5491   5503   5504     1  0.0000000  0.6508444  3
   5492   5491   5503   5505     1  0.0000000  0.6508444  3
   5493   5491   5490   5494     1  0.0000000  0.6508444  3
   5493   5491   5490   5497     1  0.0000000  0.6508444  3
   5493   5491   5490   5519     1  0.0000000  0.6508444  3
   5493   5491   5503   5515     1  0.0000000  0.6508444  3
   5493   5491   5503   5504     1  0.0000000  0.6508444  3
   5493   5491   5503   5505     1  0.0000000  0.6508444  3
   5494   5490   5497   5498     1  0.0000000  0.6508444  3
   5494   5490   5497   5499     1  0.0000000  0.6508444  3
   5494   5506   5512   5513     1  0.0000000  0.6508444  3
   5494   5506   5512   5514     1  0.0000000  0.6508444  3
   5495   5494   5490   5497     1  0.0000000  0.6508444  3
   5495   5494   5490   5519     1  0.0000000  0.6508444  3
   5495   5494   5506   5512     1  0.0000000  0.6508444  3
   5495   5494   5506   5507     1  0.0000000  0.6508444  3
   5495   5494   5506   5508     1  0.0000000  0.6508444  3
   5496   5494   5490   5497     1  0.0000000  0.6508444  3
   5496   5494   5490   5519     1  0.0000000  0.6508444  3
   5496   5494   5506   5512     1  0.0000000  0.6508444  3
   5496   5494   5506   5507     1  0.0000000  0.6508444  3
   5496   5494   5506   5508     1  0.0000000  0.6508444  3
   5497   5500   5509   5510     1  0.0000000  0.6508444  3
   5497   5500   5509   5511     1  0.0000000  0.6508444  3
   5498   5497   5490   5519     1  0.0000000  0.6508444  3
   5498   5497   5500   5509     1  0.0000000  0.6508444  3
   5498   5497   5500   5501     1  0.0000000  0.6508444  3
   5498   5497   5500   5502     1  0.0000000  0.6508444  3
   5499   5497   5490   5519     1  0.0000000  0.6508444  3
   5499   5497   5500   5509     1  0.0000000  0.6508444  3
   5499   5497   5500   5501     1  0.0000000  0.6508444  3
   5499   5497   5500   5502     1  0.0000000  0.6508444  3
   5500   5497   5490   5519     1  0.0000000  0.6508444  3
   5501   5500   5509   5518     1  0.0000000  1.0460000  1
   5501   5500   5509   5518     1  0.0000000  0.0000000  3
   5501   5500   5509   5510     1  0.0000000  0.6508444  3
   5501   5500   5509   5511     1  0.0000000  0.6508444  3
   5502   5500   5509   5518     1  0.0000000  1.0460000  1
   5502   5500   5509   5518     1  0.0000000  0.0000000  3
   5502   5500   5509   5510     1  0.0000000  0.6508444  3
   5502   5500   5509   5511     1  0.0000000  0.6508444  3
   5503   5491   5490   5519     1  0.0000000  0.6508444  3
   5504   5503   5515  10275     1  0.0000000  1.0460000  1
   5504   5503   5515  10275     1  0.0000000  0.0000000  3
   5504   5503   5515   5516     1  0.0000000  0.6508444  3
   5504   5503   5515   5517     1  0.0000000  0.6508444  3
   5505   5503   5515  10275     1  0.0000000  1.0460000  1
   5505   5503   5515  10275     1  0.0000000  0.0000000  3
   5505   5503   5515   5516     1  0.0000000  0.6508444  3
   5505   5503   5515   5517     1  0.0000000  0.6508444  3
   5506   5494   5490   5519     1  0.0000000  0.6508444  3
   5507   5506   5512  10252     1  0.0000000  1.0460000  1
   5507   5506   5512  10252     1  0.0000000  0.0000000  3
   5507   5506   5512   5513     1  0.0000000  0.6508444  3
   5507   5506   5512   5514     1  0.0000000  0.6508444  3
   5508   5506   5512  10252     1  0.0000000  1.0460000  1
   5508   5506   5512  10252     1  0.0000000  0.0000000  3
   5508   5506   5512   5513     1  0.0000000  0.6508444  3
   5508   5506   5512   5514     1  0.0000000  0.6508444  3
   5512  10252  10248  10251     1  0.0000000  1.6038667  3
   5513   5512  10252  10248     1  0.0000000  1.6038667  3
   5514   5512  10252  10248     1  0.0000000  1.6038667  3
   5515  10275  10271  10274     1  0.0000000  1.6038667  3
   5516   5515  10275  10271     1  0.0000000  1.6038667  3
   5517   5515  10275  10271     1  0.0000000  1.6038667  3
   5520   5521   5533   5534     1  0.0000000  0.6508444  3
   5520   5521   5533   5535     1  0.0000000  0.6508444  3
   5520   5524   5536   5537     1  0.0000000  0.6508444  3
   5520   5524   5536   5538     1  0.0000000  0.6508444  3
   5520   5527   5530   5531     1  0.0000000  0.6508444  3
   5520   5527   5530   5532     1  0.0000000  0.6508444  3
   5521   5520   5524   5525     1  0.0000000  0.6508444  3
   5521   5520   5524   5526     1  0.0000000  0.6508444  3
   5521   5520   5527   5528     1  0.0000000  0.6508444  3
   5521   5520   5527   5529     1  0.0000000  0.6508444  3
   5521   5533   5545   5546     1  0.0000000  0.6508444  3
   5521   5533   5545   5547     1  0.0000000  0.6508444  3
   5522   5521   5520   5524     1  0.0000000  0.6508444  3
   5522   5521   5520   5527     1  0.0000000  0.6508444  3
   5522   5521   5520   5549     1  0.0000000  0.6508444  3
   5522   5521   5533   5545     1  0.0000000  0.6508444  3
   5522   5521   5533   5534     1  0.0000000  0.6508444  3
   5522   5521   5533   5535     1  0.0000000  0.6508444  3
   5523   5521   5520   5524     1  0.0000000  0.6508444  3
   5523   5521   5520   5527     1  0.0000000  0.6508444  3
   5523   5521   5520   5549     1  0.0000000  0.6508444  3
   5523   5521   5533   5545     1  0.0000000  0.6508444  3
   5523   5521   5533   5534     1  0.0000000  0.6508444  3
   5523   5521   5533   5535     1  0.0000000  0.6508444  3
   5524   5520   5527   5528     1  0.0000000  0.6508444  3
   5524   5520   5527   5529     1  0.0000000  0.6508444  3
   5524   5536   5542   5543     1  0.0000000  0.6508444  3
   5524   5536   5542   5544     1  0.0000000  0.6508444  3
   5525   5524   5520   5527     1  0.0000000  0.6508444  3
   5525   5524   5520   5549     1  0.0000000  0.6508444  3
   5525   5524   5536   5542     1  0.0000000  0.6508444  3
   5525   5524   5536   5537     1  0.0000000  0.6508444  3
   5525   5524   5536   5538     1  0.0000000  0.6508444  3
   5526   5524   5520   5527     1  0.0000000  0.6508444  3
   5526   5524   5520   5549     1  0.0000000  0.6508444  3
   5526   5524   5536   5542     1  0.0000000  0.6508444  3
   5526   5524   5536   5537     1  0.0000000  0.6508444  3
   5526   5524   5536   5538     1  0.0000000  0.6508444  3
   5527   5530   5539   5540     1  0.0000000  0.6508444  3
   5527   5530   5539   5541     1  0.0000000  0.6508444  3
   5528   5527   5520   5549     1  0.0000000  0.6508444  3
   5528   5527   5530   5539     1  0.0000000  0.6508444  3
   5528   5527   5530   5531     1  0.0000000  0.6508444  3
   5528   5527   5530   5532     1  0.0000000  0.6508444  3
   5529   5527   5520   5549     1  0.0000000  0.6508444  3
   5529   5527   5530   5539     1  0.0000000  0.6508444  3
   5529   5527   5530   5531     1  0.0000000  0.6508444  3
   5529   5527   5530   5532     1  0.0000000  0.6508444  3
   5530   5527   5520   5549     1  0.0000000  0.6508444  3
   5531   5530   5539   5548     1  0.0000000  1.0460000  1
   5531   5530   5539   5548     1  0.0000000  0.0000000  3
   5531   5530   5539   5540     1  0.0000000  0.6508444  3
   5531   5530   5539   5541     1  0.0000000  0.6508444  3
   5532   5530   5539   5548     1  0.0000000  1.0460000  1
   5532   5530   5539   5548     1  0.0000000  0.0000000  3
   5532   5530   5539   5540     1  0.0000000  0.6508444  3
   5532   5530   5539   5541     1  0.0000000  0.6508444  3
   5533   5521   5520   5549     1  0.0000000  0.6508444  3
   5534   5533   5545  10321     1  0.0000000  1.0460000  1
   5534   5533   5545  10321     1  0.0000000  0.0000000  3
   5534   5533   5545   5546     1  0.0000000  0.6508444  3
   5534   5533   5545   5547     1  0.0000000  0.6508444  3
   5535   5533   5545  10321     1  0.0000000  1.0460000  1
   5535   5533   5545  10321     1  0.0000000  0.0000000  3
   5535   5533   5545   5546     1  0.0000000  0.6508444  3
   5535   5533   5545   5547     1  0.0000000  0.6508444  3
   5536   5524   5520   5549     1  0.0000000  0.6508444  3
   5537   5536   5542  10298     1  0.0000000  1.0460000  1
   5537   5536   5542  10298     1  0.0000000  0.0000000  3
   5537   5536   5542   5543     1  0.0000000  0.6508444  3
   5537   5536   5542   5544     1  0.0000000  0.6508444  3
   5538   5536   5542  10298     1  0.0000000  1.0460000  1
   5538   5536   5542  10298     1  0.0000000  0.0000000  3
   5538   5536   5542   5543     1  0.0000000  0.6508444  3
   5538   5536   5542   5544     1  0.0000000  0.6508444  3
   5542  10298  10294  10297     1  0.0000000  1.6038667  3
   5543   5542  10298  10294     1  0.0000000  1.6038667  3
   5544   5542  10298  10294     1  0.0000000  1.6038667  3
   5545  10321  10317  10320     1  0.0000000  1.6038667  3
   5546   5545  10321  10317     1  0.0000000  1.6038667  3
   5547   5545  10321  10317     1  0.0000000  1.6038667  3
   5550   5551   5563   5564     1  0.0000000  0.6508444  3
   5550   5551   5563   5565     1  0.0000000  0.6508444  3
   5550   5554   5566   5567     1  0.0000000  0.6508444  3
   5550   5554   5566   5568     1  0.0000000  0.6508444  3
   5550   5557   5560   5561     1  0.0000000  0.6508444  3
   5550   5557   5560   5562     1  0.0000000  0.6508444  3
   5551   5550   5554   5555     1  0.0000000  0.6508444  3
   5551   5550   5554   5556     1  0.0000000  0.6508444  3
   5551   5550   5557   5558     1  0.0000000  0.6508444  3
   5551   5550   5557   5559     1  0.0000000  0.6508444  3
   5551   5563   5575   5576     1  0.0000000  0.6508444  3
   5551   5563   5575   5577     1  0.0000000  0.6508444  3
   5552   5551   5550   5554     1  0.0000000  0.6508444  3
   5552   5551   5550   5557     1  0.0000000  0.6508444  3
   5552   5551   5550   5579     1  0.0000000  0.6508444  3
   5552   5551   5563   5575     1  0.0000000  0.6508444  3
   5552   5551   5563   5564     1  0.0000000  0.6508444  3
   5552   5551   5563   5565     1  0.0000000  0.6508444  3
   5553   5551   5550   5554     1  0.0000000  0.6508444  3
   5553   5551   5550   5557     1  0.0000000  0.6508444  3
   5553   5551   5550   5579     1  0.0000000  0.6508444  3
   5553   5551   5563   5575     1  0.0000000  0.6508444  3
   5553   5551   5563   5564     1  0.0000000  0.6508444  3
   5553   5551   5563   5565     1  0.0000000  0.6508444  3
   5554   5550   5557   5558     1  0.0000000  0.6508444  3
   5554   5550   5557   5559     1  0.0000000  0.6508444  3
   5554   5566   5572   5573     1  0.0000000  0.6508444  3
   5554   5566   5572   5574     1  0.0000000  0.6508444  3
   5555   5554   5550   5557     1  0.0000000  0.6508444  3
   5555   5554   5550   5579     1  0.0000000  0.6508444  3
   5555   5554   5566   5572     1  0.0000000  0.6508444  3
   5555   5554   5566   5567     1  0.0000000  0.6508444  3
   5555   5554   5566   5568     1  0.0000000  0.6508444  3
   5556   5554   5550   5557     1  0.0000000  0.6508444  3
   5556   5554   5550   5579     1  0.0000000  0.6508444  3
   5556   5554   5566   5572     1  0.0000000  0.6508444  3
   5556   5554   5566   5567     1  0.0000000  0.6508444  3
   5556   5554   5566   5568     1  0.0000000  0.6508444  3
   5557   5560   5569   5570     1  0.0000000  0.6508444  3
   5557   5560   5569   5571     1  0.0000000  0.6508444  3
   5558   5557   5550   5579     1  0.0000000  0.6508444  3
   5558   5557   5560   5569     1  0.0000000  0.6508444  3
   5558   5557   5560   5561     1  0.0000000  0.6508444  3
   5558   5557   5560   5562     1  0.0000000  0.6508444  3
   5559   5557   5550   5579     1  0.0000000  0.6508444  3
   5559   5557   5560   5569     1  0.0000000  0.6508444  3
   5559   5557   5560   5561     1  0.0000000  0.6508444  3
   5559   5557   5560   5562     1  0.0000000  0.6508444  3
   5560   5557   5550   5579     1  0.0000000  0.6508444  3
   5561   5560   5569   5578     1  0.0000000  1.0460000  1
   5561   5560   5569   5578     1  0.0000000  0.0000000  3
   5561   5560   5569   5570     1  0.0000000  0.6508444  3
   5561   5560   5569   5571     1  0.0000000  0.6508444  3
   5562   5560   5569   5578     1  0.0000000  1.0460000  1
   5562   5560   5569   5578     1  0.0000000  0.0000000  3
   5562   5560   5569   5570     1  0.0000000  0.6508444  3
   5562   5560   5569   5571     1  0.0000000  0.6508444  3
   5563   5551   5550   5579     1  0.0000000  0.6508444  3
   5564   5563   5575  10367     1  0.0000000  1.0460000  1
   5564   5563   5575  10367     1  0.0000000  0.0000000  3
   5564   5563   5575   5576     1  0.0000000  0.6508444  3
   5564   5563   5575   5577     1  0.0000000  0.6508444  3
   5565   5563   5575  10367     1  0.0000000  1.0460000  1
   5565   5563   5575  10367     1  0.0000000  0.0000000  3
   5565   5563   5575   5576     1  0.0000000  0.6508444  3
   5565   5563   5575   5577     1  0.0000000  0.6508444  3
   5566   5554   5550   5579     1  0.0000000  0.6508444  3
   5567   5566   5572  10344     1  0.0000000  1.0460000  1
   5567   5566   5572  10344     1  0.0000000  0.0000000  3
   5567   5566   5572   5573     1  0.0000000  0.6508444  3
   5567   5566   5572   5574     1  0.0000000  0.6508444  3
   5568   5566   5572  10344     1  0.0000000  1.0460000  1
   5568   5566   5572  10344     1  0.0000000  0.0000000  3
   5568   5566   5572   5573     1  0.0000000  0.6508444  3
   5568   5566   5572   5574     1  0.0000000  0.6508444  3
   5572  10344  10340  10343     1  0.0000000  1.6038667  3
   5573   5572  10344  10340     1  0.0000000  1.6038667  3
   5574   5572  10344  10340     1  0.0000000  1.6038667  3
   5575  10367  10363  10366     1  0.0000000  1.6038667  3
   5576   5575  10367  10363     1  0.0000000  1.6038667  3
   5577   5575  10367  10363     1  0.0000000  1.6038667  3
   5580   5581   5593   5594     1  0.0000000  0.6508444  3
   5580   5581   5593   5595     1  0.0000000  0.6508444  3
   5580   5584   5596   5597     1  0.0000000  0.6508444  3
   5580   5584   5596   5598     1  0.0000000  0.6508444  3
   5580   5587   5590   5591     1  0.0000000  0.6508444  3
   5580   5587   5590   5592     1  0.0000000  0.6508444  3
   5581   5580   5584   5585     1  0.0000000  0.6508444  3
   5581   5580   5584   5586     1  0.0000000  0.6508444  3
   5581   5580   5587   5588     1  0.0000000  0.6508444  3
   5581   5580   5587   5589     1  0.0000000  0.6508444  3
   5581   5593   5605   5606     1  0.0000000  0.6508444  3
   5581   5593   5605   5607     1  0.0000000  0.6508444  3
   5582   5581   5580   5584     1  0.0000000  0.6508444  3
   5582   5581   5580   5587     1  0.0000000  0.6508444  3
   5582   5581   5580   5609     1  0.0000000  0.6508444  3
   5582   5581   5593   5605     1  0.0000000  0.6508444  3
   5582   5581   5593   5594     1  0.0000000  0.6508444  3
   5582   5581   5593   5595     1  0.0000000  0.6508444  3
   5583   5581   5580   5584     1  0.0000000  0.6508444  3
   5583   5581   5580   5587     1  0.0000000  0.6508444  3
   5583   5581   5580   5609     1  0.0000000  0.6508444  3
   5583   5581   5593   5605     1  0.0000000  0.6508444  3
   5583   5581   5593   5594     1  0.0000000  0.6508444  3
   5583   5581   5593   5595     1  0.0000000  0.6508444  3
   5584   5580   5587   5588     1  0.0000000  0.6508444  3
   5584   5580   5587   5589     1  0.0000000  0.6508444  3
   5584   5596   5602   5603     1  0.0000000  0.6508444  3
   5584   5596   5602   5604     1  0.0000000  0.6508444  3
   5585   5584   5580   5587     1  0.0000000  0.6508444  3
   5585   5584   5580   5609     1  0.0000000  0.6508444  3
   5585   5584   5596   5602     1  0.0000000  0.6508444  3
   5585   5584   5596   5597     1  0.0000000  0.6508444  3
   5585   5584   5596   5598     1  0.0000000  0.6508444  3
   5586   5584   5580   5587     1  0.0000000  0.6508444  3
   5586   5584   5580   5609     1  0.0000000  0.6508444  3
   5586   5584   5596   5602     1  0.0000000  0.6508444  3
   5586   5584   5596   5597     1  0.0000000  0.6508444  3
   5586   5584   5596   5598     1  0.0000000  0.6508444  3
   5587   5590   5599   5600     1  0.0000000  0.6508444  3
   5587   5590   5599   5601     1  0.0000000  0.6508444  3
   5588   5587   5580   5609     1  0.0000000  0.6508444  3
   5588   5587   5590   5599     1  0.0000000  0.6508444  3
   5588   5587   5590   5591     1  0.0000000  0.6508444  3
   5588   5587   5590   5592     1  0.0000000  0.6508444  3
   5589   5587   5580   5609     1  0.0000000  0.6508444  3
   5589   5587   5590   5599     1  0.0000000  0.6508444  3
   5589   5587   5590   5591     1  0.0000000  0.6508444  3
   5589   5587   5590   5592     1  0.0000000  0.6508444  3
   5590   5587   5580   5609     1  0.0000000  0.6508444  3
   5591   5590   5599   5608     1  0.0000000  1.0460000  1
   5591   5590   5599   5608     1  0.0000000  0.0000000  3
   5591   5590   5599   5600     1  0.0000000  0.6508444  3
   5591   5590   5599   5601     1  0.0000000  0.6508444  3
   5592   5590   5599   5608     1  0.0000000  1.0460000  1
   5592   5590   5599   5608     1  0.0000000  0.0000000  3
   5592   5590   5599   5600     1  0.0000000  0.6508444  3
   5592   5590   5599   5601     1  0.0000000  0.6508444  3
   5593   5581   5580   5609     1  0.0000000  0.6508444  3
   5594   5593   5605  10413     1  0.0000000  1.0460000  1
   5594   5593   5605  10413     1  0.0000000  0.0000000  3
   5594   5593   5605   5606     1  0.0000000  0.6508444  3
   5594   5593   5605   5607     1  0.0000000  0.6508444  3
   5595   5593   5605  10413     1  0.0000000  1.0460000  1
   5595   5593   5605  10413     1  0.0000000  0.0000000  3
   5595   5593   5605   5606     1  0.0000000  0.6508444  3
   5595   5593   5605   5607     1  0.0000000  0.6508444  3
   5596   5584   5580   5609     1  0.0000000  0.6508444  3
   5597   5596   5602  10390     1  0.0000000  1.0460000  1
   5597   5596   5602  10390     1  0.0000000  0.0000000  3
   5597   5596   5602   5603     1  0.0000000  0.6508444  3
   5597   5596   5602   5604     1  0.0000000  0.6508444  3
   5598   5596   5602  10390     1  0.0000000  1.0460000  1
   5598   5596   5602  10390     1  0.0000000  0.0000000  3
   5598   5596   5602   5603     1  0.0000000  0.6508444  3
   5598   5596   5602   5604     1  0.0000000  0.6508444  3
   5602  10390  10386  10389     1  0.0000000  1.6038667  3
   5603   5602  10390  10386     1  0.0000000  1.6038667  3
   5604   5602  10390  10386     1  0.0000000  1.6038667  3
   5605  10413  10409  10412     1  0.0000000  1.6038667  3
   5606   5605  10413  10409     1  0.0000000  1.6038667  3
   5607   5605  10413  10409     1  0.0000000  1.6038667  3
   5610   5611   5623   5624     1  0.0000000  0.6508444  3
   5610   5611   5623   5625     1  0.0000000  0.6508444  3
   5610   5614   5626   5627     1  0.0000000  0.6508444  3
   5610   5614   5626   5628     1  0.0000000  0.6508444  3
   5610   5617   5620   5621     1  0.0000000  0.6508444  3
   5610   5617   5620   5622     1  0.0000000  0.6508444  3
   5611   5610   5614   5615     1  0.0000000  0.6508444  3
   5611   5610   5614   5616     1  0.0000000  0.6508444  3
   5611   5610   5617   5618     1  0.0000000  0.6508444  3
   5611   5610   5617   5619     1  0.0000000  0.6508444  3
   5611   5623   5635   5636     1  0.0000000  0.6508444  3
   5611   5623   5635   5637     1  0.0000000  0.6508444  3
   5612   5611   5610   5614     1  0.0000000  0.6508444  3
   5612   5611   5610   5617     1  0.0000000  0.6508444  3
   5612   5611   5610   5639     1  0.0000000  0.6508444  3
   5612   5611   5623   5635     1  0.0000000  0.6508444  3
   5612   5611   5623   5624     1  0.0000000  0.6508444  3
   5612   5611   5623   5625     1  0.0000000  0.6508444  3
   5613   5611   5610   5614     1  0.0000000  0.6508444  3
   5613   5611   5610   5617     1  0.0000000  0.6508444  3
   5613   5611   5610   5639     1  0.0000000  0.6508444  3
   5613   5611   5623   5635     1  0.0000000  0.6508444  3
   5613   5611   5623   5624     1  0.0000000  0.6508444  3
   5613   5611   5623   5625     1  0.0000000  0.6508444  3
   5614   5610   5617   5618     1  0.0000000  0.6508444  3
   5614   5610   5617   5619     1  0.0000000  0.6508444  3
   5614   5626   5632   5633     1  0.0000000  0.6508444  3
   5614   5626   5632   5634     1  0.0000000  0.6508444  3
   5615   5614   5610   5617     1  0.0000000  0.6508444  3
   5615   5614   5610   5639     1  0.0000000  0.6508444  3
   5615   5614   5626   5632     1  0.0000000  0.6508444  3
   5615   5614   5626   5627     1  0.0000000  0.6508444  3
   5615   5614   5626   5628     1  0.0000000  0.6508444  3
   5616   5614   5610   5617     1  0.0000000  0.6508444  3
   5616   5614   5610   5639     1  0.0000000  0.6508444  3
   5616   5614   5626   5632     1  0.0000000  0.6508444  3
   5616   5614   5626   5627     1  0.0000000  0.6508444  3
   5616   5614   5626   5628     1  0.0000000  0.6508444  3
   5617   5620   5629   5630     1  0.0000000  0.6508444  3
   5617   5620   5629   5631     1  0.0000000  0.6508444  3
   5618   5617   5610   5639     1  0.0000000  0.6508444  3
   5618   5617   5620   5629     1  0.0000000  0.6508444  3
   5618   5617   5620   5621     1  0.0000000  0.6508444  3
   5618   5617   5620   5622     1  0.0000000  0.6508444  3
   5619   5617   5610   5639     1  0.0000000  0.6508444  3
   5619   5617   5620   5629     1  0.0000000  0.6508444  3
   5619   5617   5620   5621     1  0.0000000  0.6508444  3
   5619   5617   5620   5622     1  0.0000000  0.6508444  3
   5620   5617   5610   5639     1  0.0000000  0.6508444  3
   5621   5620   5629   5638     1  0.0000000  1.0460000  1
   5621   5620   5629   5638     1  0.0000000  0.0000000  3
   5621   5620   5629   5630     1  0.0000000  0.6508444  3
   5621   5620   5629   5631     1  0.0000000  0.6508444  3
   5622   5620   5629   5638     1  0.0000000  1.0460000  1
   5622   5620   5629   5638     1  0.0000000  0.0000000  3
   5622   5620   5629   5630     1  0.0000000  0.6508444  3
   5622   5620   5629   5631     1  0.0000000  0.6508444  3
   5623   5611   5610   5639     1  0.0000000  0.6508444  3
   5624   5623   5635  10459     1  0.0000000  1.0460000  1
   5624   5623   5635  10459     1  0.0000000  0.0000000  3
   5624   5623   5635   5636     1  0.0000000  0.6508444  3
   5624   5623   5635   5637     1  0.0000000  0.6508444  3
   5625   5623   5635  10459     1  0.0000000  1.0460000  1
   5625   5623   5635  10459     1  0.0000000  0.0000000  3
   5625   5623   5635   5636     1  0.0000000  0.6508444  3
   5625   5623   5635   5637     1  0.0000000  0.6508444  3
   5626   5614   5610   5639     1  0.0000000  0.6508444  3
   5627   5626   5632  10436     1  0.0000000  1.0460000  1
   5627   5626   5632  10436     1  0.0000000  0.0000000  3
   5627   5626   5632   5633     1  0.0000000  0.6508444  3
   5627   5626   5632   5634     1  0.0000000  0.6508444  3
   5628   5626   5632  10436     1  0.0000000  1.0460000  1
   5628   5626   5632  10436     1  0.0000000  0.0000000  3
   5628   5626   5632   5633     1  0.0000000  0.6508444  3
   5628   5626   5632   5634     1  0.0000000  0.6508444  3
   5632  10436  10432  10435     1  0.0000000  1.6038667  3
   5633   5632  10436  10432     1  0.0000000  1.6038667  3
   5634   5632  10436  10432     1  0.0000000  1.6038667  3
   5635  10459  10455  10458     1  0.0000000  1.6038667  3
   5636   5635  10459  10455     1  0.0000000  1.6038667  3
   5637   5635  10459  10455     1  0.0000000  1.6038667  3
   5640   5641   5653   5654     1  0.0000000  0.6508444  3
   5640   5641   5653   5655     1  0.0000000  0.6508444  3
   5640   5644   5656   5657     1  0.0000000  0.6508444  3
   5640   5644   5656   5658     1  0.0000000  0.6508444  3
   5640   5647   5650   5651     1  0.0000000  0.6508444  3
   5640   5647   5650   5652     1  0.0000000  0.6508444  3
   5641   5640   5644   5645     1  0.0000000  0.6508444  3
   5641   5640   5644   5646     1  0.0000000  0.6508444  3
   5641   5640   5647   5648     1  0.0000000  0.6508444  3
   5641   5640   5647   5649     1  0.0000000  0.6508444  3
   5641   5653   5665   5666     1  0.0000000  0.6508444  3
   5641   5653   5665   5667     1  0.0000000  0.6508444  3
   5642   5641   5640   5644     1  0.0000000  0.6508444  3
   5642   5641   5640   5647     1  0.0000000  0.6508444  3
   5642   5641   5640   5669     1  0.0000000  0.6508444  3
   5642   5641   5653   5665     1  0.0000000  0.6508444  3
   5642   5641   5653   5654     1  0.0000000  0.6508444  3
   5642   5641   5653   5655     1  0.0000000  0.6508444  3
   5643   5641   5640   5644     1  0.0000000  0.6508444  3
   5643   5641   5640   5647     1  0.0000000  0.6508444  3
   5643   5641   5640   5669     1  0.0000000  0.6508444  3
   5643   5641   5653   5665     1  0.0000000  0.6508444  3
   5643   5641   5653   5654     1  0.0000000  0.6508444  3
   5643   5641   5653   5655     1  0.0000000  0.6508444  3
   5644   5640   5647   5648     1  0.0000000  0.6508444  3
   5644   5640   5647   5649     1  0.0000000  0.6508444  3
   5644   5656   5662   5663     1  0.0000000  0.6508444  3
   5644   5656   5662   5664     1  0.0000000  0.6508444  3
   5645   5644   5640   5647     1  0.0000000  0.6508444  3
   5645   5644   5640   5669     1  0.0000000  0.6508444  3
   5645   5644   5656   5662     1  0.0000000  0.6508444  3
   5645   5644   5656   5657     1  0.0000000  0.6508444  3
   5645   5644   5656   5658     1  0.0000000  0.6508444  3
   5646   5644   5640   5647     1  0.0000000  0.6508444  3
   5646   5644   5640   5669     1  0.0000000  0.6508444  3
   5646   5644   5656   5662     1  0.0000000  0.6508444  3
   5646   5644   5656   5657     1  0.0000000  0.6508444  3
   5646   5644   5656   5658     1  0.0000000  0.6508444  3
   5647   5650   5659   5660     1  0.0000000  0.6508444  3
   5647   5650   5659   5661     1  0.0000000  0.6508444  3
   5648   5647   5640   5669     1  0.0000000  0.6508444  3
   5648   5647   5650   5659     1  0.0000000  0.6508444  3
   5648   5647   5650   5651     1  0.0000000  0.6508444  3
   5648   5647   5650   5652     1  0.0000000  0.6508444  3
   5649   5647   5640   5669     1  0.0000000  0.6508444  3
   5649   5647   5650   5659     1  0.0000000  0.6508444  3
   5649   5647   5650   5651     1  0.0000000  0.6508444  3
   5649   5647   5650   5652     1  0.0000000  0.6508444  3
   5650   5647   5640   5669     1  0.0000000  0.6508444  3
   5651   5650   5659   5668     1  0.0000000  1.0460000  1
   5651   5650   5659   5668     1  0.0000000  0.0000000  3
   5651   5650   5659   5660     1  0.0000000  0.6508444  3
   5651   5650   5659   5661     1  0.0000000  0.6508444  3
   5652   5650   5659   5668     1  0.0000000  1.0460000  1
   5652   5650   5659   5668     1  0.0000000  0.0000000  3
   5652   5650   5659   5660     1  0.0000000  0.6508444  3
   5652   5650   5659   5661     1  0.0000000  0.6508444  3
   5653   5641   5640   5669     1  0.0000000  0.6508444  3
   5654   5653   5665  10505     1  0.0000000  1.0460000  1
   5654   5653   5665  10505     1  0.0000000  0.0000000  3
   5654   5653   5665   5666     1  0.0000000  0.6508444  3
   5654   5653   5665   5667     1  0.0000000  0.6508444  3
   5655   5653   5665  10505     1  0.0000000  1.0460000  1
   5655   5653   5665  10505     1  0.0000000  0.0000000  3
   5655   5653   5665   5666     1  0.0000000  0.6508444  3
   5655   5653   5665   5667     1  0.0000000  0.6508444  3
   5656   5644   5640   5669     1  0.0000000  0.6508444  3
   5657   5656   5662  10482     1  0.0000000  1.0460000  1
   5657   5656   5662  10482     1  0.0000000  0.0000000  3
   5657   5656   5662   5663     1  0.0000000  0.6508444  3
   5657   5656   5662   5664     1  0.0000000  0.6508444  3
   5658   5656   5662  10482     1  0.0000000  1.0460000  1
   5658   5656   5662  10482     1  0.0000000  0.0000000  3
   5658   5656   5662   5663     1  0.0000000  0.6508444  3
   5658   5656   5662   5664     1  0.0000000  0.6508444  3
   5662  10482  10478  10481     1  0.0000000  1.6038667  3
   5663   5662  10482  10478     1  0.0000000  1.6038667  3
   5664   5662  10482  10478     1  0.0000000  1.6038667  3
   5665  10505  10501  10504     1  0.0000000  1.6038667  3
   5666   5665  10505  10501     1  0.0000000  1.6038667  3
   5667   5665  10505  10501     1  0.0000000  1.6038667  3
   5670   5671   5683   5684     1  0.0000000  0.6508444  3
   5670   5671   5683   5685     1  0.0000000  0.6508444  3
   5670   5674   5686   5687     1  0.0000000  0.6508444  3
   5670   5674   5686   5688     1  0.0000000  0.6508444  3
   5670   5677   5680   5681     1  0.0000000  0.6508444  3
   5670   5677   5680   5682     1  0.0000000  0.6508444  3
   5671   5670   5674   5675     1  0.0000000  0.6508444  3
   5671   5670   5674   5676     1  0.0000000  0.6508444  3
   5671   5670   5677   5678     1  0.0000000  0.6508444  3
   5671   5670   5677   5679     1  0.0000000  0.6508444  3
   5671   5683   5695   5696     1  0.0000000  0.6508444  3
   5671   5683   5695   5697     1  0.0000000  0.6508444  3
   5672   5671   5670   5674     1  0.0000000  0.6508444  3
   5672   5671   5670   5677     1  0.0000000  0.6508444  3
   5672   5671   5670   5699     1  0.0000000  0.6508444  3
   5672   5671   5683   5695     1  0.0000000  0.6508444  3
   5672   5671   5683   5684     1  0.0000000  0.6508444  3
   5672   5671   5683   5685     1  0.0000000  0.6508444  3
   5673   5671   5670   5674     1  0.0000000  0.6508444  3
   5673   5671   5670   5677     1  0.0000000  0.6508444  3
   5673   5671   5670   5699     1  0.0000000  0.6508444  3
   5673   5671   5683   5695     1  0.0000000  0.6508444  3
   5673   5671   5683   5684     1  0.0000000  0.6508444  3
   5673   5671   5683   5685     1  0.0000000  0.6508444  3
   5674   5670   5677   5678     1  0.0000000  0.6508444  3
   5674   5670   5677   5679     1  0.0000000  0.6508444  3
   5674   5686   5692   5693     1  0.0000000  0.6508444  3
   5674   5686   5692   5694     1  0.0000000  0.6508444  3
   5675   5674   5670   5677     1  0.0000000  0.6508444  3
   5675   5674   5670   5699     1  0.0000000  0.6508444  3
   5675   5674   5686   5692     1  0.0000000  0.6508444  3
   5675   5674   5686   5687     1  0.0000000  0.6508444  3
   5675   5674   5686   5688     1  0.0000000  0.6508444  3
   5676   5674   5670   5677     1  0.0000000  0.6508444  3
   5676   5674   5670   5699     1  0.0000000  0.6508444  3
   5676   5674   5686   5692     1  0.0000000  0.6508444  3
   5676   5674   5686   5687     1  0.0000000  0.6508444  3
   5676   5674   5686   5688     1  0.0000000  0.6508444  3
   5677   5680   5689   5690     1  0.0000000  0.6508444  3
   5677   5680   5689   5691     1  0.0000000  0.6508444  3
   5678   5677   5670   5699     1  0.0000000  0.6508444  3
   5678   5677   5680   5689     1  0.0000000  0.6508444  3
   5678   5677   5680   5681     1  0.0000000  0.6508444  3
   5678   5677   5680   5682     1  0.0000000  0.6508444  3
   5679   5677   5670   5699     1  0.0000000  0.6508444  3
   5679   5677   5680   5689     1  0.0000000  0.6508444  3
   5679   5677   5680   5681     1  0.0000000  0.6508444  3
   5679   5677   5680   5682     1  0.0000000  0.6508444  3
   5680   5677   5670   5699     1  0.0000000  0.6508444  3
   5681   5680   5689   5698     1  0.0000000  1.0460000  1
   5681   5680   5689   5698     1  0.0000000  0.0000000  3
   5681   5680   5689   5690     1  0.0000000  0.6508444  3
   5681   5680   5689   5691     1  0.0000000  0.6508444  3
   5682   5680   5689   5698     1  0.0000000  1.0460000  1
   5682   5680   5689   5698     1  0.0000000  0.0000000  3
   5682   5680   5689   5690     1  0.0000000  0.6508444  3
   5682   5680   5689   5691     1  0.0000000  0.6508444  3
   5683   5671   5670   5699     1  0.0000000  0.6508444  3
   5684   5683   5695  10551     1  0.0000000  1.0460000  1
   5684   5683   5695  10551     1  0.0000000  0.0000000  3
   5684   5683   5695   5696     1  0.0000000  0.6508444  3
   5684   5683   5695   5697     1  0.0000000  0.6508444  3
   5685   5683   5695  10551     1  0.0000000  1.0460000  1
   5685   5683   5695  10551     1  0.0000000  0.0000000  3
   5685   5683   5695   5696     1  0.0000000  0.6508444  3
   5685   5683   5695   5697     1  0.0000000  0.6508444  3
   5686   5674   5670   5699     1  0.0000000  0.6508444  3
   5687   5686   5692  10528     1  0.0000000  1.0460000  1
   5687   5686   5692  10528     1  0.0000000  0.0000000  3
   5687   5686   5692   5693     1  0.0000000  0.6508444  3
   5687   5686   5692   5694     1  0.0000000  0.6508444  3
   5688   5686   5692  10528     1  0.0000000  1.0460000  1
   5688   5686   5692  10528     1  0.0000000  0.0000000  3
   5688   5686   5692   5693     1  0.0000000  0.6508444  3
   5688   5686   5692   5694     1  0.0000000  0.6508444  3
   5692  10528  10524  10527     1  0.0000000  1.6038667  3
   5693   5692  10528  10524     1  0.0000000  1.6038667  3
   5694   5692  10528  10524     1  0.0000000  1.6038667  3
   5695  10551  10547  10550     1  0.0000000  1.6038667  3
   5696   5695  10551  10547     1  0.0000000  1.6038667  3
   5697   5695  10551  10547     1  0.0000000  1.6038667  3
   5700   5701   5713   5714     1  0.0000000  0.6508444  3
   5700   5701   5713   5715     1  0.0000000  0.6508444  3
   5700   5704   5716   5717     1  0.0000000  0.6508444  3
   5700   5704   5716   5718     1  0.0000000  0.6508444  3
   5700   5707   5710   5711     1  0.0000000  0.6508444  3
   5700   5707   5710   5712     1  0.0000000  0.6508444  3
   5701   5700   5704   5705     1  0.0000000  0.6508444  3
   5701   5700   5704   5706     1  0.0000000  0.6508444  3
   5701   5700   5707   5708     1  0.0000000  0.6508444  3
   5701   5700   5707   5709     1  0.0000000  0.6508444  3
   5701   5713   5725   5726     1  0.0000000  0.6508444  3
   5701   5713   5725   5727     1  0.0000000  0.6508444  3
   5702   5701   5700   5704     1  0.0000000  0.6508444  3
   5702   5701   5700   5707     1  0.0000000  0.6508444  3
   5702   5701   5700   5729     1  0.0000000  0.6508444  3
   5702   5701   5713   5725     1  0.0000000  0.6508444  3
   5702   5701   5713   5714     1  0.0000000  0.6508444  3
   5702   5701   5713   5715     1  0.0000000  0.6508444  3
   5703   5701   5700   5704     1  0.0000000  0.6508444  3
   5703   5701   5700   5707     1  0.0000000  0.6508444  3
   5703   5701   5700   5729     1  0.0000000  0.6508444  3
   5703   5701   5713   5725     1  0.0000000  0.6508444  3
   5703   5701   5713   5714     1  0.0000000  0.6508444  3
   5703   5701   5713   5715     1  0.0000000  0.6508444  3
   5704   5700   5707   5708     1  0.0000000  0.6508444  3
   5704   5700   5707   5709     1  0.0000000  0.6508444  3
   5704   5716   5722   5723     1  0.0000000  0.6508444  3
   5704   5716   5722   5724     1  0.0000000  0.6508444  3
   5705   5704   5700   5707     1  0.0000000  0.6508444  3
   5705   5704   5700   5729     1  0.0000000  0.6508444  3
   5705   5704   5716   5722     1  0.0000000  0.6508444  3
   5705   5704   5716   5717     1  0.0000000  0.6508444  3
   5705   5704   5716   5718     1  0.0000000  0.6508444  3
   5706   5704   5700   5707     1  0.0000000  0.6508444  3
   5706   5704   5700   5729     1  0.0000000  0.6508444  3
   5706   5704   5716   5722     1  0.0000000  0.6508444  3
   5706   5704   5716   5717     1  0.0000000  0.6508444  3
   5706   5704   5716   5718     1  0.0000000  0.6508444  3
   5707   5710   5719   5720     1  0.0000000  0.6508444  3
   5707   5710   5719   5721     1  0.0000000  0.6508444  3
   5708   5707   5700   5729     1  0.0000000  0.6508444  3
   5708   5707   5710   5719     1  0.0000000  0.6508444  3
   5708   5707   5710   5711     1  0.0000000  0.6508444  3
   5708   5707   5710   5712     1  0.0000000  0.6508444  3
   5709   5707   5700   5729     1  0.0000000  0.6508444  3
   5709   5707   5710   5719     1  0.0000000  0.6508444  3
   5709   5707   5710   5711     1  0.0000000  0.6508444  3
   5709   5707   5710   5712     1  0.0000000  0.6508444  3
   5710   5707   5700   5729     1  0.0000000  0.6508444  3
   5711   5710   5719   5728     1  0.0000000  1.0460000  1
   5711   5710   5719   5728     1  0.0000000  0.0000000  3
   5711   5710   5719   5720     1  0.0000000  0.6508444  3
   5711   5710   5719   5721     1  0.0000000  0.6508444  3
   5712   5710   5719   5728     1  0.0000000  1.0460000  1
   5712   5710   5719   5728     1  0.0000000  0.0000000  3
   5712   5710   5719   5720     1  0.0000000  0.6508444  3
   5712   5710   5719   5721     1  0.0000000  0.6508444  3
   5713   5701   5700   5729     1  0.0000000  0.6508444  3
   5714   5713   5725  10597     1  0.0000000  1.0460000  1
   5714   5713   5725  10597     1  0.0000000  0.0000000  3
   5714   5713   5725   5726     1  0.0000000  0.6508444  3
   5714   5713   5725   5727     1  0.0000000  0.6508444  3
   5715   5713   5725  10597     1  0.0000000  1.0460000  1
   5715   5713   5725  10597     1  0.0000000  0.0000000  3
   5715   5713   5725   5726     1  0.0000000  0.6508444  3
   5715   5713   5725   5727     1  0.0000000  0.6508444  3
   5716   5704   5700   5729     1  0.0000000  0.6508444  3
   5717   5716   5722  10574     1  0.0000000  1.0460000  1
   5717   5716   5722  10574     1  0.0000000  0.0000000  3
   5717   5716   5722   5723     1  0.0000000  0.6508444  3
   5717   5716   5722   5724     1  0.0000000  0.6508444  3
   5718   5716   5722  10574     1  0.0000000  1.0460000  1
   5718   5716   5722  10574     1  0.0000000  0.0000000  3
   5718   5716   5722   5723     1  0.0000000  0.6508444  3
   5718   5716   5722   5724     1  0.0000000  0.6508444  3
   5722  10574  10570  10573     1  0.0000000  1.6038667  3
   5723   5722  10574  10570     1  0.0000000  1.6038667  3
   5724   5722  10574  10570     1  0.0000000  1.6038667  3
   5725  10597  10593  10596     1  0.0000000  1.6038667  3
   5726   5725  10597  10593     1  0.0000000  1.6038667  3
   5727   5725  10597  10593     1  0.0000000  1.6038667  3
   5730   5731   5743   5744     1  0.0000000  0.6508444  3
   5730   5731   5743   5745     1  0.0000000  0.6508444  3
   5730   5734   5746   5747     1  0.0000000  0.6508444  3
   5730   5734   5746   5748     1  0.0000000  0.6508444  3
   5730   5737   5740   5741     1  0.0000000  0.6508444  3
   5730   5737   5740   5742     1  0.0000000  0.6508444  3
   5731   5730   5734   5735     1  0.0000000  0.6508444  3
   5731   5730   5734   5736     1  0.0000000  0.6508444  3
   5731   5730   5737   5738     1  0.0000000  0.6508444  3
   5731   5730   5737   5739     1  0.0000000  0.6508444  3
   5731   5743   5755   5756     1  0.0000000  0.6508444  3
   5731   5743   5755   5757     1  0.0000000  0.6508444  3
   5732   5731   5730   5734     1  0.0000000  0.6508444  3
   5732   5731   5730   5737     1  0.0000000  0.6508444  3
   5732   5731   5730   5759     1  0.0000000  0.6508444  3
   5732   5731   5743   5755     1  0.0000000  0.6508444  3
   5732   5731   5743   5744     1  0.0000000  0.6508444  3
   5732   5731   5743   5745     1  0.0000000  0.6508444  3
   5733   5731   5730   5734     1  0.0000000  0.6508444  3
   5733   5731   5730   5737     1  0.0000000  0.6508444  3
   5733   5731   5730   5759     1  0.0000000  0.6508444  3
   5733   5731   5743   5755     1  0.0000000  0.6508444  3
   5733   5731   5743   5744     1  0.0000000  0.6508444  3
   5733   5731   5743   5745     1  0.0000000  0.6508444  3
   5734   5730   5737   5738     1  0.0000000  0.6508444  3
   5734   5730   5737   5739     1  0.0000000  0.6508444  3
   5734   5746   5752   5753     1  0.0000000  0.6508444  3
   5734   5746   5752   5754     1  0.0000000  0.6508444  3
   5735   5734   5730   5737     1  0.0000000  0.6508444  3
   5735   5734   5730   5759     1  0.0000000  0.6508444  3
   5735   5734   5746   5752     1  0.0000000  0.6508444  3
   5735   5734   5746   5747     1  0.0000000  0.6508444  3
   5735   5734   5746   5748     1  0.0000000  0.6508444  3
   5736   5734   5730   5737     1  0.0000000  0.6508444  3
   5736   5734   5730   5759     1  0.0000000  0.6508444  3
   5736   5734   5746   5752     1  0.0000000  0.6508444  3
   5736   5734   5746   5747     1  0.0000000  0.6508444  3
   5736   5734   5746   5748     1  0.0000000  0.6508444  3
   5737   5740   5749   5750     1  0.0000000  0.6508444  3
   5737   5740   5749   5751     1  0.0000000  0.6508444  3
   5738   5737   5730   5759     1  0.0000000  0.6508444  3
   5738   5737   5740   5749     1  0.0000000  0.6508444  3
   5738   5737   5740   5741     1  0.0000000  0.6508444  3
   5738   5737   5740   5742     1  0.0000000  0.6508444  3
   5739   5737   5730   5759     1  0.0000000  0.6508444  3
   5739   5737   5740   5749     1  0.0000000  0.6508444  3
   5739   5737   5740   5741     1  0.0000000  0.6508444  3
   5739   5737   5740   5742     1  0.0000000  0.6508444  3
   5740   5737   5730   5759     1  0.0000000  0.6508444  3
   5741   5740   5749   5758     1  0.0000000  1.0460000  1
   5741   5740   5749   5758     1  0.0000000  0.0000000  3
   5741   5740   5749   5750     1  0.0000000  0.6508444  3
   5741   5740   5749   5751     1  0.0000000  0.6508444  3
   5742   5740   5749   5758     1  0.0000000  1.0460000  1
   5742   5740   5749   5758     1  0.0000000  0.0000000  3
   5742   5740   5749   5750     1  0.0000000  0.6508444  3
   5742   5740   5749   5751     1  0.0000000  0.6508444  3
   5743   5731   5730   5759     1  0.0000000  0.6508444  3
   5744   5743   5755  10643     1  0.0000000  1.0460000  1
   5744   5743   5755  10643     1  0.0000000  0.0000000  3
   5744   5743   5755   5756     1  0.0000000  0.6508444  3
   5744   5743   5755   5757     1  0.0000000  0.6508444  3
   5745   5743   5755  10643     1  0.0000000  1.0460000  1
   5745   5743   5755  10643     1  0.0000000  0.0000000  3
   5745   5743   5755   5756     1  0.0000000  0.6508444  3
   5745   5743   5755   5757     1  0.0000000  0.6508444  3
   5746   5734   5730   5759     1  0.0000000  0.6508444  3
   5747   5746   5752  10620     1  0.0000000  1.0460000  1
   5747   5746   5752  10620     1  0.0000000  0.0000000  3
   5747   5746   5752   5753     1  0.0000000  0.6508444  3
   5747   5746   5752   5754     1  0.0000000  0.6508444  3
   5748   5746   5752  10620     1  0.0000000  1.0460000  1
   5748   5746   5752  10620     1  0.0000000  0.0000000  3
   5748   5746   5752   5753     1  0.0000000  0.6508444  3
   5748   5746   5752   5754     1  0.0000000  0.6508444  3
   5752  10620  10616  10619     1  0.0000000  1.6038667  3
   5753   5752  10620  10616     1  0.0000000  1.6038667  3
   5754   5752  10620  10616     1  0.0000000  1.6038667  3
   5755  10643  10639  10642     1  0.0000000  1.6038667  3
   5756   5755  10643  10639     1  0.0000000  1.6038667  3
   5757   5755  10643  10639     1  0.0000000  1.6038667  3
   5760   5761   5773   5774     1  0.0000000  0.6508444  3
   5760   5761   5773   5775     1  0.0000000  0.6508444  3
   5760   5764   5776   5777     1  0.0000000  0.6508444  3
   5760   5764   5776   5778     1  0.0000000  0.6508444  3
   5760   5767   5770   5771     1  0.0000000  0.6508444  3
   5760   5767   5770   5772     1  0.0000000  0.6508444  3
   5761   5760   5764   5765     1  0.0000000  0.6508444  3
   5761   5760   5764   5766     1  0.0000000  0.6508444  3
   5761   5760   5767   5768     1  0.0000000  0.6508444  3
   5761   5760   5767   5769     1  0.0000000  0.6508444  3
   5761   5773   5785   5786     1  0.0000000  0.6508444  3
   5761   5773   5785   5787     1  0.0000000  0.6508444  3
   5762   5761   5760   5764     1  0.0000000  0.6508444  3
   5762   5761   5760   5767     1  0.0000000  0.6508444  3
   5762   5761   5760   5789     1  0.0000000  0.6508444  3
   5762   5761   5773   5785     1  0.0000000  0.6508444  3
   5762   5761   5773   5774     1  0.0000000  0.6508444  3
   5762   5761   5773   5775     1  0.0000000  0.6508444  3
   5763   5761   5760   5764     1  0.0000000  0.6508444  3
   5763   5761   5760   5767     1  0.0000000  0.6508444  3
   5763   5761   5760   5789     1  0.0000000  0.6508444  3
   5763   5761   5773   5785     1  0.0000000  0.6508444  3
   5763   5761   5773   5774     1  0.0000000  0.6508444  3
   5763   5761   5773   5775     1  0.0000000  0.6508444  3
   5764   5760   5767   5768     1  0.0000000  0.6508444  3
   5764   5760   5767   5769     1  0.0000000  0.6508444  3
   5764   5776   5782   5783     1  0.0000000  0.6508444  3
   5764   5776   5782   5784     1  0.0000000  0.6508444  3
   5765   5764   5760   5767     1  0.0000000  0.6508444  3
   5765   5764   5760   5789     1  0.0000000  0.6508444  3
   5765   5764   5776   5782     1  0.0000000  0.6508444  3
   5765   5764   5776   5777     1  0.0000000  0.6508444  3
   5765   5764   5776   5778     1  0.0000000  0.6508444  3
   5766   5764   5760   5767     1  0.0000000  0.6508444  3
   5766   5764   5760   5789     1  0.0000000  0.6508444  3
   5766   5764   5776   5782     1  0.0000000  0.6508444  3
   5766   5764   5776   5777     1  0.0000000  0.6508444  3
   5766   5764   5776   5778     1  0.0000000  0.6508444  3
   5767   5770   5779   5780     1  0.0000000  0.6508444  3
   5767   5770   5779   5781     1  0.0000000  0.6508444  3
   5768   5767   5760   5789     1  0.0000000  0.6508444  3
   5768   5767   5770   5779     1  0.0000000  0.6508444  3
   5768   5767   5770   5771     1  0.0000000  0.6508444  3
   5768   5767   5770   5772     1  0.0000000  0.6508444  3
   5769   5767   5760   5789     1  0.0000000  0.6508444  3
   5769   5767   5770   5779     1  0.0000000  0.6508444  3
   5769   5767   5770   5771     1  0.0000000  0.6508444  3
   5769   5767   5770   5772     1  0.0000000  0.6508444  3
   5770   5767   5760   5789     1  0.0000000  0.6508444  3
   5771   5770   5779   5788     1  0.0000000  1.0460000  1
   5771   5770   5779   5788     1  0.0000000  0.0000000  3
   5771   5770   5779   5780     1  0.0000000  0.6508444  3
   5771   5770   5779   5781     1  0.0000000  0.6508444  3
   5772   5770   5779   5788     1  0.0000000  1.0460000  1
   5772   5770   5779   5788     1  0.0000000  0.0000000  3
   5772   5770   5779   5780     1  0.0000000  0.6508444  3
   5772   5770   5779   5781     1  0.0000000  0.6508444  3
   5773   5761   5760   5789     1  0.0000000  0.6508444  3
   5774   5773   5785  10689     1  0.0000000  1.0460000  1
   5774   5773   5785  10689     1  0.0000000  0.0000000  3
   5774   5773   5785   5786     1  0.0000000  0.6508444  3
   5774   5773   5785   5787     1  0.0000000  0.6508444  3
   5775   5773   5785  10689     1  0.0000000  1.0460000  1
   5775   5773   5785  10689     1  0.0000000  0.0000000  3
   5775   5773   5785   5786     1  0.0000000  0.6508444  3
   5775   5773   5785   5787     1  0.0000000  0.6508444  3
   5776   5764   5760   5789     1  0.0000000  0.6508444  3
   5777   5776   5782  10666     1  0.0000000  1.0460000  1
   5777   5776   5782  10666     1  0.0000000  0.0000000  3
   5777   5776   5782   5783     1  0.0000000  0.6508444  3
   5777   5776   5782   5784     1  0.0000000  0.6508444  3
   5778   5776   5782  10666     1  0.0000000  1.0460000  1
   5778   5776   5782  10666     1  0.0000000  0.0000000  3
   5778   5776   5782   5783     1  0.0000000  0.6508444  3
   5778   5776   5782   5784     1  0.0000000  0.6508444  3
   5782  10666  10662  10665     1  0.0000000  1.6038667  3
   5783   5782  10666  10662     1  0.0000000  1.6038667  3
   5784   5782  10666  10662     1  0.0000000  1.6038667  3
   5785  10689  10685  10688     1  0.0000000  1.6038667  3
   5786   5785  10689  10685     1  0.0000000  1.6038667  3
   5787   5785  10689  10685     1  0.0000000  1.6038667  3
   5790   5791   5803   5804     1  0.0000000  0.6508444  3
   5790   5791   5803   5805     1  0.0000000  0.6508444  3
   5790   5794   5806   5807     1  0.0000000  0.6508444  3
   5790   5794   5806   5808     1  0.0000000  0.6508444  3
   5790   5797   5800   5801     1  0.0000000  0.6508444  3
   5790   5797   5800   5802     1  0.0000000  0.6508444  3
   5791   5790   5794   5795     1  0.0000000  0.6508444  3
   5791   5790   5794   5796     1  0.0000000  0.6508444  3
   5791   5790   5797   5798     1  0.0000000  0.6508444  3
   5791   5790   5797   5799     1  0.0000000  0.6508444  3
   5791   5803   5815   5816     1  0.0000000  0.6508444  3
   5791   5803   5815   5817     1  0.0000000  0.6508444  3
   5792   5791   5790   5794     1  0.0000000  0.6508444  3
   5792   5791   5790   5797     1  0.0000000  0.6508444  3
   5792   5791   5790   5819     1  0.0000000  0.6508444  3
   5792   5791   5803   5815     1  0.0000000  0.6508444  3
   5792   5791   5803   5804     1  0.0000000  0.6508444  3
   5792   5791   5803   5805     1  0.0000000  0.6508444  3
   5793   5791   5790   5794     1  0.0000000  0.6508444  3
   5793   5791   5790   5797     1  0.0000000  0.6508444  3
   5793   5791   5790   5819     1  0.0000000  0.6508444  3
   5793   5791   5803   5815     1  0.0000000  0.6508444  3
   5793   5791   5803   5804     1  0.0000000  0.6508444  3
   5793   5791   5803   5805     1  0.0000000  0.6508444  3
   5794   5790   5797   5798     1  0.0000000  0.6508444  3
   5794   5790   5797   5799     1  0.0000000  0.6508444  3
   5794   5806   5812   5813     1  0.0000000  0.6508444  3
   5794   5806   5812   5814     1  0.0000000  0.6508444  3
   5795   5794   5790   5797     1  0.0000000  0.6508444  3
   5795   5794   5790   5819     1  0.0000000  0.6508444  3
   5795   5794   5806   5812     1  0.0000000  0.6508444  3
   5795   5794   5806   5807     1  0.0000000  0.6508444  3
   5795   5794   5806   5808     1  0.0000000  0.6508444  3
   5796   5794   5790   5797     1  0.0000000  0.6508444  3
   5796   5794   5790   5819     1  0.0000000  0.6508444  3
   5796   5794   5806   5812     1  0.0000000  0.6508444  3
   5796   5794   5806   5807     1  0.0000000  0.6508444  3
   5796   5794   5806   5808     1  0.0000000  0.6508444  3
   5797   5800   5809   5810     1  0.0000000  0.6508444  3
   5797   5800   5809   5811     1  0.0000000  0.6508444  3
   5798   5797   5790   5819     1  0.0000000  0.6508444  3
   5798   5797   5800   5809     1  0.0000000  0.6508444  3
   5798   5797   5800   5801     1  0.0000000  0.6508444  3
   5798   5797   5800   5802     1  0.0000000  0.6508444  3
   5799   5797   5790   5819     1  0.0000000  0.6508444  3
   5799   5797   5800   5809     1  0.0000000  0.6508444  3
   5799   5797   5800   5801     1  0.0000000  0.6508444  3
   5799   5797   5800   5802     1  0.0000000  0.6508444  3
   5800   5797   5790   5819     1  0.0000000  0.6508444  3
   5801   5800   5809   5818     1  0.0000000  1.0460000  1
   5801   5800   5809   5818     1  0.0000000  0.0000000  3
   5801   5800   5809   5810     1  0.0000000  0.6508444  3
   5801   5800   5809   5811     1  0.0000000  0.6508444  3
   5802   5800   5809   5818     1  0.0000000  1.0460000  1
   5802   5800   5809   5818     1  0.0000000  0.0000000  3
   5802   5800   5809   5810     1  0.0000000  0.6508444  3
   5802   5800   5809   5811     1  0.0000000  0.6508444  3
   5803   5791   5790   5819     1  0.0000000  0.6508444  3
   5804   5803   5815  10735     1  0.0000000  1.0460000  1
   5804   5803   5815  10735     1  0.0000000  0.0000000  3
   5804   5803   5815   5816     1  0.0000000  0.6508444  3
   5804   5803   5815   5817     1  0.0000000  0.6508444  3
   5805   5803   5815  10735     1  0.0000000  1.0460000  1
   5805   5803   5815  10735     1  0.0000000  0.0000000  3
   5805   5803   5815   5816     1  0.0000000  0.6508444  3
   5805   5803   5815   5817     1  0.0000000  0.6508444  3
   5806   5794   5790   5819     1  0.0000000  0.6508444  3
   5807   5806   5812  10712     1  0.0000000  1.0460000  1
   5807   5806   5812  10712     1  0.0000000  0.0000000  3
   5807   5806   5812   5813     1  0.0000000  0.6508444  3
   5807   5806   5812   5814     1  0.0000000  0.6508444  3
   5808   5806   5812  10712     1  0.0000000  1.0460000  1
   5808   5806   5812  10712     1  0.0000000  0.0000000  3
   5808   5806   5812   5813     1  0.0000000  0.6508444  3
   5808   5806   5812   5814     1  0.0000000  0.6508444  3
   5812  10712  10708  10711     1  0.0000000  1.6038667  3
   5813   5812  10712  10708     1  0.0000000  1.6038667  3
   5814   5812  10712  10708     1  0.0000000  1.6038667  3
   5815  10735  10731  10734     1  0.0000000  1.6038667  3
   5816   5815  10735  10731     1  0.0000000  1.6038667  3
   5817   5815  10735  10731     1  0.0000000  1.6038667  3
   5820   5821   5833   5834     1  0.0000000  0.6508444  3
   5820   5821   5833   5835     1  0.0000000  0.6508444  3
   5820   5824   5836   5837     1  0.0000000  0.6508444  3
   5820   5824   5836   5838     1  0.0000000  0.6508444  3
   5820   5827   5830   5831     1  0.0000000  0.6508444  3
   5820   5827   5830   5832     1  0.0000000  0.6508444  3
   5821   5820   5824   5825     1  0.0000000  0.6508444  3
   5821   5820   5824   5826     1  0.0000000  0.6508444  3
   5821   5820   5827   5828     1  0.0000000  0.6508444  3
   5821   5820   5827   5829     1  0.0000000  0.6508444  3
   5821   5833   5845   5846     1  0.0000000  0.6508444  3
   5821   5833   5845   5847     1  0.0000000  0.6508444  3
   5822   5821   5820   5824     1  0.0000000  0.6508444  3
   5822   5821   5820   5827     1  0.0000000  0.6508444  3
   5822   5821   5820   5849     1  0.0000000  0.6508444  3
   5822   5821   5833   5845     1  0.0000000  0.6508444  3
   5822   5821   5833   5834     1  0.0000000  0.6508444  3
   5822   5821   5833   5835     1  0.0000000  0.6508444  3
   5823   5821   5820   5824     1  0.0000000  0.6508444  3
   5823   5821   5820   5827     1  0.0000000  0.6508444  3
   5823   5821   5820   5849     1  0.0000000  0.6508444  3
   5823   5821   5833   5845     1  0.0000000  0.6508444  3
   5823   5821   5833   5834     1  0.0000000  0.6508444  3
   5823   5821   5833   5835     1  0.0000000  0.6508444  3
   5824   5820   5827   5828     1  0.0000000  0.6508444  3
   5824   5820   5827   5829     1  0.0000000  0.6508444  3
   5824   5836   5842   5843     1  0.0000000  0.6508444  3
   5824   5836   5842   5844     1  0.0000000  0.6508444  3
   5825   5824   5820   5827     1  0.0000000  0.6508444  3
   5825   5824   5820   5849     1  0.0000000  0.6508444  3
   5825   5824   5836   5842     1  0.0000000  0.6508444  3
   5825   5824   5836   5837     1  0.0000000  0.6508444  3
   5825   5824   5836   5838     1  0.0000000  0.6508444  3
   5826   5824   5820   5827     1  0.0000000  0.6508444  3
   5826   5824   5820   5849     1  0.0000000  0.6508444  3
   5826   5824   5836   5842     1  0.0000000  0.6508444  3
   5826   5824   5836   5837     1  0.0000000  0.6508444  3
   5826   5824   5836   5838     1  0.0000000  0.6508444  3
   5827   5830   5839   5840     1  0.0000000  0.6508444  3
   5827   5830   5839   5841     1  0.0000000  0.6508444  3
   5828   5827   5820   5849     1  0.0000000  0.6508444  3
   5828   5827   5830   5839     1  0.0000000  0.6508444  3
   5828   5827   5830   5831     1  0.0000000  0.6508444  3
   5828   5827   5830   5832     1  0.0000000  0.6508444  3
   5829   5827   5820   5849     1  0.0000000  0.6508444  3
   5829   5827   5830   5839     1  0.0000000  0.6508444  3
   5829   5827   5830   5831     1  0.0000000  0.6508444  3
   5829   5827   5830   5832     1  0.0000000  0.6508444  3
   5830   5827   5820   5849     1  0.0000000  0.6508444  3
   5831   5830   5839   5848     1  0.0000000  1.0460000  1
   5831   5830   5839   5848     1  0.0000000  0.0000000  3
   5831   5830   5839   5840     1  0.0000000  0.6508444  3
   5831   5830   5839   5841     1  0.0000000  0.6508444  3
   5832   5830   5839   5848     1  0.0000000  1.0460000  1
   5832   5830   5839   5848     1  0.0000000  0.0000000  3
   5832   5830   5839   5840     1  0.0000000  0.6508444  3
   5832   5830   5839   5841     1  0.0000000  0.6508444  3
   5833   5821   5820   5849     1  0.0000000  0.6508444  3
   5834   5833   5845  10781     1  0.0000000  1.0460000  1
   5834   5833   5845  10781     1  0.0000000  0.0000000  3
   5834   5833   5845   5846     1  0.0000000  0.6508444  3
   5834   5833   5845   5847     1  0.0000000  0.6508444  3
   5835   5833   5845  10781     1  0.0000000  1.0460000  1
   5835   5833   5845  10781     1  0.0000000  0.0000000  3
   5835   5833   5845   5846     1  0.0000000  0.6508444  3
   5835   5833   5845   5847     1  0.0000000  0.6508444  3
   5836   5824   5820   5849     1  0.0000000  0.6508444  3
   5837   5836   5842  10758     1  0.0000000  1.0460000  1
   5837   5836   5842  10758     1  0.0000000  0.0000000  3
   5837   5836   5842   5843     1  0.0000000  0.6508444  3
   5837   5836   5842   5844     1  0.0000000  0.6508444  3
   5838   5836   5842  10758     1  0.0000000  1.0460000  1
   5838   5836   5842  10758     1  0.0000000  0.0000000  3
   5838   5836   5842   5843     1  0.0000000  0.6508444  3
   5838   5836   5842   5844     1  0.0000000  0.6508444  3
   5842  10758  10754  10757     1  0.0000000  1.6038667  3
   5843   5842  10758  10754     1  0.0000000  1.6038667  3
   5844   5842  10758  10754     1  0.0000000  1.6038667  3
   5845  10781  10777  10780     1  0.0000000  1.6038667  3
   5846   5845  10781  10777     1  0.0000000  1.6038667  3
   5847   5845  10781  10777     1  0.0000000  1.6038667  3
   5850   5851   5863   5864     1  0.0000000  0.6508444  3
   5850   5851   5863   5865     1  0.0000000  0.6508444  3
   5850   5854   5866   5867     1  0.0000000  0.6508444  3
   5850   5854   5866   5868     1  0.0000000  0.6508444  3
   5850   5857   5860   5861     1  0.0000000  0.6508444  3
   5850   5857   5860   5862     1  0.0000000  0.6508444  3
   5851   5850   5854   5855     1  0.0000000  0.6508444  3
   5851   5850   5854   5856     1  0.0000000  0.6508444  3
   5851   5850   5857   5858     1  0.0000000  0.6508444  3
   5851   5850   5857   5859     1  0.0000000  0.6508444  3
   5851   5863   5875   5876     1  0.0000000  0.6508444  3
   5851   5863   5875   5877     1  0.0000000  0.6508444  3
   5852   5851   5850   5854     1  0.0000000  0.6508444  3
   5852   5851   5850   5857     1  0.0000000  0.6508444  3
   5852   5851   5850   5879     1  0.0000000  0.6508444  3
   5852   5851   5863   5875     1  0.0000000  0.6508444  3
   5852   5851   5863   5864     1  0.0000000  0.6508444  3
   5852   5851   5863   5865     1  0.0000000  0.6508444  3
   5853   5851   5850   5854     1  0.0000000  0.6508444  3
   5853   5851   5850   5857     1  0.0000000  0.6508444  3
   5853   5851   5850   5879     1  0.0000000  0.6508444  3
   5853   5851   5863   5875     1  0.0000000  0.6508444  3
   5853   5851   5863   5864     1  0.0000000  0.6508444  3
   5853   5851   5863   5865     1  0.0000000  0.6508444  3
   5854   5850   5857   5858     1  0.0000000  0.6508444  3
   5854   5850   5857   5859     1  0.0000000  0.6508444  3
   5854   5866   5872   5873     1  0.0000000  0.6508444  3
   5854   5866   5872   5874     1  0.0000000  0.6508444  3
   5855   5854   5850   5857     1  0.0000000  0.6508444  3
   5855   5854   5850   5879     1  0.0000000  0.6508444  3
   5855   5854   5866   5872     1  0.0000000  0.6508444  3
   5855   5854   5866   5867     1  0.0000000  0.6508444  3
   5855   5854   5866   5868     1  0.0000000  0.6508444  3
   5856   5854   5850   5857     1  0.0000000  0.6508444  3
   5856   5854   5850   5879     1  0.0000000  0.6508444  3
   5856   5854   5866   5872     1  0.0000000  0.6508444  3
   5856   5854   5866   5867     1  0.0000000  0.6508444  3
   5856   5854   5866   5868     1  0.0000000  0.6508444  3
   5857   5860   5869   5870     1  0.0000000  0.6508444  3
   5857   5860   5869   5871     1  0.0000000  0.6508444  3
   5858   5857   5850   5879     1  0.0000000  0.6508444  3
   5858   5857   5860   5869     1  0.0000000  0.6508444  3
   5858   5857   5860   5861     1  0.0000000  0.6508444  3
   5858   5857   5860   5862     1  0.0000000  0.6508444  3
   5859   5857   5850   5879     1  0.0000000  0.6508444  3
   5859   5857   5860   5869     1  0.0000000  0.6508444  3
   5859   5857   5860   5861     1  0.0000000  0.6508444  3
   5859   5857   5860   5862     1  0.0000000  0.6508444  3
   5860   5857   5850   5879     1  0.0000000  0.6508444  3
   5861   5860   5869   5878     1  0.0000000  1.0460000  1
   5861   5860   5869   5878     1  0.0000000  0.0000000  3
   5861   5860   5869   5870     1  0.0000000  0.6508444  3
   5861   5860   5869   5871     1  0.0000000  0.6508444  3
   5862   5860   5869   5878     1  0.0000000  1.0460000  1
   5862   5860   5869   5878     1  0.0000000  0.0000000  3
   5862   5860   5869   5870     1  0.0000000  0.6508444  3
   5862   5860   5869   5871     1  0.0000000  0.6508444  3
   5863   5851   5850   5879     1  0.0000000  0.6508444  3
   5864   5863   5875  10827     1  0.0000000  1.0460000  1
   5864   5863   5875  10827     1  0.0000000  0.0000000  3
   5864   5863   5875   5876     1  0.0000000  0.6508444  3
   5864   5863   5875   5877     1  0.0000000  0.6508444  3
   5865   5863   5875  10827     1  0.0000000  1.0460000  1
   5865   5863   5875  10827     1  0.0000000  0.0000000  3
   5865   5863   5875   5876     1  0.0000000  0.6508444  3
   5865   5863   5875   5877     1  0.0000000  0.6508444  3
   5866   5854   5850   5879     1  0.0000000  0.6508444  3
   5867   5866   5872  10804     1  0.0000000  1.0460000  1
   5867   5866   5872  10804     1  0.0000000  0.0000000  3
   5867   5866   5872   5873     1  0.0000000  0.6508444  3
   5867   5866   5872   5874     1  0.0000000  0.6508444  3
   5868   5866   5872  10804     1  0.0000000  1.0460000  1
   5868   5866   5872  10804     1  0.0000000  0.0000000  3
   5868   5866   5872   5873     1  0.0000000  0.6508444  3
   5868   5866   5872   5874     1  0.0000000  0.6508444  3
   5872  10804  10800  10803     1  0.0000000  1.6038667  3
   5873   5872  10804  10800     1  0.0000000  1.6038667  3
   5874   5872  10804  10800     1  0.0000000  1.6038667  3
   5875  10827  10823  10826     1  0.0000000  1.6038667  3
   5876   5875  10827  10823     1  0.0000000  1.6038667  3
   5877   5875  10827  10823     1  0.0000000  1.6038667  3
   5880   5881   5893   5894     1  0.0000000  0.6508444  3
   5880   5881   5893   5895     1  0.0000000  0.6508444  3
   5880   5884   5896   5897     1  0.0000000  0.6508444  3
   5880   5884   5896   5898     1  0.0000000  0.6508444  3
   5880   5887   5890   5891     1  0.0000000  0.6508444  3
   5880   5887   5890   5892     1  0.0000000  0.6508444  3
   5881   5880   5884   5885     1  0.0000000  0.6508444  3
   5881   5880   5884   5886     1  0.0000000  0.6508444  3
   5881   5880   5887   5888     1  0.0000000  0.6508444  3
   5881   5880   5887   5889     1  0.0000000  0.6508444  3
   5881   5893   5905   5906     1  0.0000000  0.6508444  3
   5881   5893   5905   5907     1  0.0000000  0.6508444  3
   5882   5881   5880   5884     1  0.0000000  0.6508444  3
   5882   5881   5880   5887     1  0.0000000  0.6508444  3
   5882   5881   5880   5909     1  0.0000000  0.6508444  3
   5882   5881   5893   5905     1  0.0000000  0.6508444  3
   5882   5881   5893   5894     1  0.0000000  0.6508444  3
   5882   5881   5893   5895     1  0.0000000  0.6508444  3
   5883   5881   5880   5884     1  0.0000000  0.6508444  3
   5883   5881   5880   5887     1  0.0000000  0.6508444  3
   5883   5881   5880   5909     1  0.0000000  0.6508444  3
   5883   5881   5893   5905     1  0.0000000  0.6508444  3
   5883   5881   5893   5894     1  0.0000000  0.6508444  3
   5883   5881   5893   5895     1  0.0000000  0.6508444  3
   5884   5880   5887   5888     1  0.0000000  0.6508444  3
   5884   5880   5887   5889     1  0.0000000  0.6508444  3
   5884   5896   5902   5903     1  0.0000000  0.6508444  3
   5884   5896   5902   5904     1  0.0000000  0.6508444  3
   5885   5884   5880   5887     1  0.0000000  0.6508444  3
   5885   5884   5880   5909     1  0.0000000  0.6508444  3
   5885   5884   5896   5902     1  0.0000000  0.6508444  3
   5885   5884   5896   5897     1  0.0000000  0.6508444  3
   5885   5884   5896   5898     1  0.0000000  0.6508444  3
   5886   5884   5880   5887     1  0.0000000  0.6508444  3
   5886   5884   5880   5909     1  0.0000000  0.6508444  3
   5886   5884   5896   5902     1  0.0000000  0.6508444  3
   5886   5884   5896   5897     1  0.0000000  0.6508444  3
   5886   5884   5896   5898     1  0.0000000  0.6508444  3
   5887   5890   5899   5900     1  0.0000000  0.6508444  3
   5887   5890   5899   5901     1  0.0000000  0.6508444  3
   5888   5887   5880   5909     1  0.0000000  0.6508444  3
   5888   5887   5890   5899     1  0.0000000  0.6508444  3
   5888   5887   5890   5891     1  0.0000000  0.6508444  3
   5888   5887   5890   5892     1  0.0000000  0.6508444  3
   5889   5887   5880   5909     1  0.0000000  0.6508444  3
   5889   5887   5890   5899     1  0.0000000  0.6508444  3
   5889   5887   5890   5891     1  0.0000000  0.6508444  3
   5889   5887   5890   5892     1  0.0000000  0.6508444  3
   5890   5887   5880   5909     1  0.0000000  0.6508444  3
   5891   5890   5899   5908     1  0.0000000  1.0460000  1
   5891   5890   5899   5908     1  0.0000000  0.0000000  3
   5891   5890   5899   5900     1  0.0000000  0.6508444  3
   5891   5890   5899   5901     1  0.0000000  0.6508444  3
   5892   5890   5899   5908     1  0.0000000  1.0460000  1
   5892   5890   5899   5908     1  0.0000000  0.0000000  3
   5892   5890   5899   5900     1  0.0000000  0.6508444  3
   5892   5890   5899   5901     1  0.0000000  0.6508444  3
   5893   5881   5880   5909     1  0.0000000  0.6508444  3
   5894   5893   5905  10873     1  0.0000000  1.0460000  1
   5894   5893   5905  10873     1  0.0000000  0.0000000  3
   5894   5893   5905   5906     1  0.0000000  0.6508444  3
   5894   5893   5905   5907     1  0.0000000  0.6508444  3
   5895   5893   5905  10873     1  0.0000000  1.0460000  1
   5895   5893   5905  10873     1  0.0000000  0.0000000  3
   5895   5893   5905   5906     1  0.0000000  0.6508444  3
   5895   5893   5905   5907     1  0.0000000  0.6508444  3
   5896   5884   5880   5909     1  0.0000000  0.6508444  3
   5897   5896   5902  10850     1  0.0000000  1.0460000  1
   5897   5896   5902  10850     1  0.0000000  0.0000000  3
   5897   5896   5902   5903     1  0.0000000  0.6508444  3
   5897   5896   5902   5904     1  0.0000000  0.6508444  3
   5898   5896   5902  10850     1  0.0000000  1.0460000  1
   5898   5896   5902  10850     1  0.0000000  0.0000000  3
   5898   5896   5902   5903     1  0.0000000  0.6508444  3
   5898   5896   5902   5904     1  0.0000000  0.6508444  3
   5902  10850  10846  10849     1  0.0000000  1.6038667  3
   5903   5902  10850  10846     1  0.0000000  1.6038667  3
   5904   5902  10850  10846     1  0.0000000  1.6038667  3
   5905  10873  10869  10872     1  0.0000000  1.6038667  3
   5906   5905  10873  10869     1  0.0000000  1.6038667  3
   5907   5905  10873  10869     1  0.0000000  1.6038667  3
   5910   5911   5923   5924     1  0.0000000  0.6508444  3
   5910   5911   5923   5925     1  0.0000000  0.6508444  3
   5910   5914   5926   5927     1  0.0000000  0.6508444  3
   5910   5914   5926   5928     1  0.0000000  0.6508444  3
   5910   5917   5920   5921     1  0.0000000  0.6508444  3
   5910   5917   5920   5922     1  0.0000000  0.6508444  3
   5911   5910   5914   5915     1  0.0000000  0.6508444  3
   5911   5910   5914   5916     1  0.0000000  0.6508444  3
   5911   5910   5917   5918     1  0.0000000  0.6508444  3
   5911   5910   5917   5919     1  0.0000000  0.6508444  3
   5911   5923   5935   5936     1  0.0000000  0.6508444  3
   5911   5923   5935   5937     1  0.0000000  0.6508444  3
   5912   5911   5910   5914     1  0.0000000  0.6508444  3
   5912   5911   5910   5917     1  0.0000000  0.6508444  3
   5912   5911   5910   5939     1  0.0000000  0.6508444  3
   5912   5911   5923   5935     1  0.0000000  0.6508444  3
   5912   5911   5923   5924     1  0.0000000  0.6508444  3
   5912   5911   5923   5925     1  0.0000000  0.6508444  3
   5913   5911   5910   5914     1  0.0000000  0.6508444  3
   5913   5911   5910   5917     1  0.0000000  0.6508444  3
   5913   5911   5910   5939     1  0.0000000  0.6508444  3
   5913   5911   5923   5935     1  0.0000000  0.6508444  3
   5913   5911   5923   5924     1  0.0000000  0.6508444  3
   5913   5911   5923   5925     1  0.0000000  0.6508444  3
   5914   5910   5917   5918     1  0.0000000  0.6508444  3
   5914   5910   5917   5919     1  0.0000000  0.6508444  3
   5914   5926   5932   5933     1  0.0000000  0.6508444  3
   5914   5926   5932   5934     1  0.0000000  0.6508444  3
   5915   5914   5910   5917     1  0.0000000  0.6508444  3
   5915   5914   5910   5939     1  0.0000000  0.6508444  3
   5915   5914   5926   5932     1  0.0000000  0.6508444  3
   5915   5914   5926   5927     1  0.0000000  0.6508444  3
   5915   5914   5926   5928     1  0.0000000  0.6508444  3
   5916   5914   5910   5917     1  0.0000000  0.6508444  3
   5916   5914   5910   5939     1  0.0000000  0.6508444  3
   5916   5914   5926   5932     1  0.0000000  0.6508444  3
   5916   5914   5926   5927     1  0.0000000  0.6508444  3
   5916   5914   5926   5928     1  0.0000000  0.6508444  3
   5917   5920   5929   5930     1  0.0000000  0.6508444  3
   5917   5920   5929   5931     1  0.0000000  0.6508444  3
   5918   5917   5910   5939     1  0.0000000  0.6508444  3
   5918   5917   5920   5929     1  0.0000000  0.6508444  3
   5918   5917   5920   5921     1  0.0000000  0.6508444  3
   5918   5917   5920   5922     1  0.0000000  0.6508444  3
   5919   5917   5910   5939     1  0.0000000  0.6508444  3
   5919   5917   5920   5929     1  0.0000000  0.6508444  3
   5919   5917   5920   5921     1  0.0000000  0.6508444  3
   5919   5917   5920   5922     1  0.0000000  0.6508444  3
   5920   5917   5910   5939     1  0.0000000  0.6508444  3
   5921   5920   5929   5938     1  0.0000000  1.0460000  1
   5921   5920   5929   5938     1  0.0000000  0.0000000  3
   5921   5920   5929   5930     1  0.0000000  0.6508444  3
   5921   5920   5929   5931     1  0.0000000  0.6508444  3
   5922   5920   5929   5938     1  0.0000000  1.0460000  1
   5922   5920   5929   5938     1  0.0000000  0.0000000  3
   5922   5920   5929   5930     1  0.0000000  0.6508444  3
   5922   5920   5929   5931     1  0.0000000  0.6508444  3
   5923   5911   5910   5939     1  0.0000000  0.6508444  3
   5924   5923   5935  10919     1  0.0000000  1.0460000  1
   5924   5923   5935  10919     1  0.0000000  0.0000000  3
   5924   5923   5935   5936     1  0.0000000  0.6508444  3
   5924   5923   5935   5937     1  0.0000000  0.6508444  3
   5925   5923   5935  10919     1  0.0000000  1.0460000  1
   5925   5923   5935  10919     1  0.0000000  0.0000000  3
   5925   5923   5935   5936     1  0.0000000  0.6508444  3
   5925   5923   5935   5937     1  0.0000000  0.6508444  3
   5926   5914   5910   5939     1  0.0000000  0.6508444  3
   5927   5926   5932  10896     1  0.0000000  1.0460000  1
   5927   5926   5932  10896     1  0.0000000  0.0000000  3
   5927   5926   5932   5933     1  0.0000000  0.6508444  3
   5927   5926   5932   5934     1  0.0000000  0.6508444  3
   5928   5926   5932  10896     1  0.0000000  1.0460000  1
   5928   5926   5932  10896     1  0.0000000  0.0000000  3
   5928   5926   5932   5933     1  0.0000000  0.6508444  3
   5928   5926   5932   5934     1  0.0000000  0.6508444  3
   5932  10896  10892  10895     1  0.0000000  1.6038667  3
   5933   5932  10896  10892     1  0.0000000  1.6038667  3
   5934   5932  10896  10892     1  0.0000000  1.6038667  3
   5935  10919  10915  10918     1  0.0000000  1.6038667  3
   5936   5935  10919  10915     1  0.0000000  1.6038667  3
   5937   5935  10919  10915     1  0.0000000  1.6038667  3
   5940   5941   5953   5954     1  0.0000000  0.6508444  3
   5940   5941   5953   5955     1  0.0000000  0.6508444  3
   5940   5944   5956   5957     1  0.0000000  0.6508444  3
   5940   5944   5956   5958     1  0.0000000  0.6508444  3
   5940   5947   5950   5951     1  0.0000000  0.6508444  3
   5940   5947   5950   5952     1  0.0000000  0.6508444  3
   5941   5940   5944   5945     1  0.0000000  0.6508444  3
   5941   5940   5944   5946     1  0.0000000  0.6508444  3
   5941   5940   5947   5948     1  0.0000000  0.6508444  3
   5941   5940   5947   5949     1  0.0000000  0.6508444  3
   5941   5953   5965   5966     1  0.0000000  0.6508444  3
   5941   5953   5965   5967     1  0.0000000  0.6508444  3
   5942   5941   5940   5944     1  0.0000000  0.6508444  3
   5942   5941   5940   5947     1  0.0000000  0.6508444  3
   5942   5941   5940   5969     1  0.0000000  0.6508444  3
   5942   5941   5953   5965     1  0.0000000  0.6508444  3
   5942   5941   5953   5954     1  0.0000000  0.6508444  3
   5942   5941   5953   5955     1  0.0000000  0.6508444  3
   5943   5941   5940   5944     1  0.0000000  0.6508444  3
   5943   5941   5940   5947     1  0.0000000  0.6508444  3
   5943   5941   5940   5969     1  0.0000000  0.6508444  3
   5943   5941   5953   5965     1  0.0000000  0.6508444  3
   5943   5941   5953   5954     1  0.0000000  0.6508444  3
   5943   5941   5953   5955     1  0.0000000  0.6508444  3
   5944   5940   5947   5948     1  0.0000000  0.6508444  3
   5944   5940   5947   5949     1  0.0000000  0.6508444  3
   5944   5956   5962   5963     1  0.0000000  0.6508444  3
   5944   5956   5962   5964     1  0.0000000  0.6508444  3
   5945   5944   5940   5947     1  0.0000000  0.6508444  3
   5945   5944   5940   5969     1  0.0000000  0.6508444  3
   5945   5944   5956   5962     1  0.0000000  0.6508444  3
   5945   5944   5956   5957     1  0.0000000  0.6508444  3
   5945   5944   5956   5958     1  0.0000000  0.6508444  3
   5946   5944   5940   5947     1  0.0000000  0.6508444  3
   5946   5944   5940   5969     1  0.0000000  0.6508444  3
   5946   5944   5956   5962     1  0.0000000  0.6508444  3
   5946   5944   5956   5957     1  0.0000000  0.6508444  3
   5946   5944   5956   5958     1  0.0000000  0.6508444  3
   5947   5950   5959   5960     1  0.0000000  0.6508444  3
   5947   5950   5959   5961     1  0.0000000  0.6508444  3
   5948   5947   5940   5969     1  0.0000000  0.6508444  3
   5948   5947   5950   5959     1  0.0000000  0.6508444  3
   5948   5947   5950   5951     1  0.0000000  0.6508444  3
   5948   5947   5950   5952     1  0.0000000  0.6508444  3
   5949   5947   5940   5969     1  0.0000000  0.6508444  3
   5949   5947   5950   5959     1  0.0000000  0.6508444  3
   5949   5947   5950   5951     1  0.0000000  0.6508444  3
   5949   5947   5950   5952     1  0.0000000  0.6508444  3
   5950   5947   5940   5969     1  0.0000000  0.6508444  3
   5951   5950   5959   5968     1  0.0000000  1.0460000  1
   5951   5950   5959   5968     1  0.0000000  0.0000000  3
   5951   5950   5959   5960     1  0.0000000  0.6508444  3
   5951   5950   5959   5961     1  0.0000000  0.6508444  3
   5952   5950   5959   5968     1  0.0000000  1.0460000  1
   5952   5950   5959   5968     1  0.0000000  0.0000000  3
   5952   5950   5959   5960     1  0.0000000  0.6508444  3
   5952   5950   5959   5961     1  0.0000000  0.6508444  3
   5953   5941   5940   5969     1  0.0000000  0.6508444  3
   5954   5953   5965  10965     1  0.0000000  1.0460000  1
   5954   5953   5965  10965     1  0.0000000  0.0000000  3
   5954   5953   5965   5966     1  0.0000000  0.6508444  3
   5954   5953   5965   5967     1  0.0000000  0.6508444  3
   5955   5953   5965  10965     1  0.0000000  1.0460000  1
   5955   5953   5965  10965     1  0.0000000  0.0000000  3
   5955   5953   5965   5966     1  0.0000000  0.6508444  3
   5955   5953   5965   5967     1  0.0000000  0.6508444  3
   5956   5944   5940   5969     1  0.0000000  0.6508444  3
   5957   5956   5962  10942     1  0.0000000  1.0460000  1
   5957   5956   5962  10942     1  0.0000000  0.0000000  3
   5957   5956   5962   5963     1  0.0000000  0.6508444  3
   5957   5956   5962   5964     1  0.0000000  0.6508444  3
   5958   5956   5962  10942     1  0.0000000  1.0460000  1
   5958   5956   5962  10942     1  0.0000000  0.0000000  3
   5958   5956   5962   5963     1  0.0000000  0.6508444  3
   5958   5956   5962   5964     1  0.0000000  0.6508444  3
   5962  10942  10938  10941     1  0.0000000  1.6038667  3
   5963   5962  10942  10938     1  0.0000000  1.6038667  3
   5964   5962  10942  10938     1  0.0000000  1.6038667  3
   5965  10965  10961  10964     1  0.0000000  1.6038667  3
   5966   5965  10965  10961     1  0.0000000  1.6038667  3
   5967   5965  10965  10961     1  0.0000000  1.6038667  3
   5970   5971   5983   5984     1  0.0000000  0.6508444  3
   5970   5971   5983   5985     1  0.0000000  0.6508444  3
   5970   5974   5986   5987     1  0.0000000  0.6508444  3
   5970   5974   5986   5988     1  0.0000000  0.6508444  3
   5970   5977   5980   5981     1  0.0000000  0.6508444  3
   5970   5977   5980   5982     1  0.0000000  0.6508444  3
   5971   5970   5974   5975     1  0.0000000  0.6508444  3
   5971   5970   5974   5976     1  0.0000000  0.6508444  3
   5971   5970   5977   5978     1  0.0000000  0.6508444  3
   5971   5970   5977   5979     1  0.0000000  0.6508444  3
   5971   5983   5995   5996     1  0.0000000  0.6508444  3
   5971   5983   5995   5997     1  0.0000000  0.6508444  3
   5972   5971   5970   5974     1  0.0000000  0.6508444  3
   5972   5971   5970   5977     1  0.0000000  0.6508444  3
   5972   5971   5970   5999     1  0.0000000  0.6508444  3
   5972   5971   5983   5995     1  0.0000000  0.6508444  3
   5972   5971   5983   5984     1  0.0000000  0.6508444  3
   5972   5971   5983   5985     1  0.0000000  0.6508444  3
   5973   5971   5970   5974     1  0.0000000  0.6508444  3
   5973   5971   5970   5977     1  0.0000000  0.6508444  3
   5973   5971   5970   5999     1  0.0000000  0.6508444  3
   5973   5971   5983   5995     1  0.0000000  0.6508444  3
   5973   5971   5983   5984     1  0.0000000  0.6508444  3
   5973   5971   5983   5985     1  0.0000000  0.6508444  3
   5974   5970   5977   5978     1  0.0000000  0.6508444  3
   5974   5970   5977   5979     1  0.0000000  0.6508444  3
   5974   5986   5992   5993     1  0.0000000  0.6508444  3
   5974   5986   5992   5994     1  0.0000000  0.6508444  3
   5975   5974   5970   5977     1  0.0000000  0.6508444  3
   5975   5974   5970   5999     1  0.0000000  0.6508444  3
   5975   5974   5986   5992     1  0.0000000  0.6508444  3
   5975   5974   5986   5987     1  0.0000000  0.6508444  3
   5975   5974   5986   5988     1  0.0000000  0.6508444  3
   5976   5974   5970   5977     1  0.0000000  0.6508444  3
   5976   5974   5970   5999     1  0.0000000  0.6508444  3
   5976   5974   5986   5992     1  0.0000000  0.6508444  3
   5976   5974   5986   5987     1  0.0000000  0.6508444  3
   5976   5974   5986   5988     1  0.0000000  0.6508444  3
   5977   5980   5989   5990     1  0.0000000  0.6508444  3
   5977   5980   5989   5991     1  0.0000000  0.6508444  3
   5978   5977   5970   5999     1  0.0000000  0.6508444  3
   5978   5977   5980   5989     1  0.0000000  0.6508444  3
   5978   5977   5980   5981     1  0.0000000  0.6508444  3
   5978   5977   5980   5982     1  0.0000000  0.6508444  3
   5979   5977   5970   5999     1  0.0000000  0.6508444  3
   5979   5977   5980   5989     1  0.0000000  0.6508444  3
   5979   5977   5980   5981     1  0.0000000  0.6508444  3
   5979   5977   5980   5982     1  0.0000000  0.6508444  3
   5980   5977   5970   5999     1  0.0000000  0.6508444  3
   5981   5980   5989   5998     1  0.0000000  1.0460000  1
   5981   5980   5989   5998     1  0.0000000  0.0000000  3
   5981   5980   5989   5990     1  0.0000000  0.6508444  3
   5981   5980   5989   5991     1  0.0000000  0.6508444  3
   5982   5980   5989   5998     1  0.0000000  1.0460000  1
   5982   5980   5989   5998     1  0.0000000  0.0000000  3
   5982   5980   5989   5990     1  0.0000000  0.6508444  3
   5982   5980   5989   5991     1  0.0000000  0.6508444  3
   5983   5971   5970   5999     1  0.0000000  0.6508444  3
   5984   5983   5995  11011     1  0.0000000  1.0460000  1
   5984   5983   5995  11011     1  0.0000000  0.0000000  3
   5984   5983   5995   5996     1  0.0000000  0.6508444  3
   5984   5983   5995   5997     1  0.0000000  0.6508444  3
   5985   5983   5995  11011     1  0.0000000  1.0460000  1
   5985   5983   5995  11011     1  0.0000000  0.0000000  3
   5985   5983   5995   5996     1  0.0000000  0.6508444  3
   5985   5983   5995   5997     1  0.0000000  0.6508444  3
   5986   5974   5970   5999     1  0.0000000  0.6508444  3
   5987   5986   5992  10988     1  0.0000000  1.0460000  1
   5987   5986   5992  10988     1  0.0000000  0.0000000  3
   5987   5986   5992   5993     1  0.0000000  0.6508444  3
   5987   5986   5992   5994     1  0.0000000  0.6508444  3
   5988   5986   5992  10988     1  0.0000000  1.0460000  1
   5988   5986   5992  10988     1  0.0000000  0.0000000  3
   5988   5986   5992   5993     1  0.0000000  0.6508444  3
   5988   5986   5992   5994     1  0.0000000  0.6508444  3
   5992  10988  10984  10987     1  0.0000000  1.6038667  3
   5993   5992  10988  10984     1  0.0000000  1.6038667  3
   5994   5992  10988  10984     1  0.0000000  1.6038667  3
   5995  11011  11007  11010     1  0.0000000  1.6038667  3
   5996   5995  11011  11007     1  0.0000000  1.6038667  3
   5997   5995  11011  11007     1  0.0000000  1.6038667  3
   6000   6001   6013   6014     1  0.0000000  0.6508444  3
   6000   6001   6013   6015     1  0.0000000  0.6508444  3
   6000   6004   6016   6017     1  0.0000000  0.6508444  3
   6000   6004   6016   6018     1  0.0000000  0.6508444  3
   6000   6007   6010   6011     1  0.0000000  0.6508444  3
   6000   6007   6010   6012     1  0.0000000  0.6508444  3
   6001   6000   6004   6005     1  0.0000000  0.6508444  3
   6001   6000   6004   6006     1  0.0000000  0.6508444  3
   6001   6000   6007   6008     1  0.0000000  0.6508444  3
   6001   6000   6007   6009     1  0.0000000  0.6508444  3
   6001   6013   6025   6026     1  0.0000000  0.6508444  3
   6001   6013   6025   6027     1  0.0000000  0.6508444  3
   6002   6001   6000   6004     1  0.0000000  0.6508444  3
   6002   6001   6000   6007     1  0.0000000  0.6508444  3
   6002   6001   6000   6029     1  0.0000000  0.6508444  3
   6002   6001   6013   6025     1  0.0000000  0.6508444  3
   6002   6001   6013   6014     1  0.0000000  0.6508444  3
   6002   6001   6013   6015     1  0.0000000  0.6508444  3
   6003   6001   6000   6004     1  0.0000000  0.6508444  3
   6003   6001   6000   6007     1  0.0000000  0.6508444  3
   6003   6001   6000   6029     1  0.0000000  0.6508444  3
   6003   6001   6013   6025     1  0.0000000  0.6508444  3
   6003   6001   6013   6014     1  0.0000000  0.6508444  3
   6003   6001   6013   6015     1  0.0000000  0.6508444  3
   6004   6000   6007   6008     1  0.0000000  0.6508444  3
   6004   6000   6007   6009     1  0.0000000  0.6508444  3
   6004   6016   6022   6023     1  0.0000000  0.6508444  3
   6004   6016   6022   6024     1  0.0000000  0.6508444  3
   6005   6004   6000   6007     1  0.0000000  0.6508444  3
   6005   6004   6000   6029     1  0.0000000  0.6508444  3
   6005   6004   6016   6022     1  0.0000000  0.6508444  3
   6005   6004   6016   6017     1  0.0000000  0.6508444  3
   6005   6004   6016   6018     1  0.0000000  0.6508444  3
   6006   6004   6000   6007     1  0.0000000  0.6508444  3
   6006   6004   6000   6029     1  0.0000000  0.6508444  3
   6006   6004   6016   6022     1  0.0000000  0.6508444  3
   6006   6004   6016   6017     1  0.0000000  0.6508444  3
   6006   6004   6016   6018     1  0.0000000  0.6508444  3
   6007   6010   6019   6020     1  0.0000000  0.6508444  3
   6007   6010   6019   6021     1  0.0000000  0.6508444  3
   6008   6007   6000   6029     1  0.0000000  0.6508444  3
   6008   6007   6010   6019     1  0.0000000  0.6508444  3
   6008   6007   6010   6011     1  0.0000000  0.6508444  3
   6008   6007   6010   6012     1  0.0000000  0.6508444  3
   6009   6007   6000   6029     1  0.0000000  0.6508444  3
   6009   6007   6010   6019     1  0.0000000  0.6508444  3
   6009   6007   6010   6011     1  0.0000000  0.6508444  3
   6009   6007   6010   6012     1  0.0000000  0.6508444  3
   6010   6007   6000   6029     1  0.0000000  0.6508444  3
   6011   6010   6019   6028     1  0.0000000  1.0460000  1
   6011   6010   6019   6028     1  0.0000000  0.0000000  3
   6011   6010   6019   6020     1  0.0000000  0.6508444  3
   6011   6010   6019   6021     1  0.0000000  0.6508444  3
   6012   6010   6019   6028     1  0.0000000  1.0460000  1
   6012   6010   6019   6028     1  0.0000000  0.0000000  3
   6012   6010   6019   6020     1  0.0000000  0.6508444  3
   6012   6010   6019   6021     1  0.0000000  0.6508444  3
   6013   6001   6000   6029     1  0.0000000  0.6508444  3
   6014   6013   6025  11057     1  0.0000000  1.0460000  1
   6014   6013   6025  11057     1  0.0000000  0.0000000  3
   6014   6013   6025   6026     1  0.0000000  0.6508444  3
   6014   6013   6025   6027     1  0.0000000  0.6508444  3
   6015   6013   6025  11057     1  0.0000000  1.0460000  1
   6015   6013   6025  11057     1  0.0000000  0.0000000  3
   6015   6013   6025   6026     1  0.0000000  0.6508444  3
   6015   6013   6025   6027     1  0.0000000  0.6508444  3
   6016   6004   6000   6029     1  0.0000000  0.6508444  3
   6017   6016   6022  11034     1  0.0000000  1.0460000  1
   6017   6016   6022  11034     1  0.0000000  0.0000000  3
   6017   6016   6022   6023     1  0.0000000  0.6508444  3
   6017   6016   6022   6024     1  0.0000000  0.6508444  3
   6018   6016   6022  11034     1  0.0000000  1.0460000  1
   6018   6016   6022  11034     1  0.0000000  0.0000000  3
   6018   6016   6022   6023     1  0.0000000  0.6508444  3
   6018   6016   6022   6024     1  0.0000000  0.6508444  3
   6022  11034  11030  11033     1  0.0000000  1.6038667  3
   6023   6022  11034  11030     1  0.0000000  1.6038667  3
   6024   6022  11034  11030     1  0.0000000  1.6038667  3
   6025  11057  11053  11056     1  0.0000000  1.6038667  3
   6026   6025  11057  11053     1  0.0000000  1.6038667  3
   6027   6025  11057  11053     1  0.0000000  1.6038667  3
   6030   6031   6043   6044     1  0.0000000  0.6508444  3
   6030   6031   6043   6045     1  0.0000000  0.6508444  3
   6030   6034   6046   6047     1  0.0000000  0.6508444  3
   6030   6034   6046   6048     1  0.0000000  0.6508444  3
   6030   6037   6040   6041     1  0.0000000  0.6508444  3
   6030   6037   6040   6042     1  0.0000000  0.6508444  3
   6031   6030   6034   6035     1  0.0000000  0.6508444  3
   6031   6030   6034   6036     1  0.0000000  0.6508444  3
   6031   6030   6037   6038     1  0.0000000  0.6508444  3
   6031   6030   6037   6039     1  0.0000000  0.6508444  3
   6031   6043   6055   6056     1  0.0000000  0.6508444  3
   6031   6043   6055   6057     1  0.0000000  0.6508444  3
   6032   6031   6030   6034     1  0.0000000  0.6508444  3
   6032   6031   6030   6037     1  0.0000000  0.6508444  3
   6032   6031   6030   6059     1  0.0000000  0.6508444  3
   6032   6031   6043   6055     1  0.0000000  0.6508444  3
   6032   6031   6043   6044     1  0.0000000  0.6508444  3
   6032   6031   6043   6045     1  0.0000000  0.6508444  3
   6033   6031   6030   6034     1  0.0000000  0.6508444  3
   6033   6031   6030   6037     1  0.0000000  0.6508444  3
   6033   6031   6030   6059     1  0.0000000  0.6508444  3
   6033   6031   6043   6055     1  0.0000000  0.6508444  3
   6033   6031   6043   6044     1  0.0000000  0.6508444  3
   6033   6031   6043   6045     1  0.0000000  0.6508444  3
   6034   6030   6037   6038     1  0.0000000  0.6508444  3
   6034   6030   6037   6039     1  0.0000000  0.6508444  3
   6034   6046   6052   6053     1  0.0000000  0.6508444  3
   6034   6046   6052   6054     1  0.0000000  0.6508444  3
   6035   6034   6030   6037     1  0.0000000  0.6508444  3
   6035   6034   6030   6059     1  0.0000000  0.6508444  3
   6035   6034   6046   6052     1  0.0000000  0.6508444  3
   6035   6034   6046   6047     1  0.0000000  0.6508444  3
   6035   6034   6046   6048     1  0.0000000  0.6508444  3
   6036   6034   6030   6037     1  0.0000000  0.6508444  3
   6036   6034   6030   6059     1  0.0000000  0.6508444  3
   6036   6034   6046   6052     1  0.0000000  0.6508444  3
   6036   6034   6046   6047     1  0.0000000  0.6508444  3
   6036   6034   6046   6048     1  0.0000000  0.6508444  3
   6037   6040   6049   6050     1  0.0000000  0.6508444  3
   6037   6040   6049   6051     1  0.0000000  0.6508444  3
   6038   6037   6030   6059     1  0.0000000  0.6508444  3
   6038   6037   6040   6049     1  0.0000000  0.6508444  3
   6038   6037   6040   6041     1  0.0000000  0.6508444  3
   6038   6037   6040   6042     1  0.0000000  0.6508444  3
   6039   6037   6030   6059     1  0.0000000  0.6508444  3
   6039   6037   6040   6049     1  0.0000000  0.6508444  3
   6039   6037   6040   6041     1  0.0000000  0.6508444  3
   6039   6037   6040   6042     1  0.0000000  0.6508444  3
   6040   6037   6030   6059     1  0.0000000  0.6508444  3
   6041   6040   6049   6058     1  0.0000000  1.0460000  1
   6041   6040   6049   6058     1  0.0000000  0.0000000  3
   6041   6040   6049   6050     1  0.0000000  0.6508444  3
   6041   6040   6049   6051     1  0.0000000  0.6508444  3
   6042   6040   6049   6058     1  0.0000000  1.0460000  1
   6042   6040   6049   6058     1  0.0000000  0.0000000  3
   6042   6040   6049   6050     1  0.0000000  0.6508444  3
   6042   6040   6049   6051     1  0.0000000  0.6508444  3
   6043   6031   6030   6059     1  0.0000000  0.6508444  3
   6044   6043   6055  11103     1  0.0000000  1.0460000  1
   6044   6043   6055  11103     1  0.0000000  0.0000000  3
   6044   6043   6055   6056     1  0.0000000  0.6508444  3
   6044   6043   6055   6057     1  0.0000000  0.6508444  3
   6045   6043   6055  11103     1  0.0000000  1.0460000  1
   6045   6043   6055  11103     1  0.0000000  0.0000000  3
   6045   6043   6055   6056     1  0.0000000  0.6508444  3
   6045   6043   6055   6057     1  0.0000000  0.6508444  3
   6046   6034   6030   6059     1  0.0000000  0.6508444  3
   6047   6046   6052  11080     1  0.0000000  1.0460000  1
   6047   6046   6052  11080     1  0.0000000  0.0000000  3
   6047   6046   6052   6053     1  0.0000000  0.6508444  3
   6047   6046   6052   6054     1  0.0000000  0.6508444  3
   6048   6046   6052  11080     1  0.0000000  1.0460000  1
   6048   6046   6052  11080     1  0.0000000  0.0000000  3
   6048   6046   6052   6053     1  0.0000000  0.6508444  3
   6048   6046   6052   6054     1  0.0000000  0.6508444  3
   6052  11080  11076  11079     1  0.0000000  1.6038667  3
   6053   6052  11080  11076     1  0.0000000  1.6038667  3
   6054   6052  11080  11076     1  0.0000000  1.6038667  3
   6055  11103  11099  11102     1  0.0000000  1.6038667  3
   6056   6055  11103  11099     1  0.0000000  1.6038667  3
   6057   6055  11103  11099     1  0.0000000  1.6038667  3
   6060   6061   6073   6074     1  0.0000000  0.6508444  3
   6060   6061   6073   6075     1  0.0000000  0.6508444  3
   6060   6064   6076   6077     1  0.0000000  0.6508444  3
   6060   6064   6076   6078     1  0.0000000  0.6508444  3
   6060   6067   6070   6071     1  0.0000000  0.6508444  3
   6060   6067   6070   6072     1  0.0000000  0.6508444  3
   6061   6060   6064   6065     1  0.0000000  0.6508444  3
   6061   6060   6064   6066     1  0.0000000  0.6508444  3
   6061   6060   6067   6068     1  0.0000000  0.6508444  3
   6061   6060   6067   6069     1  0.0000000  0.6508444  3
   6061   6073   6085   6086     1  0.0000000  0.6508444  3
   6061   6073   6085   6087     1  0.0000000  0.6508444  3
   6062   6061   6060   6064     1  0.0000000  0.6508444  3
   6062   6061   6060   6067     1  0.0000000  0.6508444  3
   6062   6061   6060   6089     1  0.0000000  0.6508444  3
   6062   6061   6073   6085     1  0.0000000  0.6508444  3
   6062   6061   6073   6074     1  0.0000000  0.6508444  3
   6062   6061   6073   6075     1  0.0000000  0.6508444  3
   6063   6061   6060   6064     1  0.0000000  0.6508444  3
   6063   6061   6060   6067     1  0.0000000  0.6508444  3
   6063   6061   6060   6089     1  0.0000000  0.6508444  3
   6063   6061   6073   6085     1  0.0000000  0.6508444  3
   6063   6061   6073   6074     1  0.0000000  0.6508444  3
   6063   6061   6073   6075     1  0.0000000  0.6508444  3
   6064   6060   6067   6068     1  0.0000000  0.6508444  3
   6064   6060   6067   6069     1  0.0000000  0.6508444  3
   6064   6076   6082   6083     1  0.0000000  0.6508444  3
   6064   6076   6082   6084     1  0.0000000  0.6508444  3
   6065   6064   6060   6067     1  0.0000000  0.6508444  3
   6065   6064   6060   6089     1  0.0000000  0.6508444  3
   6065   6064   6076   6082     1  0.0000000  0.6508444  3
   6065   6064   6076   6077     1  0.0000000  0.6508444  3
   6065   6064   6076   6078     1  0.0000000  0.6508444  3
   6066   6064   6060   6067     1  0.0000000  0.6508444  3
   6066   6064   6060   6089     1  0.0000000  0.6508444  3
   6066   6064   6076   6082     1  0.0000000  0.6508444  3
   6066   6064   6076   6077     1  0.0000000  0.6508444  3
   6066   6064   6076   6078     1  0.0000000  0.6508444  3
   6067   6070   6079   6080     1  0.0000000  0.6508444  3
   6067   6070   6079   6081     1  0.0000000  0.6508444  3
   6068   6067   6060   6089     1  0.0000000  0.6508444  3
   6068   6067   6070   6079     1  0.0000000  0.6508444  3
   6068   6067   6070   6071     1  0.0000000  0.6508444  3
   6068   6067   6070   6072     1  0.0000000  0.6508444  3
   6069   6067   6060   6089     1  0.0000000  0.6508444  3
   6069   6067   6070   6079     1  0.0000000  0.6508444  3
   6069   6067   6070   6071     1  0.0000000  0.6508444  3
   6069   6067   6070   6072     1  0.0000000  0.6508444  3
   6070   6067   6060   6089     1  0.0000000  0.6508444  3
   6071   6070   6079   6088     1  0.0000000  1.0460000  1
   6071   6070   6079   6088     1  0.0000000  0.0000000  3
   6071   6070   6079   6080     1  0.0000000  0.6508444  3
   6071   6070   6079   6081     1  0.0000000  0.6508444  3
   6072   6070   6079   6088     1  0.0000000  1.0460000  1
   6072   6070   6079   6088     1  0.0000000  0.0000000  3
   6072   6070   6079   6080     1  0.0000000  0.6508444  3
   6072   6070   6079   6081     1  0.0000000  0.6508444  3
   6073   6061   6060   6089     1  0.0000000  0.6508444  3
   6074   6073   6085  11149     1  0.0000000  1.0460000  1
   6074   6073   6085  11149     1  0.0000000  0.0000000  3
   6074   6073   6085   6086     1  0.0000000  0.6508444  3
   6074   6073   6085   6087     1  0.0000000  0.6508444  3
   6075   6073   6085  11149     1  0.0000000  1.0460000  1
   6075   6073   6085  11149     1  0.0000000  0.0000000  3
   6075   6073   6085   6086     1  0.0000000  0.6508444  3
   6075   6073   6085   6087     1  0.0000000  0.6508444  3
   6076   6064   6060   6089     1  0.0000000  0.6508444  3
   6077   6076   6082  11126     1  0.0000000  1.0460000  1
   6077   6076   6082  11126     1  0.0000000  0.0000000  3
   6077   6076   6082   6083     1  0.0000000  0.6508444  3
   6077   6076   6082   6084     1  0.0000000  0.6508444  3
   6078   6076   6082  11126     1  0.0000000  1.0460000  1
   6078   6076   6082  11126     1  0.0000000  0.0000000  3
   6078   6076   6082   6083     1  0.0000000  0.6508444  3
   6078   6076   6082   6084     1  0.0000000  0.6508444  3
   6082  11126  11122  11125     1  0.0000000  1.6038667  3
   6083   6082  11126  11122     1  0.0000000  1.6038667  3
   6084   6082  11126  11122     1  0.0000000  1.6038667  3
   6085  11149  11145  11148     1  0.0000000  1.6038667  3
   6086   6085  11149  11145     1  0.0000000  1.6038667  3
   6087   6085  11149  11145     1  0.0000000  1.6038667  3
   6090   6091   6103   6104     1  0.0000000  0.6508444  3
   6090   6091   6103   6105     1  0.0000000  0.6508444  3
   6090   6094   6106   6107     1  0.0000000  0.6508444  3
   6090   6094   6106   6108     1  0.0000000  0.6508444  3
   6090   6097   6100   6101     1  0.0000000  0.6508444  3
   6090   6097   6100   6102     1  0.0000000  0.6508444  3
   6091   6090   6094   6095     1  0.0000000  0.6508444  3
   6091   6090   6094   6096     1  0.0000000  0.6508444  3
   6091   6090   6097   6098     1  0.0000000  0.6508444  3
   6091   6090   6097   6099     1  0.0000000  0.6508444  3
   6091   6103   6115   6116     1  0.0000000  0.6508444  3
   6091   6103   6115   6117     1  0.0000000  0.6508444  3
   6092   6091   6090   6094     1  0.0000000  0.6508444  3
   6092   6091   6090   6097     1  0.0000000  0.6508444  3
   6092   6091   6090   6119     1  0.0000000  0.6508444  3
   6092   6091   6103   6115     1  0.0000000  0.6508444  3
   6092   6091   6103   6104     1  0.0000000  0.6508444  3
   6092   6091   6103   6105     1  0.0000000  0.6508444  3
   6093   6091   6090   6094     1  0.0000000  0.6508444  3
   6093   6091   6090   6097     1  0.0000000  0.6508444  3
   6093   6091   6090   6119     1  0.0000000  0.6508444  3
   6093   6091   6103   6115     1  0.0000000  0.6508444  3
   6093   6091   6103   6104     1  0.0000000  0.6508444  3
   6093   6091   6103   6105     1  0.0000000  0.6508444  3
   6094   6090   6097   6098     1  0.0000000  0.6508444  3
   6094   6090   6097   6099     1  0.0000000  0.6508444  3
   6094   6106   6112   6113     1  0.0000000  0.6508444  3
   6094   6106   6112   6114     1  0.0000000  0.6508444  3
   6095   6094   6090   6097     1  0.0000000  0.6508444  3
   6095   6094   6090   6119     1  0.0000000  0.6508444  3
   6095   6094   6106   6112     1  0.0000000  0.6508444  3
   6095   6094   6106   6107     1  0.0000000  0.6508444  3
   6095   6094   6106   6108     1  0.0000000  0.6508444  3
   6096   6094   6090   6097     1  0.0000000  0.6508444  3
   6096   6094   6090   6119     1  0.0000000  0.6508444  3
   6096   6094   6106   6112     1  0.0000000  0.6508444  3
   6096   6094   6106   6107     1  0.0000000  0.6508444  3
   6096   6094   6106   6108     1  0.0000000  0.6508444  3
   6097   6100   6109   6110     1  0.0000000  0.6508444  3
   6097   6100   6109   6111     1  0.0000000  0.6508444  3
   6098   6097   6090   6119     1  0.0000000  0.6508444  3
   6098   6097   6100   6109     1  0.0000000  0.6508444  3
   6098   6097   6100   6101     1  0.0000000  0.6508444  3
   6098   6097   6100   6102     1  0.0000000  0.6508444  3
   6099   6097   6090   6119     1  0.0000000  0.6508444  3
   6099   6097   6100   6109     1  0.0000000  0.6508444  3
   6099   6097   6100   6101     1  0.0000000  0.6508444  3
   6099   6097   6100   6102     1  0.0000000  0.6508444  3
   6100   6097   6090   6119     1  0.0000000  0.6508444  3
   6101   6100   6109   6118     1  0.0000000  1.0460000  1
   6101   6100   6109   6118     1  0.0000000  0.0000000  3
   6101   6100   6109   6110     1  0.0000000  0.6508444  3
   6101   6100   6109   6111     1  0.0000000  0.6508444  3
   6102   6100   6109   6118     1  0.0000000  1.0460000  1
   6102   6100   6109   6118     1  0.0000000  0.0000000  3
   6102   6100   6109   6110     1  0.0000000  0.6508444  3
   6102   6100   6109   6111     1  0.0000000  0.6508444  3
   6103   6091   6090   6119     1  0.0000000  0.6508444  3
   6104   6103   6115  11195     1  0.0000000  1.0460000  1
   6104   6103   6115  11195     1  0.0000000  0.0000000  3
   6104   6103   6115   6116     1  0.0000000  0.6508444  3
   6104   6103   6115   6117     1  0.0000000  0.6508444  3
   6105   6103   6115  11195     1  0.0000000  1.0460000  1
   6105   6103   6115  11195     1  0.0000000  0.0000000  3
   6105   6103   6115   6116     1  0.0000000  0.6508444  3
   6105   6103   6115   6117     1  0.0000000  0.6508444  3
   6106   6094   6090   6119     1  0.0000000  0.6508444  3
   6107   6106   6112  11172     1  0.0000000  1.0460000  1
   6107   6106   6112  11172     1  0.0000000  0.0000000  3
   6107   6106   6112   6113     1  0.0000000  0.6508444  3
   6107   6106   6112   6114     1  0.0000000  0.6508444  3
   6108   6106   6112  11172     1  0.0000000  1.0460000  1
   6108   6106   6112  11172     1  0.0000000  0.0000000  3
   6108   6106   6112   6113     1  0.0000000  0.6508444  3
   6108   6106   6112   6114     1  0.0000000  0.6508444  3
   6112  11172  11168  11171     1  0.0000000  1.6038667  3
   6113   6112  11172  11168     1  0.0000000  1.6038667  3
   6114   6112  11172  11168     1  0.0000000  1.6038667  3
   6115  11195  11191  11194     1  0.0000000  1.6038667  3
   6116   6115  11195  11191     1  0.0000000  1.6038667  3
   6117   6115  11195  11191     1  0.0000000  1.6038667  3
   6120   6121   6133   6134     1  0.0000000  0.6508444  3
   6120   6121   6133   6135     1  0.0000000  0.6508444  3
   6120   6124   6136   6137     1  0.0000000  0.6508444  3
   6120   6124   6136   6138     1  0.0000000  0.6508444  3
   6120   6127   6130   6131     1  0.0000000  0.6508444  3
   6120   6127   6130   6132     1  0.0000000  0.6508444  3
   6121   6120   6124   6125     1  0.0000000  0.6508444  3
   6121   6120   6124   6126     1  0.0000000  0.6508444  3
   6121   6120   6127   6128     1  0.0000000  0.6508444  3
   6121   6120   6127   6129     1  0.0000000  0.6508444  3
   6121   6133   6145   6146     1  0.0000000  0.6508444  3
   6121   6133   6145   6147     1  0.0000000  0.6508444  3
   6122   6121   6120   6124     1  0.0000000  0.6508444  3
   6122   6121   6120   6127     1  0.0000000  0.6508444  3
   6122   6121   6120   6149     1  0.0000000  0.6508444  3
   6122   6121   6133   6145     1  0.0000000  0.6508444  3
   6122   6121   6133   6134     1  0.0000000  0.6508444  3
   6122   6121   6133   6135     1  0.0000000  0.6508444  3
   6123   6121   6120   6124     1  0.0000000  0.6508444  3
   6123   6121   6120   6127     1  0.0000000  0.6508444  3
   6123   6121   6120   6149     1  0.0000000  0.6508444  3
   6123   6121   6133   6145     1  0.0000000  0.6508444  3
   6123   6121   6133   6134     1  0.0000000  0.6508444  3
   6123   6121   6133   6135     1  0.0000000  0.6508444  3
   6124   6120   6127   6128     1  0.0000000  0.6508444  3
   6124   6120   6127   6129     1  0.0000000  0.6508444  3
   6124   6136   6142   6143     1  0.0000000  0.6508444  3
   6124   6136   6142   6144     1  0.0000000  0.6508444  3
   6125   6124   6120   6127     1  0.0000000  0.6508444  3
   6125   6124   6120   6149     1  0.0000000  0.6508444  3
   6125   6124   6136   6142     1  0.0000000  0.6508444  3
   6125   6124   6136   6137     1  0.0000000  0.6508444  3
   6125   6124   6136   6138     1  0.0000000  0.6508444  3
   6126   6124   6120   6127     1  0.0000000  0.6508444  3
   6126   6124   6120   6149     1  0.0000000  0.6508444  3
   6126   6124   6136   6142     1  0.0000000  0.6508444  3
   6126   6124   6136   6137     1  0.0000000  0.6508444  3
   6126   6124   6136   6138     1  0.0000000  0.6508444  3
   6127   6130   6139   6140     1  0.0000000  0.6508444  3
   6127   6130   6139   6141     1  0.0000000  0.6508444  3
   6128   6127   6120   6149     1  0.0000000  0.6508444  3
   6128   6127   6130   6139     1  0.0000000  0.6508444  3
   6128   6127   6130   6131     1  0.0000000  0.6508444  3
   6128   6127   6130   6132     1  0.0000000  0.6508444  3
   6129   6127   6120   6149     1  0.0000000  0.6508444  3
   6129   6127   6130   6139     1  0.0000000  0.6508444  3
   6129   6127   6130   6131     1  0.0000000  0.6508444  3
   6129   6127   6130   6132     1  0.0000000  0.6508444  3
   6130   6127   6120   6149     1  0.0000000  0.6508444  3
   6131   6130   6139   6148     1  0.0000000  1.0460000  1
   6131   6130   6139   6148     1  0.0000000  0.0000000  3
   6131   6130   6139   6140     1  0.0000000  0.6508444  3
   6131   6130   6139   6141     1  0.0000000  0.6508444  3
   6132   6130   6139   6148     1  0.0000000  1.0460000  1
   6132   6130   6139   6148     1  0.0000000  0.0000000  3
   6132   6130   6139   6140     1  0.0000000  0.6508444  3
   6132   6130   6139   6141     1  0.0000000  0.6508444  3
   6133   6121   6120   6149     1  0.0000000  0.6508444  3
   6134   6133   6145  11241     1  0.0000000  1.0460000  1
   6134   6133   6145  11241     1  0.0000000  0.0000000  3
   6134   6133   6145   6146     1  0.0000000  0.6508444  3
   6134   6133   6145   6147     1  0.0000000  0.6508444  3
   6135   6133   6145  11241     1  0.0000000  1.0460000  1
   6135   6133   6145  11241     1  0.0000000  0.0000000  3
   6135   6133   6145   6146     1  0.0000000  0.6508444  3
   6135   6133   6145   6147     1  0.0000000  0.6508444  3
   6136   6124   6120   6149     1  0.0000000  0.6508444  3
   6137   6136   6142  11218     1  0.0000000  1.0460000  1
   6137   6136   6142  11218     1  0.0000000  0.0000000  3
   6137   6136   6142   6143     1  0.0000000  0.6508444  3
   6137   6136   6142   6144     1  0.0000000  0.6508444  3
   6138   6136   6142  11218     1  0.0000000  1.0460000  1
   6138   6136   6142  11218     1  0.0000000  0.0000000  3
   6138   6136   6142   6143     1  0.0000000  0.6508444  3
   6138   6136   6142   6144     1  0.0000000  0.6508444  3
   6142  11218  11214  11217     1  0.0000000  1.6038667  3
   6143   6142  11218  11214     1  0.0000000  1.6038667  3
   6144   6142  11218  11214     1  0.0000000  1.6038667  3
   6145  11241  11237  11240     1  0.0000000  1.6038667  3
   6146   6145  11241  11237     1  0.0000000  1.6038667  3
   6147   6145  11241  11237     1  0.0000000  1.6038667  3
   6150   6151   6163   6164     1  0.0000000  0.6508444  3
   6150   6151   6163   6165     1  0.0000000  0.6508444  3
   6150   6154   6166   6167     1  0.0000000  0.6508444  3
   6150   6154   6166   6168     1  0.0000000  0.6508444  3
   6150   6157   6160   6161     1  0.0000000  0.6508444  3
   6150   6157   6160   6162     1  0.0000000  0.6508444  3
   6151   6150   6154   6155     1  0.0000000  0.6508444  3
   6151   6150   6154   6156     1  0.0000000  0.6508444  3
   6151   6150   6157   6158     1  0.0000000  0.6508444  3
   6151   6150   6157   6159     1  0.0000000  0.6508444  3
   6151   6163   6175   6176     1  0.0000000  0.6508444  3
   6151   6163   6175   6177     1  0.0000000  0.6508444  3
   6152   6151   6150   6154     1  0.0000000  0.6508444  3
   6152   6151   6150   6157     1  0.0000000  0.6508444  3
   6152   6151   6150   6179     1  0.0000000  0.6508444  3
   6152   6151   6163   6175     1  0.0000000  0.6508444  3
   6152   6151   6163   6164     1  0.0000000  0.6508444  3
   6152   6151   6163   6165     1  0.0000000  0.6508444  3
   6153   6151   6150   6154     1  0.0000000  0.6508444  3
   6153   6151   6150   6157     1  0.0000000  0.6508444  3
   6153   6151   6150   6179     1  0.0000000  0.6508444  3
   6153   6151   6163   6175     1  0.0000000  0.6508444  3
   6153   6151   6163   6164     1  0.0000000  0.6508444  3
   6153   6151   6163   6165     1  0.0000000  0.6508444  3
   6154   6150   6157   6158     1  0.0000000  0.6508444  3
   6154   6150   6157   6159     1  0.0000000  0.6508444  3
   6154   6166   6172   6173     1  0.0000000  0.6508444  3
   6154   6166   6172   6174     1  0.0000000  0.6508444  3
   6155   6154   6150   6157     1  0.0000000  0.6508444  3
   6155   6154   6150   6179     1  0.0000000  0.6508444  3
   6155   6154   6166   6172     1  0.0000000  0.6508444  3
   6155   6154   6166   6167     1  0.0000000  0.6508444  3
   6155   6154   6166   6168     1  0.0000000  0.6508444  3
   6156   6154   6150   6157     1  0.0000000  0.6508444  3
   6156   6154   6150   6179     1  0.0000000  0.6508444  3
   6156   6154   6166   6172     1  0.0000000  0.6508444  3
   6156   6154   6166   6167     1  0.0000000  0.6508444  3
   6156   6154   6166   6168     1  0.0000000  0.6508444  3
   6157   6160   6169   6170     1  0.0000000  0.6508444  3
   6157   6160   6169   6171     1  0.0000000  0.6508444  3
   6158   6157   6150   6179     1  0.0000000  0.6508444  3
   6158   6157   6160   6169     1  0.0000000  0.6508444  3
   6158   6157   6160   6161     1  0.0000000  0.6508444  3
   6158   6157   6160   6162     1  0.0000000  0.6508444  3
   6159   6157   6150   6179     1  0.0000000  0.6508444  3
   6159   6157   6160   6169     1  0.0000000  0.6508444  3
   6159   6157   6160   6161     1  0.0000000  0.6508444  3
   6159   6157   6160   6162     1  0.0000000  0.6508444  3
   6160   6157   6150   6179     1  0.0000000  0.6508444  3
   6161   6160   6169   6178     1  0.0000000  1.0460000  1
   6161   6160   6169   6178     1  0.0000000  0.0000000  3
   6161   6160   6169   6170     1  0.0000000  0.6508444  3
   6161   6160   6169   6171     1  0.0000000  0.6508444  3
   6162   6160   6169   6178     1  0.0000000  1.0460000  1
   6162   6160   6169   6178     1  0.0000000  0.0000000  3
   6162   6160   6169   6170     1  0.0000000  0.6508444  3
   6162   6160   6169   6171     1  0.0000000  0.6508444  3
   6163   6151   6150   6179     1  0.0000000  0.6508444  3
   6164   6163   6175  11287     1  0.0000000  1.0460000  1
   6164   6163   6175  11287     1  0.0000000  0.0000000  3
   6164   6163   6175   6176     1  0.0000000  0.6508444  3
   6164   6163   6175   6177     1  0.0000000  0.6508444  3
   6165   6163   6175  11287     1  0.0000000  1.0460000  1
   6165   6163   6175  11287     1  0.0000000  0.0000000  3
   6165   6163   6175   6176     1  0.0000000  0.6508444  3
   6165   6163   6175   6177     1  0.0000000  0.6508444  3
   6166   6154   6150   6179     1  0.0000000  0.6508444  3
   6167   6166   6172  11264     1  0.0000000  1.0460000  1
   6167   6166   6172  11264     1  0.0000000  0.0000000  3
   6167   6166   6172   6173     1  0.0000000  0.6508444  3
   6167   6166   6172   6174     1  0.0000000  0.6508444  3
   6168   6166   6172  11264     1  0.0000000  1.0460000  1
   6168   6166   6172  11264     1  0.0000000  0.0000000  3
   6168   6166   6172   6173     1  0.0000000  0.6508444  3
   6168   6166   6172   6174     1  0.0000000  0.6508444  3
   6172  11264  11260  11263     1  0.0000000  1.6038667  3
   6173   6172  11264  11260     1  0.0000000  1.6038667  3
   6174   6172  11264  11260     1  0.0000000  1.6038667  3
   6175  11287  11283  11286     1  0.0000000  1.6038667  3
   6176   6175  11287  11283     1  0.0000000  1.6038667  3
   6177   6175  11287  11283     1  0.0000000  1.6038667  3
   6180   6181   6193   6194     1  0.0000000  0.6508444  3
   6180   6181   6193   6195     1  0.0000000  0.6508444  3
   6180   6184   6196   6197     1  0.0000000  0.6508444  3
   6180   6184   6196   6198     1  0.0000000  0.6508444  3
   6180   6187   6190   6191     1  0.0000000  0.6508444  3
   6180   6187   6190   6192     1  0.0000000  0.6508444  3
   6181   6180   6184   6185     1  0.0000000  0.6508444  3
   6181   6180   6184   6186     1  0.0000000  0.6508444  3
   6181   6180   6187   6188     1  0.0000000  0.6508444  3
   6181   6180   6187   6189     1  0.0000000  0.6508444  3
   6181   6193   6205   6206     1  0.0000000  0.6508444  3
   6181   6193   6205   6207     1  0.0000000  0.6508444  3
   6182   6181   6180   6184     1  0.0000000  0.6508444  3
   6182   6181   6180   6187     1  0.0000000  0.6508444  3
   6182   6181   6180   6209     1  0.0000000  0.6508444  3
   6182   6181   6193   6205     1  0.0000000  0.6508444  3
   6182   6181   6193   6194     1  0.0000000  0.6508444  3
   6182   6181   6193   6195     1  0.0000000  0.6508444  3
   6183   6181   6180   6184     1  0.0000000  0.6508444  3
   6183   6181   6180   6187     1  0.0000000  0.6508444  3
   6183   6181   6180   6209     1  0.0000000  0.6508444  3
   6183   6181   6193   6205     1  0.0000000  0.6508444  3
   6183   6181   6193   6194     1  0.0000000  0.6508444  3
   6183   6181   6193   6195     1  0.0000000  0.6508444  3
   6184   6180   6187   6188     1  0.0000000  0.6508444  3
   6184   6180   6187   6189     1  0.0000000  0.6508444  3
   6184   6196   6202   6203     1  0.0000000  0.6508444  3
   6184   6196   6202   6204     1  0.0000000  0.6508444  3
   6185   6184   6180   6187     1  0.0000000  0.6508444  3
   6185   6184   6180   6209     1  0.0000000  0.6508444  3
   6185   6184   6196   6202     1  0.0000000  0.6508444  3
   6185   6184   6196   6197     1  0.0000000  0.6508444  3
   6185   6184   6196   6198     1  0.0000000  0.6508444  3
   6186   6184   6180   6187     1  0.0000000  0.6508444  3
   6186   6184   6180   6209     1  0.0000000  0.6508444  3
   6186   6184   6196   6202     1  0.0000000  0.6508444  3
   6186   6184   6196   6197     1  0.0000000  0.6508444  3
   6186   6184   6196   6198     1  0.0000000  0.6508444  3
   6187   6190   6199   6200     1  0.0000000  0.6508444  3
   6187   6190   6199   6201     1  0.0000000  0.6508444  3
   6188   6187   6180   6209     1  0.0000000  0.6508444  3
   6188   6187   6190   6199     1  0.0000000  0.6508444  3
   6188   6187   6190   6191     1  0.0000000  0.6508444  3
   6188   6187   6190   6192     1  0.0000000  0.6508444  3
   6189   6187   6180   6209     1  0.0000000  0.6508444  3
   6189   6187   6190   6199     1  0.0000000  0.6508444  3
   6189   6187   6190   6191     1  0.0000000  0.6508444  3
   6189   6187   6190   6192     1  0.0000000  0.6508444  3
   6190   6187   6180   6209     1  0.0000000  0.6508444  3
   6191   6190   6199   6208     1  0.0000000  1.0460000  1
   6191   6190   6199   6208     1  0.0000000  0.0000000  3
   6191   6190   6199   6200     1  0.0000000  0.6508444  3
   6191   6190   6199   6201     1  0.0000000  0.6508444  3
   6192   6190   6199   6208     1  0.0000000  1.0460000  1
   6192   6190   6199   6208     1  0.0000000  0.0000000  3
   6192   6190   6199   6200     1  0.0000000  0.6508444  3
   6192   6190   6199   6201     1  0.0000000  0.6508444  3
   6193   6181   6180   6209     1  0.0000000  0.6508444  3
   6194   6193   6205  11333     1  0.0000000  1.0460000  1
   6194   6193   6205  11333     1  0.0000000  0.0000000  3
   6194   6193   6205   6206     1  0.0000000  0.6508444  3
   6194   6193   6205   6207     1  0.0000000  0.6508444  3
   6195   6193   6205  11333     1  0.0000000  1.0460000  1
   6195   6193   6205  11333     1  0.0000000  0.0000000  3
   6195   6193   6205   6206     1  0.0000000  0.6508444  3
   6195   6193   6205   6207     1  0.0000000  0.6508444  3
   6196   6184   6180   6209     1  0.0000000  0.6508444  3
   6197   6196   6202  11310     1  0.0000000  1.0460000  1
   6197   6196   6202  11310     1  0.0000000  0.0000000  3
   6197   6196   6202   6203     1  0.0000000  0.6508444  3
   6197   6196   6202   6204     1  0.0000000  0.6508444  3
   6198   6196   6202  11310     1  0.0000000  1.0460000  1
   6198   6196   6202  11310     1  0.0000000  0.0000000  3
   6198   6196   6202   6203     1  0.0000000  0.6508444  3
   6198   6196   6202   6204     1  0.0000000  0.6508444  3
   6202  11310  11306  11309     1  0.0000000  1.6038667  3
   6203   6202  11310  11306     1  0.0000000  1.6038667  3
   6204   6202  11310  11306     1  0.0000000  1.6038667  3
   6205  11333  11329  11332     1  0.0000000  1.6038667  3
   6206   6205  11333  11329     1  0.0000000  1.6038667  3
   6207   6205  11333  11329     1  0.0000000  1.6038667  3
   6210   6211   6223   6224     1  0.0000000  0.6508444  3
   6210   6211   6223   6225     1  0.0000000  0.6508444  3
   6210   6214   6226   6227     1  0.0000000  0.6508444  3
   6210   6214   6226   6228     1  0.0000000  0.6508444  3
   6210   6217   6220   6221     1  0.0000000  0.6508444  3
   6210   6217   6220   6222     1  0.0000000  0.6508444  3
   6211   6210   6214   6215     1  0.0000000  0.6508444  3
   6211   6210   6214   6216     1  0.0000000  0.6508444  3
   6211   6210   6217   6218     1  0.0000000  0.6508444  3
   6211   6210   6217   6219     1  0.0000000  0.6508444  3
   6211   6223   6235   6236     1  0.0000000  0.6508444  3
   6211   6223   6235   6237     1  0.0000000  0.6508444  3
   6212   6211   6210   6214     1  0.0000000  0.6508444  3
   6212   6211   6210   6217     1  0.0000000  0.6508444  3
   6212   6211   6210   6239     1  0.0000000  0.6508444  3
   6212   6211   6223   6235     1  0.0000000  0.6508444  3
   6212   6211   6223   6224     1  0.0000000  0.6508444  3
   6212   6211   6223   6225     1  0.0000000  0.6508444  3
   6213   6211   6210   6214     1  0.0000000  0.6508444  3
   6213   6211   6210   6217     1  0.0000000  0.6508444  3
   6213   6211   6210   6239     1  0.0000000  0.6508444  3
   6213   6211   6223   6235     1  0.0000000  0.6508444  3
   6213   6211   6223   6224     1  0.0000000  0.6508444  3
   6213   6211   6223   6225     1  0.0000000  0.6508444  3
   6214   6210   6217   6218     1  0.0000000  0.6508444  3
   6214   6210   6217   6219     1  0.0000000  0.6508444  3
   6214   6226   6232   6233     1  0.0000000  0.6508444  3
   6214   6226   6232   6234     1  0.0000000  0.6508444  3
   6215   6214   6210   6217     1  0.0000000  0.6508444  3
   6215   6214   6210   6239     1  0.0000000  0.6508444  3
   6215   6214   6226   6232     1  0.0000000  0.6508444  3
   6215   6214   6226   6227     1  0.0000000  0.6508444  3
   6215   6214   6226   6228     1  0.0000000  0.6508444  3
   6216   6214   6210   6217     1  0.0000000  0.6508444  3
   6216   6214   6210   6239     1  0.0000000  0.6508444  3
   6216   6214   6226   6232     1  0.0000000  0.6508444  3
   6216   6214   6226   6227     1  0.0000000  0.6508444  3
   6216   6214   6226   6228     1  0.0000000  0.6508444  3
   6217   6220   6229   6230     1  0.0000000  0.6508444  3
   6217   6220   6229   6231     1  0.0000000  0.6508444  3
   6218   6217   6210   6239     1  0.0000000  0.6508444  3
   6218   6217   6220   6229     1  0.0000000  0.6508444  3
   6218   6217   6220   6221     1  0.0000000  0.6508444  3
   6218   6217   6220   6222     1  0.0000000  0.6508444  3
   6219   6217   6210   6239     1  0.0000000  0.6508444  3
   6219   6217   6220   6229     1  0.0000000  0.6508444  3
   6219   6217   6220   6221     1  0.0000000  0.6508444  3
   6219   6217   6220   6222     1  0.0000000  0.6508444  3
   6220   6217   6210   6239     1  0.0000000  0.6508444  3
   6221   6220   6229   6238     1  0.0000000  1.0460000  1
   6221   6220   6229   6238     1  0.0000000  0.0000000  3
   6221   6220   6229   6230     1  0.0000000  0.6508444  3
   6221   6220   6229   6231     1  0.0000000  0.6508444  3
   6222   6220   6229   6238     1  0.0000000  1.0460000  1
   6222   6220   6229   6238     1  0.0000000  0.0000000  3
   6222   6220   6229   6230     1  0.0000000  0.6508444  3
   6222   6220   6229   6231     1  0.0000000  0.6508444  3
   6223   6211   6210   6239     1  0.0000000  0.6508444  3
   6224   6223   6235  11379     1  0.0000000  1.0460000  1
   6224   6223   6235  11379     1  0.0000000  0.0000000  3
   6224   6223   6235   6236     1  0.0000000  0.6508444  3
   6224   6223   6235   6237     1  0.0000000  0.6508444  3
   6225   6223   6235  11379     1  0.0000000  1.0460000  1
   6225   6223   6235  11379     1  0.0000000  0.0000000  3
   6225   6223   6235   6236     1  0.0000000  0.6508444  3
   6225   6223   6235   6237     1  0.0000000  0.6508444  3
   6226   6214   6210   6239     1  0.0000000  0.6508444  3
   6227   6226   6232  11356     1  0.0000000  1.0460000  1
   6227   6226   6232  11356     1  0.0000000  0.0000000  3
   6227   6226   6232   6233     1  0.0000000  0.6508444  3
   6227   6226   6232   6234     1  0.0000000  0.6508444  3
   6228   6226   6232  11356     1  0.0000000  1.0460000  1
   6228   6226   6232  11356     1  0.0000000  0.0000000  3
   6228   6226   6232   6233     1  0.0000000  0.6508444  3
   6228   6226   6232   6234     1  0.0000000  0.6508444  3
   6232  11356  11352  11355     1  0.0000000  1.6038667  3
   6233   6232  11356  11352     1  0.0000000  1.6038667  3
   6234   6232  11356  11352     1  0.0000000  1.6038667  3
   6235  11379  11375  11378     1  0.0000000  1.6038667  3
   6236   6235  11379  11375     1  0.0000000  1.6038667  3
   6237   6235  11379  11375     1  0.0000000  1.6038667  3
   6240   6241   6253   6254     1  0.0000000  0.6508444  3
   6240   6241   6253   6255     1  0.0000000  0.6508444  3
   6240   6244   6256   6257     1  0.0000000  0.6508444  3
   6240   6244   6256   6258     1  0.0000000  0.6508444  3
   6240   6247   6250   6251     1  0.0000000  0.6508444  3
   6240   6247   6250   6252     1  0.0000000  0.6508444  3
   6241   6240   6244   6245     1  0.0000000  0.6508444  3
   6241   6240   6244   6246     1  0.0000000  0.6508444  3
   6241   6240   6247   6248     1  0.0000000  0.6508444  3
   6241   6240   6247   6249     1  0.0000000  0.6508444  3
   6241   6253   6265   6266     1  0.0000000  0.6508444  3
   6241   6253   6265   6267     1  0.0000000  0.6508444  3
   6242   6241   6240   6244     1  0.0000000  0.6508444  3
   6242   6241   6240   6247     1  0.0000000  0.6508444  3
   6242   6241   6240   6269     1  0.0000000  0.6508444  3
   6242   6241   6253   6265     1  0.0000000  0.6508444  3
   6242   6241   6253   6254     1  0.0000000  0.6508444  3
   6242   6241   6253   6255     1  0.0000000  0.6508444  3
   6243   6241   6240   6244     1  0.0000000  0.6508444  3
   6243   6241   6240   6247     1  0.0000000  0.6508444  3
   6243   6241   6240   6269     1  0.0000000  0.6508444  3
   6243   6241   6253   6265     1  0.0000000  0.6508444  3
   6243   6241   6253   6254     1  0.0000000  0.6508444  3
   6243   6241   6253   6255     1  0.0000000  0.6508444  3
   6244   6240   6247   6248     1  0.0000000  0.6508444  3
   6244   6240   6247   6249     1  0.0000000  0.6508444  3
   6244   6256   6262   6263     1  0.0000000  0.6508444  3
   6244   6256   6262   6264     1  0.0000000  0.6508444  3
   6245   6244   6240   6247     1  0.0000000  0.6508444  3
   6245   6244   6240   6269     1  0.0000000  0.6508444  3
   6245   6244   6256   6262     1  0.0000000  0.6508444  3
   6245   6244   6256   6257     1  0.0000000  0.6508444  3
   6245   6244   6256   6258     1  0.0000000  0.6508444  3
   6246   6244   6240   6247     1  0.0000000  0.6508444  3
   6246   6244   6240   6269     1  0.0000000  0.6508444  3
   6246   6244   6256   6262     1  0.0000000  0.6508444  3
   6246   6244   6256   6257     1  0.0000000  0.6508444  3
   6246   6244   6256   6258     1  0.0000000  0.6508444  3
   6247   6250   6259   6260     1  0.0000000  0.6508444  3
   6247   6250   6259   6261     1  0.0000000  0.6508444  3
   6248   6247   6240   6269     1  0.0000000  0.6508444  3
   6248   6247   6250   6259     1  0.0000000  0.6508444  3
   6248   6247   6250   6251     1  0.0000000  0.6508444  3
   6248   6247   6250   6252     1  0.0000000  0.6508444  3
   6249   6247   6240   6269     1  0.0000000  0.6508444  3
   6249   6247   6250   6259     1  0.0000000  0.6508444  3
   6249   6247   6250   6251     1  0.0000000  0.6508444  3
   6249   6247   6250   6252     1  0.0000000  0.6508444  3
   6250   6247   6240   6269     1  0.0000000  0.6508444  3
   6251   6250   6259   6268     1  0.0000000  1.0460000  1
   6251   6250   6259   6268     1  0.0000000  0.0000000  3
   6251   6250   6259   6260     1  0.0000000  0.6508444  3
   6251   6250   6259   6261     1  0.0000000  0.6508444  3
   6252   6250   6259   6268     1  0.0000000  1.0460000  1
   6252   6250   6259   6268     1  0.0000000  0.0000000  3
   6252   6250   6259   6260     1  0.0000000  0.6508444  3
   6252   6250   6259   6261     1  0.0000000  0.6508444  3
   6253   6241   6240   6269     1  0.0000000  0.6508444  3
   6254   6253   6265  11425     1  0.0000000  1.0460000  1
   6254   6253   6265  11425     1  0.0000000  0.0000000  3
   6254   6253   6265   6266     1  0.0000000  0.6508444  3
   6254   6253   6265   6267     1  0.0000000  0.6508444  3
   6255   6253   6265  11425     1  0.0000000  1.0460000  1
   6255   6253   6265  11425     1  0.0000000  0.0000000  3
   6255   6253   6265   6266     1  0.0000000  0.6508444  3
   6255   6253   6265   6267     1  0.0000000  0.6508444  3
   6256   6244   6240   6269     1  0.0000000  0.6508444  3
   6257   6256   6262  11402     1  0.0000000  1.0460000  1
   6257   6256   6262  11402     1  0.0000000  0.0000000  3
   6257   6256   6262   6263     1  0.0000000  0.6508444  3
   6257   6256   6262   6264     1  0.0000000  0.6508444  3
   6258   6256   6262  11402     1  0.0000000  1.0460000  1
   6258   6256   6262  11402     1  0.0000000  0.0000000  3
   6258   6256   6262   6263     1  0.0000000  0.6508444  3
   6258   6256   6262   6264     1  0.0000000  0.6508444  3
   6262  11402  11398  11401     1  0.0000000  1.6038667  3
   6263   6262  11402  11398     1  0.0000000  1.6038667  3
   6264   6262  11402  11398     1  0.0000000  1.6038667  3
   6265  11425  11421  11424     1  0.0000000  1.6038667  3
   6266   6265  11425  11421     1  0.0000000  1.6038667  3
   6267   6265  11425  11421     1  0.0000000  1.6038667  3
   6270   6271   6283   6284     1  0.0000000  0.6508444  3
   6270   6271   6283   6285     1  0.0000000  0.6508444  3
   6270   6274   6286   6287     1  0.0000000  0.6508444  3
   6270   6274   6286   6288     1  0.0000000  0.6508444  3
   6270   6277   6280   6281     1  0.0000000  0.6508444  3
   6270   6277   6280   6282     1  0.0000000  0.6508444  3
   6271   6270   6274   6275     1  0.0000000  0.6508444  3
   6271   6270   6274   6276     1  0.0000000  0.6508444  3
   6271   6270   6277   6278     1  0.0000000  0.6508444  3
   6271   6270   6277   6279     1  0.0000000  0.6508444  3
   6271   6283   6295   6296     1  0.0000000  0.6508444  3
   6271   6283   6295   6297     1  0.0000000  0.6508444  3
   6272   6271   6270   6274     1  0.0000000  0.6508444  3
   6272   6271   6270   6277     1  0.0000000  0.6508444  3
   6272   6271   6270   6299     1  0.0000000  0.6508444  3
   6272   6271   6283   6295     1  0.0000000  0.6508444  3
   6272   6271   6283   6284     1  0.0000000  0.6508444  3
   6272   6271   6283   6285     1  0.0000000  0.6508444  3
   6273   6271   6270   6274     1  0.0000000  0.6508444  3
   6273   6271   6270   6277     1  0.0000000  0.6508444  3
   6273   6271   6270   6299     1  0.0000000  0.6508444  3
   6273   6271   6283   6295     1  0.0000000  0.6508444  3
   6273   6271   6283   6284     1  0.0000000  0.6508444  3
   6273   6271   6283   6285     1  0.0000000  0.6508444  3
   6274   6270   6277   6278     1  0.0000000  0.6508444  3
   6274   6270   6277   6279     1  0.0000000  0.6508444  3
   6274   6286   6292   6293     1  0.0000000  0.6508444  3
   6274   6286   6292   6294     1  0.0000000  0.6508444  3
   6275   6274   6270   6277     1  0.0000000  0.6508444  3
   6275   6274   6270   6299     1  0.0000000  0.6508444  3
   6275   6274   6286   6292     1  0.0000000  0.6508444  3
   6275   6274   6286   6287     1  0.0000000  0.6508444  3
   6275   6274   6286   6288     1  0.0000000  0.6508444  3
   6276   6274   6270   6277     1  0.0000000  0.6508444  3
   6276   6274   6270   6299     1  0.0000000  0.6508444  3
   6276   6274   6286   6292     1  0.0000000  0.6508444  3
   6276   6274   6286   6287     1  0.0000000  0.6508444  3
   6276   6274   6286   6288     1  0.0000000  0.6508444  3
   6277   6280   6289   6290     1  0.0000000  0.6508444  3
   6277   6280   6289   6291     1  0.0000000  0.6508444  3
   6278   6277   6270   6299     1  0.0000000  0.6508444  3
   6278   6277   6280   6289     1  0.0000000  0.6508444  3
   6278   6277   6280   6281     1  0.0000000  0.6508444  3
   6278   6277   6280   6282     1  0.0000000  0.6508444  3
   6279   6277   6270   6299     1  0.0000000  0.6508444  3
   6279   6277   6280   6289     1  0.0000000  0.6508444  3
   6279   6277   6280   6281     1  0.0000000  0.6508444  3
   6279   6277   6280   6282     1  0.0000000  0.6508444  3
   6280   6277   6270   6299     1  0.0000000  0.6508444  3
   6281   6280   6289   6298     1  0.0000000  1.0460000  1
   6281   6280   6289   6298     1  0.0000000  0.0000000  3
   6281   6280   6289   6290     1  0.0000000  0.6508444  3
   6281   6280   6289   6291     1  0.0000000  0.6508444  3
   6282   6280   6289   6298     1  0.0000000  1.0460000  1
   6282   6280   6289   6298     1  0.0000000  0.0000000  3
   6282   6280   6289   6290     1  0.0000000  0.6508444  3
   6282   6280   6289   6291     1  0.0000000  0.6508444  3
   6283   6271   6270   6299     1  0.0000000  0.6508444  3
   6284   6283   6295  11471     1  0.0000000  1.0460000  1
   6284   6283   6295  11471     1  0.0000000  0.0000000  3
   6284   6283   6295   6296     1  0.0000000  0.6508444  3
   6284   6283   6295   6297     1  0.0000000  0.6508444  3
   6285   6283   6295  11471     1  0.0000000  1.0460000  1
   6285   6283   6295  11471     1  0.0000000  0.0000000  3
   6285   6283   6295   6296     1  0.0000000  0.6508444  3
   6285   6283   6295   6297     1  0.0000000  0.6508444  3
   6286   6274   6270   6299     1  0.0000000  0.6508444  3
   6287   6286   6292  11448     1  0.0000000  1.0460000  1
   6287   6286   6292  11448     1  0.0000000  0.0000000  3
   6287   6286   6292   6293     1  0.0000000  0.6508444  3
   6287   6286   6292   6294     1  0.0000000  0.6508444  3
   6288   6286   6292  11448     1  0.0000000  1.0460000  1
   6288   6286   6292  11448     1  0.0000000  0.0000000  3
   6288   6286   6292   6293     1  0.0000000  0.6508444  3
   6288   6286   6292   6294     1  0.0000000  0.6508444  3
   6292  11448  11444  11447     1  0.0000000  1.6038667  3
   6293   6292  11448  11444     1  0.0000000  1.6038667  3
   6294   6292  11448  11444     1  0.0000000  1.6038667  3
   6295  11471  11467  11470     1  0.0000000  1.6038667  3
   6296   6295  11471  11467     1  0.0000000  1.6038667  3
   6297   6295  11471  11467     1  0.0000000  1.6038667  3
   6300   6301   6313   6314     1  0.0000000  0.6508444  3
   6300   6301   6313   6315     1  0.0000000  0.6508444  3
   6300   6304   6316   6317     1  0.0000000  0.6508444  3
   6300   6304   6316   6318     1  0.0000000  0.6508444  3
   6300   6307   6310   6311     1  0.0000000  0.6508444  3
   6300   6307   6310   6312     1  0.0000000  0.6508444  3
   6301   6300   6304   6305     1  0.0000000  0.6508444  3
   6301   6300   6304   6306     1  0.0000000  0.6508444  3
   6301   6300   6307   6308     1  0.0000000  0.6508444  3
   6301   6300   6307   6309     1  0.0000000  0.6508444  3
   6301   6313   6325   6326     1  0.0000000  0.6508444  3
   6301   6313   6325   6327     1  0.0000000  0.6508444  3
   6302   6301   6300   6304     1  0.0000000  0.6508444  3
   6302   6301   6300   6307     1  0.0000000  0.6508444  3
   6302   6301   6300   6329     1  0.0000000  0.6508444  3
   6302   6301   6313   6325     1  0.0000000  0.6508444  3
   6302   6301   6313   6314     1  0.0000000  0.6508444  3
   6302   6301   6313   6315     1  0.0000000  0.6508444  3
   6303   6301   6300   6304     1  0.0000000  0.6508444  3
   6303   6301   6300   6307     1  0.0000000  0.6508444  3
   6303   6301   6300   6329     1  0.0000000  0.6508444  3
   6303   6301   6313   6325     1  0.0000000  0.6508444  3
   6303   6301   6313   6314     1  0.0000000  0.6508444  3
   6303   6301   6313   6315     1  0.0000000  0.6508444  3
   6304   6300   6307   6308     1  0.0000000  0.6508444  3
   6304   6300   6307   6309     1  0.0000000  0.6508444  3
   6304   6316   6322   6323     1  0.0000000  0.6508444  3
   6304   6316   6322   6324     1  0.0000000  0.6508444  3
   6305   6304   6300   6307     1  0.0000000  0.6508444  3
   6305   6304   6300   6329     1  0.0000000  0.6508444  3
   6305   6304   6316   6322     1  0.0000000  0.6508444  3
   6305   6304   6316   6317     1  0.0000000  0.6508444  3
   6305   6304   6316   6318     1  0.0000000  0.6508444  3
   6306   6304   6300   6307     1  0.0000000  0.6508444  3
   6306   6304   6300   6329     1  0.0000000  0.6508444  3
   6306   6304   6316   6322     1  0.0000000  0.6508444  3
   6306   6304   6316   6317     1  0.0000000  0.6508444  3
   6306   6304   6316   6318     1  0.0000000  0.6508444  3
   6307   6310   6319   6320     1  0.0000000  0.6508444  3
   6307   6310   6319   6321     1  0.0000000  0.6508444  3
   6308   6307   6300   6329     1  0.0000000  0.6508444  3
   6308   6307   6310   6319     1  0.0000000  0.6508444  3
   6308   6307   6310   6311     1  0.0000000  0.6508444  3
   6308   6307   6310   6312     1  0.0000000  0.6508444  3
   6309   6307   6300   6329     1  0.0000000  0.6508444  3
   6309   6307   6310   6319     1  0.0000000  0.6508444  3
   6309   6307   6310   6311     1  0.0000000  0.6508444  3
   6309   6307   6310   6312     1  0.0000000  0.6508444  3
   6310   6307   6300   6329     1  0.0000000  0.6508444  3
   6311   6310   6319   6328     1  0.0000000  1.0460000  1
   6311   6310   6319   6328     1  0.0000000  0.0000000  3
   6311   6310   6319   6320     1  0.0000000  0.6508444  3
   6311   6310   6319   6321     1  0.0000000  0.6508444  3
   6312   6310   6319   6328     1  0.0000000  1.0460000  1
   6312   6310   6319   6328     1  0.0000000  0.0000000  3
   6312   6310   6319   6320     1  0.0000000  0.6508444  3
   6312   6310   6319   6321     1  0.0000000  0.6508444  3
   6313   6301   6300   6329     1  0.0000000  0.6508444  3
   6314   6313   6325  11517     1  0.0000000  1.0460000  1
   6314   6313   6325  11517     1  0.0000000  0.0000000  3
   6314   6313   6325   6326     1  0.0000000  0.6508444  3
   6314   6313   6325   6327     1  0.0000000  0.6508444  3
   6315   6313   6325  11517     1  0.0000000  1.0460000  1
   6315   6313   6325  11517     1  0.0000000  0.0000000  3
   6315   6313   6325   6326     1  0.0000000  0.6508444  3
   6315   6313   6325   6327     1  0.0000000  0.6508444  3
   6316   6304   6300   6329     1  0.0000000  0.6508444  3
   6317   6316   6322  11494     1  0.0000000  1.0460000  1
   6317   6316   6322  11494     1  0.0000000  0.0000000  3
   6317   6316   6322   6323     1  0.0000000  0.6508444  3
   6317   6316   6322   6324     1  0.0000000  0.6508444  3
   6318   6316   6322  11494     1  0.0000000  1.0460000  1
   6318   6316   6322  11494     1  0.0000000  0.0000000  3
   6318   6316   6322   6323     1  0.0000000  0.6508444  3
   6318   6316   6322   6324     1  0.0000000  0.6508444  3
   6322  11494  11490  11493     1  0.0000000  1.6038667  3
   6323   6322  11494  11490     1  0.0000000  1.6038667  3
   6324   6322  11494  11490     1  0.0000000  1.6038667  3
   6325  11517  11513  11516     1  0.0000000  1.6038667  3
   6326   6325  11517  11513     1  0.0000000  1.6038667  3
   6327   6325  11517  11513     1  0.0000000  1.6038667  3
   6330   6331   6343   6344     1  0.0000000  0.6508444  3
   6330   6331   6343   6345     1  0.0000000  0.6508444  3
   6330   6334   6346   6347     1  0.0000000  0.6508444  3
   6330   6334   6346   6348     1  0.0000000  0.6508444  3
   6330   6337   6340   6341     1  0.0000000  0.6508444  3
   6330   6337   6340   6342     1  0.0000000  0.6508444  3
   6331   6330   6334   6335     1  0.0000000  0.6508444  3
   6331   6330   6334   6336     1  0.0000000  0.6508444  3
   6331   6330   6337   6338     1  0.0000000  0.6508444  3
   6331   6330   6337   6339     1  0.0000000  0.6508444  3
   6331   6343   6355   6356     1  0.0000000  0.6508444  3
   6331   6343   6355   6357     1  0.0000000  0.6508444  3
   6332   6331   6330   6334     1  0.0000000  0.6508444  3
   6332   6331   6330   6337     1  0.0000000  0.6508444  3
   6332   6331   6330   6359     1  0.0000000  0.6508444  3
   6332   6331   6343   6355     1  0.0000000  0.6508444  3
   6332   6331   6343   6344     1  0.0000000  0.6508444  3
   6332   6331   6343   6345     1  0.0000000  0.6508444  3
   6333   6331   6330   6334     1  0.0000000  0.6508444  3
   6333   6331   6330   6337     1  0.0000000  0.6508444  3
   6333   6331   6330   6359     1  0.0000000  0.6508444  3
   6333   6331   6343   6355     1  0.0000000  0.6508444  3
   6333   6331   6343   6344     1  0.0000000  0.6508444  3
   6333   6331   6343   6345     1  0.0000000  0.6508444  3
   6334   6330   6337   6338     1  0.0000000  0.6508444  3
   6334   6330   6337   6339     1  0.0000000  0.6508444  3
   6334   6346   6352   6353     1  0.0000000  0.6508444  3
   6334   6346   6352   6354     1  0.0000000  0.6508444  3
   6335   6334   6330   6337     1  0.0000000  0.6508444  3
   6335   6334   6330   6359     1  0.0000000  0.6508444  3
   6335   6334   6346   6352     1  0.0000000  0.6508444  3
   6335   6334   6346   6347     1  0.0000000  0.6508444  3
   6335   6334   6346   6348     1  0.0000000  0.6508444  3
   6336   6334   6330   6337     1  0.0000000  0.6508444  3
   6336   6334   6330   6359     1  0.0000000  0.6508444  3
   6336   6334   6346   6352     1  0.0000000  0.6508444  3
   6336   6334   6346   6347     1  0.0000000  0.6508444  3
   6336   6334   6346   6348     1  0.0000000  0.6508444  3
   6337   6340   6349   6350     1  0.0000000  0.6508444  3
   6337   6340   6349   6351     1  0.0000000  0.6508444  3
   6338   6337   6330   6359     1  0.0000000  0.6508444  3
   6338   6337   6340   6349     1  0.0000000  0.6508444  3
   6338   6337   6340   6341     1  0.0000000  0.6508444  3
   6338   6337   6340   6342     1  0.0000000  0.6508444  3
   6339   6337   6330   6359     1  0.0000000  0.6508444  3
   6339   6337   6340   6349     1  0.0000000  0.6508444  3
   6339   6337   6340   6341     1  0.0000000  0.6508444  3
   6339   6337   6340   6342     1  0.0000000  0.6508444  3
   6340   6337   6330   6359     1  0.0000000  0.6508444  3
   6341   6340   6349   6358     1  0.0000000  1.0460000  1
   6341   6340   6349   6358     1  0.0000000  0.0000000  3
   6341   6340   6349   6350     1  0.0000000  0.6508444  3
   6341   6340   6349   6351     1  0.0000000  0.6508444  3
   6342   6340   6349   6358     1  0.0000000  1.0460000  1
   6342   6340   6349   6358     1  0.0000000  0.0000000  3
   6342   6340   6349   6350     1  0.0000000  0.6508444  3
   6342   6340   6349   6351     1  0.0000000  0.6508444  3
   6343   6331   6330   6359     1  0.0000000  0.6508444  3
   6344   6343   6355  11563     1  0.0000000  1.0460000  1
   6344   6343   6355  11563     1  0.0000000  0.0000000  3
   6344   6343   6355   6356     1  0.0000000  0.6508444  3
   6344   6343   6355   6357     1  0.0000000  0.6508444  3
   6345   6343   6355  11563     1  0.0000000  1.0460000  1
   6345   6343   6355  11563     1  0.0000000  0.0000000  3
   6345   6343   6355   6356     1  0.0000000  0.6508444  3
   6345   6343   6355   6357     1  0.0000000  0.6508444  3
   6346   6334   6330   6359     1  0.0000000  0.6508444  3
   6347   6346   6352  11540     1  0.0000000  1.0460000  1
   6347   6346   6352  11540     1  0.0000000  0.0000000  3
   6347   6346   6352   6353     1  0.0000000  0.6508444  3
   6347   6346   6352   6354     1  0.0000000  0.6508444  3
   6348   6346   6352  11540     1  0.0000000  1.0460000  1
   6348   6346   6352  11540     1  0.0000000  0.0000000  3
   6348   6346   6352   6353     1  0.0000000  0.6508444  3
   6348   6346   6352   6354     1  0.0000000  0.6508444  3
   6352  11540  11536  11539     1  0.0000000  1.6038667  3
   6353   6352  11540  11536     1  0.0000000  1.6038667  3
   6354   6352  11540  11536     1  0.0000000  1.6038667  3
   6355  11563  11559  11562     1  0.0000000  1.6038667  3
   6356   6355  11563  11559     1  0.0000000  1.6038667  3
   6357   6355  11563  11559     1  0.0000000  1.6038667  3
   6360   6361   6373   6374     1  0.0000000  0.6508444  3
   6360   6361   6373   6375     1  0.0000000  0.6508444  3
   6360   6364   6376   6377     1  0.0000000  0.6508444  3
   6360   6364   6376   6378     1  0.0000000  0.6508444  3
   6360   6367   6370   6371     1  0.0000000  0.6508444  3
   6360   6367   6370   6372     1  0.0000000  0.6508444  3
   6361   6360   6364   6365     1  0.0000000  0.6508444  3
   6361   6360   6364   6366     1  0.0000000  0.6508444  3
   6361   6360   6367   6368     1  0.0000000  0.6508444  3
   6361   6360   6367   6369     1  0.0000000  0.6508444  3
   6361   6373   6385   6386     1  0.0000000  0.6508444  3
   6361   6373   6385   6387     1  0.0000000  0.6508444  3
   6362   6361   6360   6364     1  0.0000000  0.6508444  3
   6362   6361   6360   6367     1  0.0000000  0.6508444  3
   6362   6361   6360   6389     1  0.0000000  0.6508444  3
   6362   6361   6373   6385     1  0.0000000  0.6508444  3
   6362   6361   6373   6374     1  0.0000000  0.6508444  3
   6362   6361   6373   6375     1  0.0000000  0.6508444  3
   6363   6361   6360   6364     1  0.0000000  0.6508444  3
   6363   6361   6360   6367     1  0.0000000  0.6508444  3
   6363   6361   6360   6389     1  0.0000000  0.6508444  3
   6363   6361   6373   6385     1  0.0000000  0.6508444  3
   6363   6361   6373   6374     1  0.0000000  0.6508444  3
   6363   6361   6373   6375     1  0.0000000  0.6508444  3
   6364   6360   6367   6368     1  0.0000000  0.6508444  3
   6364   6360   6367   6369     1  0.0000000  0.6508444  3
   6364   6376   6382   6383     1  0.0000000  0.6508444  3
   6364   6376   6382   6384     1  0.0000000  0.6508444  3
   6365   6364   6360   6367     1  0.0000000  0.6508444  3
   6365   6364   6360   6389     1  0.0000000  0.6508444  3
   6365   6364   6376   6382     1  0.0000000  0.6508444  3
   6365   6364   6376   6377     1  0.0000000  0.6508444  3
   6365   6364   6376   6378     1  0.0000000  0.6508444  3
   6366   6364   6360   6367     1  0.0000000  0.6508444  3
   6366   6364   6360   6389     1  0.0000000  0.6508444  3
   6366   6364   6376   6382     1  0.0000000  0.6508444  3
   6366   6364   6376   6377     1  0.0000000  0.6508444  3
   6366   6364   6376   6378     1  0.0000000  0.6508444  3
   6367   6370   6379   6380     1  0.0000000  0.6508444  3
   6367   6370   6379   6381     1  0.0000000  0.6508444  3
   6368   6367   6360   6389     1  0.0000000  0.6508444  3
   6368   6367   6370   6379     1  0.0000000  0.6508444  3
   6368   6367   6370   6371     1  0.0000000  0.6508444  3
   6368   6367   6370   6372     1  0.0000000  0.6508444  3
   6369   6367   6360   6389     1  0.0000000  0.6508444  3
   6369   6367   6370   6379     1  0.0000000  0.6508444  3
   6369   6367   6370   6371     1  0.0000000  0.6508444  3
   6369   6367   6370   6372     1  0.0000000  0.6508444  3
   6370   6367   6360   6389     1  0.0000000  0.6508444  3
   6371   6370   6379   6388     1  0.0000000  1.0460000  1
   6371   6370   6379   6388     1  0.0000000  0.0000000  3
   6371   6370   6379   6380     1  0.0000000  0.6508444  3
   6371   6370   6379   6381     1  0.0000000  0.6508444  3
   6372   6370   6379   6388     1  0.0000000  1.0460000  1
   6372   6370   6379   6388     1  0.0000000  0.0000000  3
   6372   6370   6379   6380     1  0.0000000  0.6508444  3
   6372   6370   6379   6381     1  0.0000000  0.6508444  3
   6373   6361   6360   6389     1  0.0000000  0.6508444  3
   6374   6373   6385  11609     1  0.0000000  1.0460000  1
   6374   6373   6385  11609     1  0.0000000  0.0000000  3
   6374   6373   6385   6386     1  0.0000000  0.6508444  3
   6374   6373   6385   6387     1  0.0000000  0.6508444  3
   6375   6373   6385  11609     1  0.0000000  1.0460000  1
   6375   6373   6385  11609     1  0.0000000  0.0000000  3
   6375   6373   6385   6386     1  0.0000000  0.6508444  3
   6375   6373   6385   6387     1  0.0000000  0.6508444  3
   6376   6364   6360   6389     1  0.0000000  0.6508444  3
   6377   6376   6382  11586     1  0.0000000  1.0460000  1
   6377   6376   6382  11586     1  0.0000000  0.0000000  3
   6377   6376   6382   6383     1  0.0000000  0.6508444  3
   6377   6376   6382   6384     1  0.0000000  0.6508444  3
   6378   6376   6382  11586     1  0.0000000  1.0460000  1
   6378   6376   6382  11586     1  0.0000000  0.0000000  3
   6378   6376   6382   6383     1  0.0000000  0.6508444  3
   6378   6376   6382   6384     1  0.0000000  0.6508444  3
   6382  11586  11582  11585     1  0.0000000  1.6038667  3
   6383   6382  11586  11582     1  0.0000000  1.6038667  3
   6384   6382  11586  11582     1  0.0000000  1.6038667  3
   6385  11609  11605  11608     1  0.0000000  1.6038667  3
   6386   6385  11609  11605     1  0.0000000  1.6038667  3
   6387   6385  11609  11605     1  0.0000000  1.6038667  3
   6390   6391   6403   6404     1  0.0000000  0.6508444  3
   6390   6391   6403   6405     1  0.0000000  0.6508444  3
   6390   6394   6406   6407     1  0.0000000  0.6508444  3
   6390   6394   6406   6408     1  0.0000000  0.6508444  3
   6390   6397   6400   6401     1  0.0000000  0.6508444  3
   6390   6397   6400   6402     1  0.0000000  0.6508444  3
   6391   6390   6394   6395     1  0.0000000  0.6508444  3
   6391   6390   6394   6396     1  0.0000000  0.6508444  3
   6391   6390   6397   6398     1  0.0000000  0.6508444  3
   6391   6390   6397   6399     1  0.0000000  0.6508444  3
   6391   6403   6415   6416     1  0.0000000  0.6508444  3
   6391   6403   6415   6417     1  0.0000000  0.6508444  3
   6392   6391   6390   6394     1  0.0000000  0.6508444  3
   6392   6391   6390   6397     1  0.0000000  0.6508444  3
   6392   6391   6390   6419     1  0.0000000  0.6508444  3
   6392   6391   6403   6415     1  0.0000000  0.6508444  3
   6392   6391   6403   6404     1  0.0000000  0.6508444  3
   6392   6391   6403   6405     1  0.0000000  0.6508444  3
   6393   6391   6390   6394     1  0.0000000  0.6508444  3
   6393   6391   6390   6397     1  0.0000000  0.6508444  3
   6393   6391   6390   6419     1  0.0000000  0.6508444  3
   6393   6391   6403   6415     1  0.0000000  0.6508444  3
   6393   6391   6403   6404     1  0.0000000  0.6508444  3
   6393   6391   6403   6405     1  0.0000000  0.6508444  3
   6394   6390   6397   6398     1  0.0000000  0.6508444  3
   6394   6390   6397   6399     1  0.0000000  0.6508444  3
   6394   6406   6412   6413     1  0.0000000  0.6508444  3
   6394   6406   6412   6414     1  0.0000000  0.6508444  3
   6395   6394   6390   6397     1  0.0000000  0.6508444  3
   6395   6394   6390   6419     1  0.0000000  0.6508444  3
   6395   6394   6406   6412     1  0.0000000  0.6508444  3
   6395   6394   6406   6407     1  0.0000000  0.6508444  3
   6395   6394   6406   6408     1  0.0000000  0.6508444  3
   6396   6394   6390   6397     1  0.0000000  0.6508444  3
   6396   6394   6390   6419     1  0.0000000  0.6508444  3
   6396   6394   6406   6412     1  0.0000000  0.6508444  3
   6396   6394   6406   6407     1  0.0000000  0.6508444  3
   6396   6394   6406   6408     1  0.0000000  0.6508444  3
   6397   6400   6409   6410     1  0.0000000  0.6508444  3
   6397   6400   6409   6411     1  0.0000000  0.6508444  3
   6398   6397   6390   6419     1  0.0000000  0.6508444  3
   6398   6397   6400   6409     1  0.0000000  0.6508444  3
   6398   6397   6400   6401     1  0.0000000  0.6508444  3
   6398   6397   6400   6402     1  0.0000000  0.6508444  3
   6399   6397   6390   6419     1  0.0000000  0.6508444  3
   6399   6397   6400   6409     1  0.0000000  0.6508444  3
   6399   6397   6400   6401     1  0.0000000  0.6508444  3
   6399   6397   6400   6402     1  0.0000000  0.6508444  3
   6400   6397   6390   6419     1  0.0000000  0.6508444  3
   6401   6400   6409   6418     1  0.0000000  1.0460000  1
   6401   6400   6409   6418     1  0.0000000  0.0000000  3
   6401   6400   6409   6410     1  0.0000000  0.6508444  3
   6401   6400   6409   6411     1  0.0000000  0.6508444  3
   6402   6400   6409   6418     1  0.0000000  1.0460000  1
   6402   6400   6409   6418     1  0.0000000  0.0000000  3
   6402   6400   6409   6410     1  0.0000000  0.6508444  3
   6402   6400   6409   6411     1  0.0000000  0.6508444  3
   6403   6391   6390   6419     1  0.0000000  0.6508444  3
   6404   6403   6415  11655     1  0.0000000  1.0460000  1
   6404   6403   6415  11655     1  0.0000000  0.0000000  3
   6404   6403   6415   6416     1  0.0000000  0.6508444  3
   6404   6403   6415   6417     1  0.0000000  0.6508444  3
   6405   6403   6415  11655     1  0.0000000  1.0460000  1
   6405   6403   6415  11655     1  0.0000000  0.0000000  3
   6405   6403   6415   6416     1  0.0000000  0.6508444  3
   6405   6403   6415   6417     1  0.0000000  0.6508444  3
   6406   6394   6390   6419     1  0.0000000  0.6508444  3
   6407   6406   6412  11632     1  0.0000000  1.0460000  1
   6407   6406   6412  11632     1  0.0000000  0.0000000  3
   6407   6406   6412   6413     1  0.0000000  0.6508444  3
   6407   6406   6412   6414     1  0.0000000  0.6508444  3
   6408   6406   6412  11632     1  0.0000000  1.0460000  1
   6408   6406   6412  11632     1  0.0000000  0.0000000  3
   6408   6406   6412   6413     1  0.0000000  0.6508444  3
   6408   6406   6412   6414     1  0.0000000  0.6508444  3
   6412  11632  11628  11631     1  0.0000000  1.6038667  3
   6413   6412  11632  11628     1  0.0000000  1.6038667  3
   6414   6412  11632  11628     1  0.0000000  1.6038667  3
   6415  11655  11651  11654     1  0.0000000  1.6038667  3
   6416   6415  11655  11651     1  0.0000000  1.6038667  3
   6417   6415  11655  11651     1  0.0000000  1.6038667  3
   6420   6421   6433   6434     1  0.0000000  0.6508444  3
   6420   6421   6433   6435     1  0.0000000  0.6508444  3
   6420   6424   6436   6437     1  0.0000000  0.6508444  3
   6420   6424   6436   6438     1  0.0000000  0.6508444  3
   6420   6427   6430   6431     1  0.0000000  0.6508444  3
   6420   6427   6430   6432     1  0.0000000  0.6508444  3
   6421   6420   6424   6425     1  0.0000000  0.6508444  3
   6421   6420   6424   6426     1  0.0000000  0.6508444  3
   6421   6420   6427   6428     1  0.0000000  0.6508444  3
   6421   6420   6427   6429     1  0.0000000  0.6508444  3
   6421   6433   6445   6446     1  0.0000000  0.6508444  3
   6421   6433   6445   6447     1  0.0000000  0.6508444  3
   6422   6421   6420   6424     1  0.0000000  0.6508444  3
   6422   6421   6420   6427     1  0.0000000  0.6508444  3
   6422   6421   6420   6449     1  0.0000000  0.6508444  3
   6422   6421   6433   6445     1  0.0000000  0.6508444  3
   6422   6421   6433   6434     1  0.0000000  0.6508444  3
   6422   6421   6433   6435     1  0.0000000  0.6508444  3
   6423   6421   6420   6424     1  0.0000000  0.6508444  3
   6423   6421   6420   6427     1  0.0000000  0.6508444  3
   6423   6421   6420   6449     1  0.0000000  0.6508444  3
   6423   6421   6433   6445     1  0.0000000  0.6508444  3
   6423   6421   6433   6434     1  0.0000000  0.6508444  3
   6423   6421   6433   6435     1  0.0000000  0.6508444  3
   6424   6420   6427   6428     1  0.0000000  0.6508444  3
   6424   6420   6427   6429     1  0.0000000  0.6508444  3
   6424   6436   6442   6443     1  0.0000000  0.6508444  3
   6424   6436   6442   6444     1  0.0000000  0.6508444  3
   6425   6424   6420   6427     1  0.0000000  0.6508444  3
   6425   6424   6420   6449     1  0.0000000  0.6508444  3
   6425   6424   6436   6442     1  0.0000000  0.6508444  3
   6425   6424   6436   6437     1  0.0000000  0.6508444  3
   6425   6424   6436   6438     1  0.0000000  0.6508444  3
   6426   6424   6420   6427     1  0.0000000  0.6508444  3
   6426   6424   6420   6449     1  0.0000000  0.6508444  3
   6426   6424   6436   6442     1  0.0000000  0.6508444  3
   6426   6424   6436   6437     1  0.0000000  0.6508444  3
   6426   6424   6436   6438     1  0.0000000  0.6508444  3
   6427   6430   6439   6440     1  0.0000000  0.6508444  3
   6427   6430   6439   6441     1  0.0000000  0.6508444  3
   6428   6427   6420   6449     1  0.0000000  0.6508444  3
   6428   6427   6430   6439     1  0.0000000  0.6508444  3
   6428   6427   6430   6431     1  0.0000000  0.6508444  3
   6428   6427   6430   6432     1  0.0000000  0.6508444  3
   6429   6427   6420   6449     1  0.0000000  0.6508444  3
   6429   6427   6430   6439     1  0.0000000  0.6508444  3
   6429   6427   6430   6431     1  0.0000000  0.6508444  3
   6429   6427   6430   6432     1  0.0000000  0.6508444  3
   6430   6427   6420   6449     1  0.0000000  0.6508444  3
   6431   6430   6439   6448     1  0.0000000  1.0460000  1
   6431   6430   6439   6448     1  0.0000000  0.0000000  3
   6431   6430   6439   6440     1  0.0000000  0.6508444  3
   6431   6430   6439   6441     1  0.0000000  0.6508444  3
   6432   6430   6439   6448     1  0.0000000  1.0460000  1
   6432   6430   6439   6448     1  0.0000000  0.0000000  3
   6432   6430   6439   6440     1  0.0000000  0.6508444  3
   6432   6430   6439   6441     1  0.0000000  0.6508444  3
   6433   6421   6420   6449     1  0.0000000  0.6508444  3
   6434   6433   6445  11701     1  0.0000000  1.0460000  1
   6434   6433   6445  11701     1  0.0000000  0.0000000  3
   6434   6433   6445   6446     1  0.0000000  0.6508444  3
   6434   6433   6445   6447     1  0.0000000  0.6508444  3
   6435   6433   6445  11701     1  0.0000000  1.0460000  1
   6435   6433   6445  11701     1  0.0000000  0.0000000  3
   6435   6433   6445   6446     1  0.0000000  0.6508444  3
   6435   6433   6445   6447     1  0.0000000  0.6508444  3
   6436   6424   6420   6449     1  0.0000000  0.6508444  3
   6437   6436   6442  11678     1  0.0000000  1.0460000  1
   6437   6436   6442  11678     1  0.0000000  0.0000000  3
   6437   6436   6442   6443     1  0.0000000  0.6508444  3
   6437   6436   6442   6444     1  0.0000000  0.6508444  3
   6438   6436   6442  11678     1  0.0000000  1.0460000  1
   6438   6436   6442  11678     1  0.0000000  0.0000000  3
   6438   6436   6442   6443     1  0.0000000  0.6508444  3
   6438   6436   6442   6444     1  0.0000000  0.6508444  3
   6442  11678  11674  11677     1  0.0000000  1.6038667  3
   6443   6442  11678  11674     1  0.0000000  1.6038667  3
   6444   6442  11678  11674     1  0.0000000  1.6038667  3
   6445  11701  11697  11700     1  0.0000000  1.6038667  3
   6446   6445  11701  11697     1  0.0000000  1.6038667  3
   6447   6445  11701  11697     1  0.0000000  1.6038667  3
   6450   6451   6463   6464     1  0.0000000  0.6508444  3
   6450   6451   6463   6465     1  0.0000000  0.6508444  3
   6450   6454   6466   6467     1  0.0000000  0.6508444  3
   6450   6454   6466   6468     1  0.0000000  0.6508444  3
   6450   6457   6460   6461     1  0.0000000  0.6508444  3
   6450   6457   6460   6462     1  0.0000000  0.6508444  3
   6451   6450   6454   6455     1  0.0000000  0.6508444  3
   6451   6450   6454   6456     1  0.0000000  0.6508444  3
   6451   6450   6457   6458     1  0.0000000  0.6508444  3
   6451   6450   6457   6459     1  0.0000000  0.6508444  3
   6451   6463   6475   6476     1  0.0000000  0.6508444  3
   6451   6463   6475   6477     1  0.0000000  0.6508444  3
   6452   6451   6450   6454     1  0.0000000  0.6508444  3
   6452   6451   6450   6457     1  0.0000000  0.6508444  3
   6452   6451   6450   6479     1  0.0000000  0.6508444  3
   6452   6451   6463   6475     1  0.0000000  0.6508444  3
   6452   6451   6463   6464     1  0.0000000  0.6508444  3
   6452   6451   6463   6465     1  0.0000000  0.6508444  3
   6453   6451   6450   6454     1  0.0000000  0.6508444  3
   6453   6451   6450   6457     1  0.0000000  0.6508444  3
   6453   6451   6450   6479     1  0.0000000  0.6508444  3
   6453   6451   6463   6475     1  0.0000000  0.6508444  3
   6453   6451   6463   6464     1  0.0000000  0.6508444  3
   6453   6451   6463   6465     1  0.0000000  0.6508444  3
   6454   6450   6457   6458     1  0.0000000  0.6508444  3
   6454   6450   6457   6459     1  0.0000000  0.6508444  3
   6454   6466   6472   6473     1  0.0000000  0.6508444  3
   6454   6466   6472   6474     1  0.0000000  0.6508444  3
   6455   6454   6450   6457     1  0.0000000  0.6508444  3
   6455   6454   6450   6479     1  0.0000000  0.6508444  3
   6455   6454   6466   6472     1  0.0000000  0.6508444  3
   6455   6454   6466   6467     1  0.0000000  0.6508444  3
   6455   6454   6466   6468     1  0.0000000  0.6508444  3
   6456   6454   6450   6457     1  0.0000000  0.6508444  3
   6456   6454   6450   6479     1  0.0000000  0.6508444  3
   6456   6454   6466   6472     1  0.0000000  0.6508444  3
   6456   6454   6466   6467     1  0.0000000  0.6508444  3
   6456   6454   6466   6468     1  0.0000000  0.6508444  3
   6457   6460   6469   6470     1  0.0000000  0.6508444  3
   6457   6460   6469   6471     1  0.0000000  0.6508444  3
   6458   6457   6450   6479     1  0.0000000  0.6508444  3
   6458   6457   6460   6469     1  0.0000000  0.6508444  3
   6458   6457   6460   6461     1  0.0000000  0.6508444  3
   6458   6457   6460   6462     1  0.0000000  0.6508444  3
   6459   6457   6450   6479     1  0.0000000  0.6508444  3
   6459   6457   6460   6469     1  0.0000000  0.6508444  3
   6459   6457   6460   6461     1  0.0000000  0.6508444  3
   6459   6457   6460   6462     1  0.0000000  0.6508444  3
   6460   6457   6450   6479     1  0.0000000  0.6508444  3
   6461   6460   6469   6478     1  0.0000000  1.0460000  1
   6461   6460   6469   6478     1  0.0000000  0.0000000  3
   6461   6460   6469   6470     1  0.0000000  0.6508444  3
   6461   6460   6469   6471     1  0.0000000  0.6508444  3
   6462   6460   6469   6478     1  0.0000000  1.0460000  1
   6462   6460   6469   6478     1  0.0000000  0.0000000  3
   6462   6460   6469   6470     1  0.0000000  0.6508444  3
   6462   6460   6469   6471     1  0.0000000  0.6508444  3
   6463   6451   6450   6479     1  0.0000000  0.6508444  3
   6464   6463   6475  11747     1  0.0000000  1.0460000  1
   6464   6463   6475  11747     1  0.0000000  0.0000000  3
   6464   6463   6475   6476     1  0.0000000  0.6508444  3
   6464   6463   6475   6477     1  0.0000000  0.6508444  3
   6465   6463   6475  11747     1  0.0000000  1.0460000  1
   6465   6463   6475  11747     1  0.0000000  0.0000000  3
   6465   6463   6475   6476     1  0.0000000  0.6508444  3
   6465   6463   6475   6477     1  0.0000000  0.6508444  3
   6466   6454   6450   6479     1  0.0000000  0.6508444  3
   6467   6466   6472  11724     1  0.0000000  1.0460000  1
   6467   6466   6472  11724     1  0.0000000  0.0000000  3
   6467   6466   6472   6473     1  0.0000000  0.6508444  3
   6467   6466   6472   6474     1  0.0000000  0.6508444  3
   6468   6466   6472  11724     1  0.0000000  1.0460000  1
   6468   6466   6472  11724     1  0.0000000  0.0000000  3
   6468   6466   6472   6473     1  0.0000000  0.6508444  3
   6468   6466   6472   6474     1  0.0000000  0.6508444  3
   6472  11724  11720  11723     1  0.0000000  1.6038667  3
   6473   6472  11724  11720     1  0.0000000  1.6038667  3
   6474   6472  11724  11720     1  0.0000000  1.6038667  3
   6475  11747  11743  11746     1  0.0000000  1.6038667  3
   6476   6475  11747  11743     1  0.0000000  1.6038667  3
   6477   6475  11747  11743     1  0.0000000  1.6038667  3
   6480   6481   6493   6494     1  0.0000000  0.6508444  3
   6480   6481   6493   6495     1  0.0000000  0.6508444  3
   6480   6484   6496   6497     1  0.0000000  0.6508444  3
   6480   6484   6496   6498     1  0.0000000  0.6508444  3
   6480   6487   6490   6491     1  0.0000000  0.6508444  3
   6480   6487   6490   6492     1  0.0000000  0.6508444  3
   6481   6480   6484   6485     1  0.0000000  0.6508444  3
   6481   6480   6484   6486     1  0.0000000  0.6508444  3
   6481   6480   6487   6488     1  0.0000000  0.6508444  3
   6481   6480   6487   6489     1  0.0000000  0.6508444  3
   6481   6493   6505   6506     1  0.0000000  0.6508444  3
   6481   6493   6505   6507     1  0.0000000  0.6508444  3
   6482   6481   6480   6484     1  0.0000000  0.6508444  3
   6482   6481   6480   6487     1  0.0000000  0.6508444  3
   6482   6481   6480   6509     1  0.0000000  0.6508444  3
   6482   6481   6493   6505     1  0.0000000  0.6508444  3
   6482   6481   6493   6494     1  0.0000000  0.6508444  3
   6482   6481   6493   6495     1  0.0000000  0.6508444  3
   6483   6481   6480   6484     1  0.0000000  0.6508444  3
   6483   6481   6480   6487     1  0.0000000  0.6508444  3
   6483   6481   6480   6509     1  0.0000000  0.6508444  3
   6483   6481   6493   6505     1  0.0000000  0.6508444  3
   6483   6481   6493   6494     1  0.0000000  0.6508444  3
   6483   6481   6493   6495     1  0.0000000  0.6508444  3
   6484   6480   6487   6488     1  0.0000000  0.6508444  3
   6484   6480   6487   6489     1  0.0000000  0.6508444  3
   6484   6496   6502   6503     1  0.0000000  0.6508444  3
   6484   6496   6502   6504     1  0.0000000  0.6508444  3
   6485   6484   6480   6487     1  0.0000000  0.6508444  3
   6485   6484   6480   6509     1  0.0000000  0.6508444  3
   6485   6484   6496   6502     1  0.0000000  0.6508444  3
   6485   6484   6496   6497     1  0.0000000  0.6508444  3
   6485   6484   6496   6498     1  0.0000000  0.6508444  3
   6486   6484   6480   6487     1  0.0000000  0.6508444  3
   6486   6484   6480   6509     1  0.0000000  0.6508444  3
   6486   6484   6496   6502     1  0.0000000  0.6508444  3
   6486   6484   6496   6497     1  0.0000000  0.6508444  3
   6486   6484   6496   6498     1  0.0000000  0.6508444  3
   6487   6490   6499   6500     1  0.0000000  0.6508444  3
   6487   6490   6499   6501     1  0.0000000  0.6508444  3
   6488   6487   6480   6509     1  0.0000000  0.6508444  3
   6488   6487   6490   6499     1  0.0000000  0.6508444  3
   6488   6487   6490   6491     1  0.0000000  0.6508444  3
   6488   6487   6490   6492     1  0.0000000  0.6508444  3
   6489   6487   6480   6509     1  0.0000000  0.6508444  3
   6489   6487   6490   6499     1  0.0000000  0.6508444  3
   6489   6487   6490   6491     1  0.0000000  0.6508444  3
   6489   6487   6490   6492     1  0.0000000  0.6508444  3
   6490   6487   6480   6509     1  0.0000000  0.6508444  3
   6491   6490   6499   6508     1  0.0000000  1.0460000  1
   6491   6490   6499   6508     1  0.0000000  0.0000000  3
   6491   6490   6499   6500     1  0.0000000  0.6508444  3
   6491   6490   6499   6501     1  0.0000000  0.6508444  3
   6492   6490   6499   6508     1  0.0000000  1.0460000  1
   6492   6490   6499   6508     1  0.0000000  0.0000000  3
   6492   6490   6499   6500     1  0.0000000  0.6508444  3
   6492   6490   6499   6501     1  0.0000000  0.6508444  3
   6493   6481   6480   6509     1  0.0000000  0.6508444  3
   6494   6493   6505  11793     1  0.0000000  1.0460000  1
   6494   6493   6505  11793     1  0.0000000  0.0000000  3
   6494   6493   6505   6506     1  0.0000000  0.6508444  3
   6494   6493   6505   6507     1  0.0000000  0.6508444  3
   6495   6493   6505  11793     1  0.0000000  1.0460000  1
   6495   6493   6505  11793     1  0.0000000  0.0000000  3
   6495   6493   6505   6506     1  0.0000000  0.6508444  3
   6495   6493   6505   6507     1  0.0000000  0.6508444  3
   6496   6484   6480   6509     1  0.0000000  0.6508444  3
   6497   6496   6502  11770     1  0.0000000  1.0460000  1
   6497   6496   6502  11770     1  0.0000000  0.0000000  3
   6497   6496   6502   6503     1  0.0000000  0.6508444  3
   6497   6496   6502   6504     1  0.0000000  0.6508444  3
   6498   6496   6502  11770     1  0.0000000  1.0460000  1
   6498   6496   6502  11770     1  0.0000000  0.0000000  3
   6498   6496   6502   6503     1  0.0000000  0.6508444  3
   6498   6496   6502   6504     1  0.0000000  0.6508444  3
   6502  11770  11766  11769     1  0.0000000  1.6038667  3
   6503   6502  11770  11766     1  0.0000000  1.6038667  3
   6504   6502  11770  11766     1  0.0000000  1.6038667  3
   6505  11793  11789  11792     1  0.0000000  1.6038667  3
   6506   6505  11793  11789     1  0.0000000  1.6038667  3
   6507   6505  11793  11789     1  0.0000000  1.6038667  3
   6510   6511   6523   6524     1  0.0000000  0.6508444  3
   6510   6511   6523   6525     1  0.0000000  0.6508444  3
   6510   6514   6526   6527     1  0.0000000  0.6508444  3
   6510   6514   6526   6528     1  0.0000000  0.6508444  3
   6510   6517   6520   6521     1  0.0000000  0.6508444  3
   6510   6517   6520   6522     1  0.0000000  0.6508444  3
   6511   6510   6514   6515     1  0.0000000  0.6508444  3
   6511   6510   6514   6516     1  0.0000000  0.6508444  3
   6511   6510   6517   6518     1  0.0000000  0.6508444  3
   6511   6510   6517   6519     1  0.0000000  0.6508444  3
   6511   6523   6535   6536     1  0.0000000  0.6508444  3
   6511   6523   6535   6537     1  0.0000000  0.6508444  3
   6512   6511   6510   6514     1  0.0000000  0.6508444  3
   6512   6511   6510   6517     1  0.0000000  0.6508444  3
   6512   6511   6510   6539     1  0.0000000  0.6508444  3
   6512   6511   6523   6535     1  0.0000000  0.6508444  3
   6512   6511   6523   6524     1  0.0000000  0.6508444  3
   6512   6511   6523   6525     1  0.0000000  0.6508444  3
   6513   6511   6510   6514     1  0.0000000  0.6508444  3
   6513   6511   6510   6517     1  0.0000000  0.6508444  3
   6513   6511   6510   6539     1  0.0000000  0.6508444  3
   6513   6511   6523   6535     1  0.0000000  0.6508444  3
   6513   6511   6523   6524     1  0.0000000  0.6508444  3
   6513   6511   6523   6525     1  0.0000000  0.6508444  3
   6514   6510   6517   6518     1  0.0000000  0.6508444  3
   6514   6510   6517   6519     1  0.0000000  0.6508444  3
   6514   6526   6532   6533     1  0.0000000  0.6508444  3
   6514   6526   6532   6534     1  0.0000000  0.6508444  3
   6515   6514   6510   6517     1  0.0000000  0.6508444  3
   6515   6514   6510   6539     1  0.0000000  0.6508444  3
   6515   6514   6526   6532     1  0.0000000  0.6508444  3
   6515   6514   6526   6527     1  0.0000000  0.6508444  3
   6515   6514   6526   6528     1  0.0000000  0.6508444  3
   6516   6514   6510   6517     1  0.0000000  0.6508444  3
   6516   6514   6510   6539     1  0.0000000  0.6508444  3
   6516   6514   6526   6532     1  0.0000000  0.6508444  3
   6516   6514   6526   6527     1  0.0000000  0.6508444  3
   6516   6514   6526   6528     1  0.0000000  0.6508444  3
   6517   6520   6529   6530     1  0.0000000  0.6508444  3
   6517   6520   6529   6531     1  0.0000000  0.6508444  3
   6518   6517   6510   6539     1  0.0000000  0.6508444  3
   6518   6517   6520   6529     1  0.0000000  0.6508444  3
   6518   6517   6520   6521     1  0.0000000  0.6508444  3
   6518   6517   6520   6522     1  0.0000000  0.6508444  3
   6519   6517   6510   6539     1  0.0000000  0.6508444  3
   6519   6517   6520   6529     1  0.0000000  0.6508444  3
   6519   6517   6520   6521     1  0.0000000  0.6508444  3
   6519   6517   6520   6522     1  0.0000000  0.6508444  3
   6520   6517   6510   6539     1  0.0000000  0.6508444  3
   6521   6520   6529   6538     1  0.0000000  1.0460000  1
   6521   6520   6529   6538     1  0.0000000  0.0000000  3
   6521   6520   6529   6530     1  0.0000000  0.6508444  3
   6521   6520   6529   6531     1  0.0000000  0.6508444  3
   6522   6520   6529   6538     1  0.0000000  1.0460000  1
   6522   6520   6529   6538     1  0.0000000  0.0000000  3
   6522   6520   6529   6530     1  0.0000000  0.6508444  3
   6522   6520   6529   6531     1  0.0000000  0.6508444  3
   6523   6511   6510   6539     1  0.0000000  0.6508444  3
   6524   6523   6535  11839     1  0.0000000  1.0460000  1
   6524   6523   6535  11839     1  0.0000000  0.0000000  3
   6524   6523   6535   6536     1  0.0000000  0.6508444  3
   6524   6523   6535   6537     1  0.0000000  0.6508444  3
   6525   6523   6535  11839     1  0.0000000  1.0460000  1
   6525   6523   6535  11839     1  0.0000000  0.0000000  3
   6525   6523   6535   6536     1  0.0000000  0.6508444  3
   6525   6523   6535   6537     1  0.0000000  0.6508444  3
   6526   6514   6510   6539     1  0.0000000  0.6508444  3
   6527   6526   6532  11816     1  0.0000000  1.0460000  1
   6527   6526   6532  11816     1  0.0000000  0.0000000  3
   6527   6526   6532   6533     1  0.0000000  0.6508444  3
   6527   6526   6532   6534     1  0.0000000  0.6508444  3
   6528   6526   6532  11816     1  0.0000000  1.0460000  1
   6528   6526   6532  11816     1  0.0000000  0.0000000  3
   6528   6526   6532   6533     1  0.0000000  0.6508444  3
   6528   6526   6532   6534     1  0.0000000  0.6508444  3
   6532  11816  11812  11815     1  0.0000000  1.6038667  3
   6533   6532  11816  11812     1  0.0000000  1.6038667  3
   6534   6532  11816  11812     1  0.0000000  1.6038667  3
   6535  11839  11835  11838     1  0.0000000  1.6038667  3
   6536   6535  11839  11835     1  0.0000000  1.6038667  3
   6537   6535  11839  11835     1  0.0000000  1.6038667  3
   6540   6541   6553   6554     1  0.0000000  0.6508444  3
   6540   6541   6553   6555     1  0.0000000  0.6508444  3
   6540   6544   6556   6557     1  0.0000000  0.6508444  3
   6540   6544   6556   6558     1  0.0000000  0.6508444  3
   6540   6547   6550   6551     1  0.0000000  0.6508444  3
   6540   6547   6550   6552     1  0.0000000  0.6508444  3
   6541   6540   6544   6545     1  0.0000000  0.6508444  3
   6541   6540   6544   6546     1  0.0000000  0.6508444  3
   6541   6540   6547   6548     1  0.0000000  0.6508444  3
   6541   6540   6547   6549     1  0.0000000  0.6508444  3
   6541   6553   6565   6566     1  0.0000000  0.6508444  3
   6541   6553   6565   6567     1  0.0000000  0.6508444  3
   6542   6541   6540   6544     1  0.0000000  0.6508444  3
   6542   6541   6540   6547     1  0.0000000  0.6508444  3
   6542   6541   6540   6569     1  0.0000000  0.6508444  3
   6542   6541   6553   6565     1  0.0000000  0.6508444  3
   6542   6541   6553   6554     1  0.0000000  0.6508444  3
   6542   6541   6553   6555     1  0.0000000  0.6508444  3
   6543   6541   6540   6544     1  0.0000000  0.6508444  3
   6543   6541   6540   6547     1  0.0000000  0.6508444  3
   6543   6541   6540   6569     1  0.0000000  0.6508444  3
   6543   6541   6553   6565     1  0.0000000  0.6508444  3
   6543   6541   6553   6554     1  0.0000000  0.6508444  3
   6543   6541   6553   6555     1  0.0000000  0.6508444  3
   6544   6540   6547   6548     1  0.0000000  0.6508444  3
   6544   6540   6547   6549     1  0.0000000  0.6508444  3
   6544   6556   6562   6563     1  0.0000000  0.6508444  3
   6544   6556   6562   6564     1  0.0000000  0.6508444  3
   6545   6544   6540   6547     1  0.0000000  0.6508444  3
   6545   6544   6540   6569     1  0.0000000  0.6508444  3
   6545   6544   6556   6562     1  0.0000000  0.6508444  3
   6545   6544   6556   6557     1  0.0000000  0.6508444  3
   6545   6544   6556   6558     1  0.0000000  0.6508444  3
   6546   6544   6540   6547     1  0.0000000  0.6508444  3
   6546   6544   6540   6569     1  0.0000000  0.6508444  3
   6546   6544   6556   6562     1  0.0000000  0.6508444  3
   6546   6544   6556   6557     1  0.0000000  0.6508444  3
   6546   6544   6556   6558     1  0.0000000  0.6508444  3
   6547   6550   6559   6560     1  0.0000000  0.6508444  3
   6547   6550   6559   6561     1  0.0000000  0.6508444  3
   6548   6547   6540   6569     1  0.0000000  0.6508444  3
   6548   6547   6550   6559     1  0.0000000  0.6508444  3
   6548   6547   6550   6551     1  0.0000000  0.6508444  3
   6548   6547   6550   6552     1  0.0000000  0.6508444  3
   6549   6547   6540   6569     1  0.0000000  0.6508444  3
   6549   6547   6550   6559     1  0.0000000  0.6508444  3
   6549   6547   6550   6551     1  0.0000000  0.6508444  3
   6549   6547   6550   6552     1  0.0000000  0.6508444  3
   6550   6547   6540   6569     1  0.0000000  0.6508444  3
   6551   6550   6559   6568     1  0.0000000  1.0460000  1
   6551   6550   6559   6568     1  0.0000000  0.0000000  3
   6551   6550   6559   6560     1  0.0000000  0.6508444  3
   6551   6550   6559   6561     1  0.0000000  0.6508444  3
   6552   6550   6559   6568     1  0.0000000  1.0460000  1
   6552   6550   6559   6568     1  0.0000000  0.0000000  3
   6552   6550   6559   6560     1  0.0000000  0.6508444  3
   6552   6550   6559   6561     1  0.0000000  0.6508444  3
   6553   6541   6540   6569     1  0.0000000  0.6508444  3
   6554   6553   6565  11885     1  0.0000000  1.0460000  1
   6554   6553   6565  11885     1  0.0000000  0.0000000  3
   6554   6553   6565   6566     1  0.0000000  0.6508444  3
   6554   6553   6565   6567     1  0.0000000  0.6508444  3
   6555   6553   6565  11885     1  0.0000000  1.0460000  1
   6555   6553   6565  11885     1  0.0000000  0.0000000  3
   6555   6553   6565   6566     1  0.0000000  0.6508444  3
   6555   6553   6565   6567     1  0.0000000  0.6508444  3
   6556   6544   6540   6569     1  0.0000000  0.6508444  3
   6557   6556   6562  11862     1  0.0000000  1.0460000  1
   6557   6556   6562  11862     1  0.0000000  0.0000000  3
   6557   6556   6562   6563     1  0.0000000  0.6508444  3
   6557   6556   6562   6564     1  0.0000000  0.6508444  3
   6558   6556   6562  11862     1  0.0000000  1.0460000  1
   6558   6556   6562  11862     1  0.0000000  0.0000000  3
   6558   6556   6562   6563     1  0.0000000  0.6508444  3
   6558   6556   6562   6564     1  0.0000000  0.6508444  3
   6562  11862  11858  11861     1  0.0000000  1.6038667  3
   6563   6562  11862  11858     1  0.0000000  1.6038667  3
   6564   6562  11862  11858     1  0.0000000  1.6038667  3
   6565  11885  11881  11884     1  0.0000000  1.6038667  3
   6566   6565  11885  11881     1  0.0000000  1.6038667  3
   6567   6565  11885  11881     1  0.0000000  1.6038667  3
   6570   6571   6583   6584     1  0.0000000  0.6508444  3
   6570   6571   6583   6585     1  0.0000000  0.6508444  3
   6570   6574   6586   6587     1  0.0000000  0.6508444  3
   6570   6574   6586   6588     1  0.0000000  0.6508444  3
   6570   6577   6580   6581     1  0.0000000  0.6508444  3
   6570   6577   6580   6582     1  0.0000000  0.6508444  3
   6571   6570   6574   6575     1  0.0000000  0.6508444  3
   6571   6570   6574   6576     1  0.0000000  0.6508444  3
   6571   6570   6577   6578     1  0.0000000  0.6508444  3
   6571   6570   6577   6579     1  0.0000000  0.6508444  3
   6571   6583   6595   6596     1  0.0000000  0.6508444  3
   6571   6583   6595   6597     1  0.0000000  0.6508444  3
   6572   6571   6570   6574     1  0.0000000  0.6508444  3
   6572   6571   6570   6577     1  0.0000000  0.6508444  3
   6572   6571   6570   6599     1  0.0000000  0.6508444  3
   6572   6571   6583   6595     1  0.0000000  0.6508444  3
   6572   6571   6583   6584     1  0.0000000  0.6508444  3
   6572   6571   6583   6585     1  0.0000000  0.6508444  3
   6573   6571   6570   6574     1  0.0000000  0.6508444  3
   6573   6571   6570   6577     1  0.0000000  0.6508444  3
   6573   6571   6570   6599     1  0.0000000  0.6508444  3
   6573   6571   6583   6595     1  0.0000000  0.6508444  3
   6573   6571   6583   6584     1  0.0000000  0.6508444  3
   6573   6571   6583   6585     1  0.0000000  0.6508444  3
   6574   6570   6577   6578     1  0.0000000  0.6508444  3
   6574   6570   6577   6579     1  0.0000000  0.6508444  3
   6574   6586   6592   6593     1  0.0000000  0.6508444  3
   6574   6586   6592   6594     1  0.0000000  0.6508444  3
   6575   6574   6570   6577     1  0.0000000  0.6508444  3
   6575   6574   6570   6599     1  0.0000000  0.6508444  3
   6575   6574   6586   6592     1  0.0000000  0.6508444  3
   6575   6574   6586   6587     1  0.0000000  0.6508444  3
   6575   6574   6586   6588     1  0.0000000  0.6508444  3
   6576   6574   6570   6577     1  0.0000000  0.6508444  3
   6576   6574   6570   6599     1  0.0000000  0.6508444  3
   6576   6574   6586   6592     1  0.0000000  0.6508444  3
   6576   6574   6586   6587     1  0.0000000  0.6508444  3
   6576   6574   6586   6588     1  0.0000000  0.6508444  3
   6577   6580   6589   6590     1  0.0000000  0.6508444  3
   6577   6580   6589   6591     1  0.0000000  0.6508444  3
   6578   6577   6570   6599     1  0.0000000  0.6508444  3
   6578   6577   6580   6589     1  0.0000000  0.6508444  3
   6578   6577   6580   6581     1  0.0000000  0.6508444  3
   6578   6577   6580   6582     1  0.0000000  0.6508444  3
   6579   6577   6570   6599     1  0.0000000  0.6508444  3
   6579   6577   6580   6589     1  0.0000000  0.6508444  3
   6579   6577   6580   6581     1  0.0000000  0.6508444  3
   6579   6577   6580   6582     1  0.0000000  0.6508444  3
   6580   6577   6570   6599     1  0.0000000  0.6508444  3
   6581   6580   6589   6598     1  0.0000000  1.0460000  1
   6581   6580   6589   6598     1  0.0000000  0.0000000  3
   6581   6580   6589   6590     1  0.0000000  0.6508444  3
   6581   6580   6589   6591     1  0.0000000  0.6508444  3
   6582   6580   6589   6598     1  0.0000000  1.0460000  1
   6582   6580   6589   6598     1  0.0000000  0.0000000  3
   6582   6580   6589   6590     1  0.0000000  0.6508444  3
   6582   6580   6589   6591     1  0.0000000  0.6508444  3
   6583   6571   6570   6599     1  0.0000000  0.6508444  3
   6584   6583   6595  11931     1  0.0000000  1.0460000  1
   6584   6583   6595  11931     1  0.0000000  0.0000000  3
   6584   6583   6595   6596     1  0.0000000  0.6508444  3
   6584   6583   6595   6597     1  0.0000000  0.6508444  3
   6585   6583   6595  11931     1  0.0000000  1.0460000  1
   6585   6583   6595  11931     1  0.0000000  0.0000000  3
   6585   6583   6595   6596     1  0.0000000  0.6508444  3
   6585   6583   6595   6597     1  0.0000000  0.6508444  3
   6586   6574   6570   6599     1  0.0000000  0.6508444  3
   6587   6586   6592  11908     1  0.0000000  1.0460000  1
   6587   6586   6592  11908     1  0.0000000  0.0000000  3
   6587   6586   6592   6593     1  0.0000000  0.6508444  3
   6587   6586   6592   6594     1  0.0000000  0.6508444  3
   6588   6586   6592  11908     1  0.0000000  1.0460000  1
   6588   6586   6592  11908     1  0.0000000  0.0000000  3
   6588   6586   6592   6593     1  0.0000000  0.6508444  3
   6588   6586   6592   6594     1  0.0000000  0.6508444  3
   6592  11908  11904  11907     1  0.0000000  1.6038667  3
   6593   6592  11908  11904     1  0.0000000  1.6038667  3
   6594   6592  11908  11904     1  0.0000000  1.6038667  3
   6595  11931  11927  11930     1  0.0000000  1.6038667  3
   6596   6595  11931  11927     1  0.0000000  1.6038667  3
   6597   6595  11931  11927     1  0.0000000  1.6038667  3
   6600   6601   6613   6614     1  0.0000000  0.6508444  3
   6600   6601   6613   6615     1  0.0000000  0.6508444  3
   6600   6604   6616   6617     1  0.0000000  0.6508444  3
   6600   6604   6616   6618     1  0.0000000  0.6508444  3
   6600   6607   6610   6611     1  0.0000000  0.6508444  3
   6600   6607   6610   6612     1  0.0000000  0.6508444  3
   6601   6600   6604   6605     1  0.0000000  0.6508444  3
   6601   6600   6604   6606     1  0.0000000  0.6508444  3
   6601   6600   6607   6608     1  0.0000000  0.6508444  3
   6601   6600   6607   6609     1  0.0000000  0.6508444  3
   6601   6613   6625   6626     1  0.0000000  0.6508444  3
   6601   6613   6625   6627     1  0.0000000  0.6508444  3
   6602   6601   6600   6604     1  0.0000000  0.6508444  3
   6602   6601   6600   6607     1  0.0000000  0.6508444  3
   6602   6601   6600   6629     1  0.0000000  0.6508444  3
   6602   6601   6613   6625     1  0.0000000  0.6508444  3
   6602   6601   6613   6614     1  0.0000000  0.6508444  3
   6602   6601   6613   6615     1  0.0000000  0.6508444  3
   6603   6601   6600   6604     1  0.0000000  0.6508444  3
   6603   6601   6600   6607     1  0.0000000  0.6508444  3
   6603   6601   6600   6629     1  0.0000000  0.6508444  3
   6603   6601   6613   6625     1  0.0000000  0.6508444  3
   6603   6601   6613   6614     1  0.0000000  0.6508444  3
   6603   6601   6613   6615     1  0.0000000  0.6508444  3
   6604   6600   6607   6608     1  0.0000000  0.6508444  3
   6604   6600   6607   6609     1  0.0000000  0.6508444  3
   6604   6616   6622   6623     1  0.0000000  0.6508444  3
   6604   6616   6622   6624     1  0.0000000  0.6508444  3
   6605   6604   6600   6607     1  0.0000000  0.6508444  3
   6605   6604   6600   6629     1  0.0000000  0.6508444  3
   6605   6604   6616   6622     1  0.0000000  0.6508444  3
   6605   6604   6616   6617     1  0.0000000  0.6508444  3
   6605   6604   6616   6618     1  0.0000000  0.6508444  3
   6606   6604   6600   6607     1  0.0000000  0.6508444  3
   6606   6604   6600   6629     1  0.0000000  0.6508444  3
   6606   6604   6616   6622     1  0.0000000  0.6508444  3
   6606   6604   6616   6617     1  0.0000000  0.6508444  3
   6606   6604   6616   6618     1  0.0000000  0.6508444  3
   6607   6610   6619   6620     1  0.0000000  0.6508444  3
   6607   6610   6619   6621     1  0.0000000  0.6508444  3
   6608   6607   6600   6629     1  0.0000000  0.6508444  3
   6608   6607   6610   6619     1  0.0000000  0.6508444  3
   6608   6607   6610   6611     1  0.0000000  0.6508444  3
   6608   6607   6610   6612     1  0.0000000  0.6508444  3
   6609   6607   6600   6629     1  0.0000000  0.6508444  3
   6609   6607   6610   6619     1  0.0000000  0.6508444  3
   6609   6607   6610   6611     1  0.0000000  0.6508444  3
   6609   6607   6610   6612     1  0.0000000  0.6508444  3
   6610   6607   6600   6629     1  0.0000000  0.6508444  3
   6611   6610   6619   6628     1  0.0000000  1.0460000  1
   6611   6610   6619   6628     1  0.0000000  0.0000000  3
   6611   6610   6619   6620     1  0.0000000  0.6508444  3
   6611   6610   6619   6621     1  0.0000000  0.6508444  3
   6612   6610   6619   6628     1  0.0000000  1.0460000  1
   6612   6610   6619   6628     1  0.0000000  0.0000000  3
   6612   6610   6619   6620     1  0.0000000  0.6508444  3
   6612   6610   6619   6621     1  0.0000000  0.6508444  3
   6613   6601   6600   6629     1  0.0000000  0.6508444  3
   6614   6613   6625  11977     1  0.0000000  1.0460000  1
   6614   6613   6625  11977     1  0.0000000  0.0000000  3
   6614   6613   6625   6626     1  0.0000000  0.6508444  3
   6614   6613   6625   6627     1  0.0000000  0.6508444  3
   6615   6613   6625  11977     1  0.0000000  1.0460000  1
   6615   6613   6625  11977     1  0.0000000  0.0000000  3
   6615   6613   6625   6626     1  0.0000000  0.6508444  3
   6615   6613   6625   6627     1  0.0000000  0.6508444  3
   6616   6604   6600   6629     1  0.0000000  0.6508444  3
   6617   6616   6622  11954     1  0.0000000  1.0460000  1
   6617   6616   6622  11954     1  0.0000000  0.0000000  3
   6617   6616   6622   6623     1  0.0000000  0.6508444  3
   6617   6616   6622   6624     1  0.0000000  0.6508444  3
   6618   6616   6622  11954     1  0.0000000  1.0460000  1
   6618   6616   6622  11954     1  0.0000000  0.0000000  3
   6618   6616   6622   6623     1  0.0000000  0.6508444  3
   6618   6616   6622   6624     1  0.0000000  0.6508444  3
   6622  11954  11950  11953     1  0.0000000  1.6038667  3
   6623   6622  11954  11950     1  0.0000000  1.6038667  3
   6624   6622  11954  11950     1  0.0000000  1.6038667  3
   6625  11977  11973  11976     1  0.0000000  1.6038667  3
   6626   6625  11977  11973     1  0.0000000  1.6038667  3
   6627   6625  11977  11973     1  0.0000000  1.6038667  3
   6630   6631   6643   6644     1  0.0000000  0.6508444  3
   6630   6631   6643   6645     1  0.0000000  0.6508444  3
   6630   6634   6646   6647     1  0.0000000  0.6508444  3
   6630   6634   6646   6648     1  0.0000000  0.6508444  3
   6630   6637   6640   6641     1  0.0000000  0.6508444  3
   6630   6637   6640   6642     1  0.0000000  0.6508444  3
   6631   6630   6634   6635     1  0.0000000  0.6508444  3
   6631   6630   6634   6636     1  0.0000000  0.6508444  3
   6631   6630   6637   6638     1  0.0000000  0.6508444  3
   6631   6630   6637   6639     1  0.0000000  0.6508444  3
   6631   6643   6655   6656     1  0.0000000  0.6508444  3
   6631   6643   6655   6657     1  0.0000000  0.6508444  3
   6632   6631   6630   6634     1  0.0000000  0.6508444  3
   6632   6631   6630   6637     1  0.0000000  0.6508444  3
   6632   6631   6630   6659     1  0.0000000  0.6508444  3
   6632   6631   6643   6655     1  0.0000000  0.6508444  3
   6632   6631   6643   6644     1  0.0000000  0.6508444  3
   6632   6631   6643   6645     1  0.0000000  0.6508444  3
   6633   6631   6630   6634     1  0.0000000  0.6508444  3
   6633   6631   6630   6637     1  0.0000000  0.6508444  3
   6633   6631   6630   6659     1  0.0000000  0.6508444  3
   6633   6631   6643   6655     1  0.0000000  0.6508444  3
   6633   6631   6643   6644     1  0.0000000  0.6508444  3
   6633   6631   6643   6645     1  0.0000000  0.6508444  3
   6634   6630   6637   6638     1  0.0000000  0.6508444  3
   6634   6630   6637   6639     1  0.0000000  0.6508444  3
   6634   6646   6652   6653     1  0.0000000  0.6508444  3
   6634   6646   6652   6654     1  0.0000000  0.6508444  3
   6635   6634   6630   6637     1  0.0000000  0.6508444  3
   6635   6634   6630   6659     1  0.0000000  0.6508444  3
   6635   6634   6646   6652     1  0.0000000  0.6508444  3
   6635   6634   6646   6647     1  0.0000000  0.6508444  3
   6635   6634   6646   6648     1  0.0000000  0.6508444  3
   6636   6634   6630   6637     1  0.0000000  0.6508444  3
   6636   6634   6630   6659     1  0.0000000  0.6508444  3
   6636   6634   6646   6652     1  0.0000000  0.6508444  3
   6636   6634   6646   6647     1  0.0000000  0.6508444  3
   6636   6634   6646   6648     1  0.0000000  0.6508444  3
   6637   6640   6649   6650     1  0.0000000  0.6508444  3
   6637   6640   6649   6651     1  0.0000000  0.6508444  3
   6638   6637   6630   6659     1  0.0000000  0.6508444  3
   6638   6637   6640   6649     1  0.0000000  0.6508444  3
   6638   6637   6640   6641     1  0.0000000  0.6508444  3
   6638   6637   6640   6642     1  0.0000000  0.6508444  3
   6639   6637   6630   6659     1  0.0000000  0.6508444  3
   6639   6637   6640   6649     1  0.0000000  0.6508444  3
   6639   6637   6640   6641     1  0.0000000  0.6508444  3
   6639   6637   6640   6642     1  0.0000000  0.6508444  3
   6640   6637   6630   6659     1  0.0000000  0.6508444  3
   6641   6640   6649   6658     1  0.0000000  1.0460000  1
   6641   6640   6649   6658     1  0.0000000  0.0000000  3
   6641   6640   6649   6650     1  0.0000000  0.6508444  3
   6641   6640   6649   6651     1  0.0000000  0.6508444  3
   6642   6640   6649   6658     1  0.0000000  1.0460000  1
   6642   6640   6649   6658     1  0.0000000  0.0000000  3
   6642   6640   6649   6650     1  0.0000000  0.6508444  3
   6642   6640   6649   6651     1  0.0000000  0.6508444  3
   6643   6631   6630   6659     1  0.0000000  0.6508444  3
   6644   6643   6655  12023     1  0.0000000  1.0460000  1
   6644   6643   6655  12023     1  0.0000000  0.0000000  3
   6644   6643   6655   6656     1  0.0000000  0.6508444  3
   6644   6643   6655   6657     1  0.0000000  0.6508444  3
   6645   6643   6655  12023     1  0.0000000  1.0460000  1
   6645   6643   6655  12023     1  0.0000000  0.0000000  3
   6645   6643   6655   6656     1  0.0000000  0.6508444  3
   6645   6643   6655   6657     1  0.0000000  0.6508444  3
   6646   6634   6630   6659     1  0.0000000  0.6508444  3
   6647   6646   6652  12000     1  0.0000000  1.0460000  1
   6647   6646   6652  12000     1  0.0000000  0.0000000  3
   6647   6646   6652   6653     1  0.0000000  0.6508444  3
   6647   6646   6652   6654     1  0.0000000  0.6508444  3
   6648   6646   6652  12000     1  0.0000000  1.0460000  1
   6648   6646   6652  12000     1  0.0000000  0.0000000  3
   6648   6646   6652   6653     1  0.0000000  0.6508444  3
   6648   6646   6652   6654     1  0.0000000  0.6508444  3
   6652  12000  11996  11999     1  0.0000000  1.6038667  3
   6653   6652  12000  11996     1  0.0000000  1.6038667  3
   6654   6652  12000  11996     1  0.0000000  1.6038667  3
   6655  12023  12019  12022     1  0.0000000  1.6038667  3
   6656   6655  12023  12019     1  0.0000000  1.6038667  3
   6657   6655  12023  12019     1  0.0000000  1.6038667  3
   6660   6661   6673   6674     1  0.0000000  0.6508444  3
   6660   6661   6673   6675     1  0.0000000  0.6508444  3
   6660   6664   6676   6677     1  0.0000000  0.6508444  3
   6660   6664   6676   6678     1  0.0000000  0.6508444  3
   6660   6667   6670   6671     1  0.0000000  0.6508444  3
   6660   6667   6670   6672     1  0.0000000  0.6508444  3
   6661   6660   6664   6665     1  0.0000000  0.6508444  3
   6661   6660   6664   6666     1  0.0000000  0.6508444  3
   6661   6660   6667   6668     1  0.0000000  0.6508444  3
   6661   6660   6667   6669     1  0.0000000  0.6508444  3
   6661   6673   6685   6686     1  0.0000000  0.6508444  3
   6661   6673   6685   6687     1  0.0000000  0.6508444  3
   6662   6661   6660   6664     1  0.0000000  0.6508444  3
   6662   6661   6660   6667     1  0.0000000  0.6508444  3
   6662   6661   6660   6689     1  0.0000000  0.6508444  3
   6662   6661   6673   6685     1  0.0000000  0.6508444  3
   6662   6661   6673   6674     1  0.0000000  0.6508444  3
   6662   6661   6673   6675     1  0.0000000  0.6508444  3
   6663   6661   6660   6664     1  0.0000000  0.6508444  3
   6663   6661   6660   6667     1  0.0000000  0.6508444  3
   6663   6661   6660   6689     1  0.0000000  0.6508444  3
   6663   6661   6673   6685     1  0.0000000  0.6508444  3
   6663   6661   6673   6674     1  0.0000000  0.6508444  3
   6663   6661   6673   6675     1  0.0000000  0.6508444  3
   6664   6660   6667   6668     1  0.0000000  0.6508444  3
   6664   6660   6667   6669     1  0.0000000  0.6508444  3
   6664   6676   6682   6683     1  0.0000000  0.6508444  3
   6664   6676   6682   6684     1  0.0000000  0.6508444  3
   6665   6664   6660   6667     1  0.0000000  0.6508444  3
   6665   6664   6660   6689     1  0.0000000  0.6508444  3
   6665   6664   6676   6682     1  0.0000000  0.6508444  3
   6665   6664   6676   6677     1  0.0000000  0.6508444  3
   6665   6664   6676   6678     1  0.0000000  0.6508444  3
   6666   6664   6660   6667     1  0.0000000  0.6508444  3
   6666   6664   6660   6689     1  0.0000000  0.6508444  3
   6666   6664   6676   6682     1  0.0000000  0.6508444  3
   6666   6664   6676   6677     1  0.0000000  0.6508444  3
   6666   6664   6676   6678     1  0.0000000  0.6508444  3
   6667   6670   6679   6680     1  0.0000000  0.6508444  3
   6667   6670   6679   6681     1  0.0000000  0.6508444  3
   6668   6667   6660   6689     1  0.0000000  0.6508444  3
   6668   6667   6670   6679     1  0.0000000  0.6508444  3
   6668   6667   6670   6671     1  0.0000000  0.6508444  3
   6668   6667   6670   6672     1  0.0000000  0.6508444  3
   6669   6667   6660   6689     1  0.0000000  0.6508444  3
   6669   6667   6670   6679     1  0.0000000  0.6508444  3
   6669   6667   6670   6671     1  0.0000000  0.6508444  3
   6669   6667   6670   6672     1  0.0000000  0.6508444  3
   6670   6667   6660   6689     1  0.0000000  0.6508444  3
   6671   6670   6679   6688     1  0.0000000  1.0460000  1
   6671   6670   6679   6688     1  0.0000000  0.0000000  3
   6671   6670   6679   6680     1  0.0000000  0.6508444  3
   6671   6670   6679   6681     1  0.0000000  0.6508444  3
   6672   6670   6679   6688     1  0.0000000  1.0460000  1
   6672   6670   6679   6688     1  0.0000000  0.0000000  3
   6672   6670   6679   6680     1  0.0000000  0.6508444  3
   6672   6670   6679   6681     1  0.0000000  0.6508444  3
   6673   6661   6660   6689     1  0.0000000  0.6508444  3
   6674   6673   6685  12069     1  0.0000000  1.0460000  1
   6674   6673   6685  12069     1  0.0000000  0.0000000  3
   6674   6673   6685   6686     1  0.0000000  0.6508444  3
   6674   6673   6685   6687     1  0.0000000  0.6508444  3
   6675   6673   6685  12069     1  0.0000000  1.0460000  1
   6675   6673   6685  12069     1  0.0000000  0.0000000  3
   6675   6673   6685   6686     1  0.0000000  0.6508444  3
   6675   6673   6685   6687     1  0.0000000  0.6508444  3
   6676   6664   6660   6689     1  0.0000000  0.6508444  3
   6677   6676   6682  12046     1  0.0000000  1.0460000  1
   6677   6676   6682  12046     1  0.0000000  0.0000000  3
   6677   6676   6682   6683     1  0.0000000  0.6508444  3
   6677   6676   6682   6684     1  0.0000000  0.6508444  3
   6678   6676   6682  12046     1  0.0000000  1.0460000  1
   6678   6676   6682  12046     1  0.0000000  0.0000000  3
   6678   6676   6682   6683     1  0.0000000  0.6508444  3
   6678   6676   6682   6684     1  0.0000000  0.6508444  3
   6682  12046  12042  12045     1  0.0000000  1.6038667  3
   6683   6682  12046  12042     1  0.0000000  1.6038667  3
   6684   6682  12046  12042     1  0.0000000  1.6038667  3
   6685  12069  12065  12068     1  0.0000000  1.6038667  3
   6686   6685  12069  12065     1  0.0000000  1.6038667  3
   6687   6685  12069  12065     1  0.0000000  1.6038667  3
   6690   6691   6703   6704     1  0.0000000  0.6508444  3
   6690   6691   6703   6705     1  0.0000000  0.6508444  3
   6690   6694   6706   6707     1  0.0000000  0.6508444  3
   6690   6694   6706   6708     1  0.0000000  0.6508444  3
   6690   6697   6700   6701     1  0.0000000  0.6508444  3
   6690   6697   6700   6702     1  0.0000000  0.6508444  3
   6691   6690   6694   6695     1  0.0000000  0.6508444  3
   6691   6690   6694   6696     1  0.0000000  0.6508444  3
   6691   6690   6697   6698     1  0.0000000  0.6508444  3
   6691   6690   6697   6699     1  0.0000000  0.6508444  3
   6691   6703   6715   6716     1  0.0000000  0.6508444  3
   6691   6703   6715   6717     1  0.0000000  0.6508444  3
   6692   6691   6690   6694     1  0.0000000  0.6508444  3
   6692   6691   6690   6697     1  0.0000000  0.6508444  3
   6692   6691   6690   6719     1  0.0000000  0.6508444  3
   6692   6691   6703   6715     1  0.0000000  0.6508444  3
   6692   6691   6703   6704     1  0.0000000  0.6508444  3
   6692   6691   6703   6705     1  0.0000000  0.6508444  3
   6693   6691   6690   6694     1  0.0000000  0.6508444  3
   6693   6691   6690   6697     1  0.0000000  0.6508444  3
   6693   6691   6690   6719     1  0.0000000  0.6508444  3
   6693   6691   6703   6715     1  0.0000000  0.6508444  3
   6693   6691   6703   6704     1  0.0000000  0.6508444  3
   6693   6691   6703   6705     1  0.0000000  0.6508444  3
   6694   6690   6697   6698     1  0.0000000  0.6508444  3
   6694   6690   6697   6699     1  0.0000000  0.6508444  3
   6694   6706   6712   6713     1  0.0000000  0.6508444  3
   6694   6706   6712   6714     1  0.0000000  0.6508444  3
   6695   6694   6690   6697     1  0.0000000  0.6508444  3
   6695   6694   6690   6719     1  0.0000000  0.6508444  3
   6695   6694   6706   6712     1  0.0000000  0.6508444  3
   6695   6694   6706   6707     1  0.0000000  0.6508444  3
   6695   6694   6706   6708     1  0.0000000  0.6508444  3
   6696   6694   6690   6697     1  0.0000000  0.6508444  3
   6696   6694   6690   6719     1  0.0000000  0.6508444  3
   6696   6694   6706   6712     1  0.0000000  0.6508444  3
   6696   6694   6706   6707     1  0.0000000  0.6508444  3
   6696   6694   6706   6708     1  0.0000000  0.6508444  3
   6697   6700   6709   6710     1  0.0000000  0.6508444  3
   6697   6700   6709   6711     1  0.0000000  0.6508444  3
   6698   6697   6690   6719     1  0.0000000  0.6508444  3
   6698   6697   6700   6709     1  0.0000000  0.6508444  3
   6698   6697   6700   6701     1  0.0000000  0.6508444  3
   6698   6697   6700   6702     1  0.0000000  0.6508444  3
   6699   6697   6690   6719     1  0.0000000  0.6508444  3
   6699   6697   6700   6709     1  0.0000000  0.6508444  3
   6699   6697   6700   6701     1  0.0000000  0.6508444  3
   6699   6697   6700   6702     1  0.0000000  0.6508444  3
   6700   6697   6690   6719     1  0.0000000  0.6508444  3
   6701   6700   6709   6718     1  0.0000000  1.0460000  1
   6701   6700   6709   6718     1  0.0000000  0.0000000  3
   6701   6700   6709   6710     1  0.0000000  0.6508444  3
   6701   6700   6709   6711     1  0.0000000  0.6508444  3
   6702   6700   6709   6718     1  0.0000000  1.0460000  1
   6702   6700   6709   6718     1  0.0000000  0.0000000  3
   6702   6700   6709   6710     1  0.0000000  0.6508444  3
   6702   6700   6709   6711     1  0.0000000  0.6508444  3
   6703   6691   6690   6719     1  0.0000000  0.6508444  3
   6704   6703   6715  12115     1  0.0000000  1.0460000  1
   6704   6703   6715  12115     1  0.0000000  0.0000000  3
   6704   6703   6715   6716     1  0.0000000  0.6508444  3
   6704   6703   6715   6717     1  0.0000000  0.6508444  3
   6705   6703   6715  12115     1  0.0000000  1.0460000  1
   6705   6703   6715  12115     1  0.0000000  0.0000000  3
   6705   6703   6715   6716     1  0.0000000  0.6508444  3
   6705   6703   6715   6717     1  0.0000000  0.6508444  3
   6706   6694   6690   6719     1  0.0000000  0.6508444  3
   6707   6706   6712  12092     1  0.0000000  1.0460000  1
   6707   6706   6712  12092     1  0.0000000  0.0000000  3
   6707   6706   6712   6713     1  0.0000000  0.6508444  3
   6707   6706   6712   6714     1  0.0000000  0.6508444  3
   6708   6706   6712  12092     1  0.0000000  1.0460000  1
   6708   6706   6712  12092     1  0.0000000  0.0000000  3
   6708   6706   6712   6713     1  0.0000000  0.6508444  3
   6708   6706   6712   6714     1  0.0000000  0.6508444  3
   6712  12092  12088  12091     1  0.0000000  1.6038667  3
   6713   6712  12092  12088     1  0.0000000  1.6038667  3
   6714   6712  12092  12088     1  0.0000000  1.6038667  3
   6715  12115  12111  12114     1  0.0000000  1.6038667  3
   6716   6715  12115  12111     1  0.0000000  1.6038667  3
   6717   6715  12115  12111     1  0.0000000  1.6038667  3
   6720   6721   6733   6734     1  0.0000000  0.6508444  3
   6720   6721   6733   6735     1  0.0000000  0.6508444  3
   6720   6724   6736   6737     1  0.0000000  0.6508444  3
   6720   6724   6736   6738     1  0.0000000  0.6508444  3
   6720   6727   6730   6731     1  0.0000000  0.6508444  3
   6720   6727   6730   6732     1  0.0000000  0.6508444  3
   6721   6720   6724   6725     1  0.0000000  0.6508444  3
   6721   6720   6724   6726     1  0.0000000  0.6508444  3
   6721   6720   6727   6728     1  0.0000000  0.6508444  3
   6721   6720   6727   6729     1  0.0000000  0.6508444  3
   6721   6733   6745   6746     1  0.0000000  0.6508444  3
   6721   6733   6745   6747     1  0.0000000  0.6508444  3
   6722   6721   6720   6724     1  0.0000000  0.6508444  3
   6722   6721   6720   6727     1  0.0000000  0.6508444  3
   6722   6721   6720   6749     1  0.0000000  0.6508444  3
   6722   6721   6733   6745     1  0.0000000  0.6508444  3
   6722   6721   6733   6734     1  0.0000000  0.6508444  3
   6722   6721   6733   6735     1  0.0000000  0.6508444  3
   6723   6721   6720   6724     1  0.0000000  0.6508444  3
   6723   6721   6720   6727     1  0.0000000  0.6508444  3
   6723   6721   6720   6749     1  0.0000000  0.6508444  3
   6723   6721   6733   6745     1  0.0000000  0.6508444  3
   6723   6721   6733   6734     1  0.0000000  0.6508444  3
   6723   6721   6733   6735     1  0.0000000  0.6508444  3
   6724   6720   6727   6728     1  0.0000000  0.6508444  3
   6724   6720   6727   6729     1  0.0000000  0.6508444  3
   6724   6736   6742   6743     1  0.0000000  0.6508444  3
   6724   6736   6742   6744     1  0.0000000  0.6508444  3
   6725   6724   6720   6727     1  0.0000000  0.6508444  3
   6725   6724   6720   6749     1  0.0000000  0.6508444  3
   6725   6724   6736   6742     1  0.0000000  0.6508444  3
   6725   6724   6736   6737     1  0.0000000  0.6508444  3
   6725   6724   6736   6738     1  0.0000000  0.6508444  3
   6726   6724   6720   6727     1  0.0000000  0.6508444  3
   6726   6724   6720   6749     1  0.0000000  0.6508444  3
   6726   6724   6736   6742     1  0.0000000  0.6508444  3
   6726   6724   6736   6737     1  0.0000000  0.6508444  3
   6726   6724   6736   6738     1  0.0000000  0.6508444  3
   6727   6730   6739   6740     1  0.0000000  0.6508444  3
   6727   6730   6739   6741     1  0.0000000  0.6508444  3
   6728   6727   6720   6749     1  0.0000000  0.6508444  3
   6728   6727   6730   6739     1  0.0000000  0.6508444  3
   6728   6727   6730   6731     1  0.0000000  0.6508444  3
   6728   6727   6730   6732     1  0.0000000  0.6508444  3
   6729   6727   6720   6749     1  0.0000000  0.6508444  3
   6729   6727   6730   6739     1  0.0000000  0.6508444  3
   6729   6727   6730   6731     1  0.0000000  0.6508444  3
   6729   6727   6730   6732     1  0.0000000  0.6508444  3
   6730   6727   6720   6749     1  0.0000000  0.6508444  3
   6731   6730   6739   6748     1  0.0000000  1.0460000  1
   6731   6730   6739   6748     1  0.0000000  0.0000000  3
   6731   6730   6739   6740     1  0.0000000  0.6508444  3
   6731   6730   6739   6741     1  0.0000000  0.6508444  3
   6732   6730   6739   6748     1  0.0000000  1.0460000  1
   6732   6730   6739   6748     1  0.0000000  0.0000000  3
   6732   6730   6739   6740     1  0.0000000  0.6508444  3
   6732   6730   6739   6741     1  0.0000000  0.6508444  3
   6733   6721   6720   6749     1  0.0000000  0.6508444  3
   6734   6733   6745  12161     1  0.0000000  1.0460000  1
   6734   6733   6745  12161     1  0.0000000  0.0000000  3
   6734   6733   6745   6746     1  0.0000000  0.6508444  3
   6734   6733   6745   6747     1  0.0000000  0.6508444  3
   6735   6733   6745  12161     1  0.0000000  1.0460000  1
   6735   6733   6745  12161     1  0.0000000  0.0000000  3
   6735   6733   6745   6746     1  0.0000000  0.6508444  3
   6735   6733   6745   6747     1  0.0000000  0.6508444  3
   6736   6724   6720   6749     1  0.0000000  0.6508444  3
   6737   6736   6742  12138     1  0.0000000  1.0460000  1
   6737   6736   6742  12138     1  0.0000000  0.0000000  3
   6737   6736   6742   6743     1  0.0000000  0.6508444  3
   6737   6736   6742   6744     1  0.0000000  0.6508444  3
   6738   6736   6742  12138     1  0.0000000  1.0460000  1
   6738   6736   6742  12138     1  0.0000000  0.0000000  3
   6738   6736   6742   6743     1  0.0000000  0.6508444  3
   6738   6736   6742   6744     1  0.0000000  0.6508444  3
   6742  12138  12134  12137     1  0.0000000  1.6038667  3
   6743   6742  12138  12134     1  0.0000000  1.6038667  3
   6744   6742  12138  12134     1  0.0000000  1.6038667  3
   6745  12161  12157  12160     1  0.0000000  1.6038667  3
   6746   6745  12161  12157     1  0.0000000  1.6038667  3
   6747   6745  12161  12157     1  0.0000000  1.6038667  3
   6750   6751   6763   6764     1  0.0000000  0.6508444  3
   6750   6751   6763   6765     1  0.0000000  0.6508444  3
   6750   6754   6766   6767     1  0.0000000  0.6508444  3
   6750   6754   6766   6768     1  0.0000000  0.6508444  3
   6750   6757   6760   6761     1  0.0000000  0.6508444  3
   6750   6757   6760   6762     1  0.0000000  0.6508444  3
   6751   6750   6754   6755     1  0.0000000  0.6508444  3
   6751   6750   6754   6756     1  0.0000000  0.6508444  3
   6751   6750   6757   6758     1  0.0000000  0.6508444  3
   6751   6750   6757   6759     1  0.0000000  0.6508444  3
   6751   6763   6775   6776     1  0.0000000  0.6508444  3
   6751   6763   6775   6777     1  0.0000000  0.6508444  3
   6752   6751   6750   6754     1  0.0000000  0.6508444  3
   6752   6751   6750   6757     1  0.0000000  0.6508444  3
   6752   6751   6750   6779     1  0.0000000  0.6508444  3
   6752   6751   6763   6775     1  0.0000000  0.6508444  3
   6752   6751   6763   6764     1  0.0000000  0.6508444  3
   6752   6751   6763   6765     1  0.0000000  0.6508444  3
   6753   6751   6750   6754     1  0.0000000  0.6508444  3
   6753   6751   6750   6757     1  0.0000000  0.6508444  3
   6753   6751   6750   6779     1  0.0000000  0.6508444  3
   6753   6751   6763   6775     1  0.0000000  0.6508444  3
   6753   6751   6763   6764     1  0.0000000  0.6508444  3
   6753   6751   6763   6765     1  0.0000000  0.6508444  3
   6754   6750   6757   6758     1  0.0000000  0.6508444  3
   6754   6750   6757   6759     1  0.0000000  0.6508444  3
   6754   6766   6772   6773     1  0.0000000  0.6508444  3
   6754   6766   6772   6774     1  0.0000000  0.6508444  3
   6755   6754   6750   6757     1  0.0000000  0.6508444  3
   6755   6754   6750   6779     1  0.0000000  0.6508444  3
   6755   6754   6766   6772     1  0.0000000  0.6508444  3
   6755   6754   6766   6767     1  0.0000000  0.6508444  3
   6755   6754   6766   6768     1  0.0000000  0.6508444  3
   6756   6754   6750   6757     1  0.0000000  0.6508444  3
   6756   6754   6750   6779     1  0.0000000  0.6508444  3
   6756   6754   6766   6772     1  0.0000000  0.6508444  3
   6756   6754   6766   6767     1  0.0000000  0.6508444  3
   6756   6754   6766   6768     1  0.0000000  0.6508444  3
   6757   6760   6769   6770     1  0.0000000  0.6508444  3
   6757   6760   6769   6771     1  0.0000000  0.6508444  3
   6758   6757   6750   6779     1  0.0000000  0.6508444  3
   6758   6757   6760   6769     1  0.0000000  0.6508444  3
   6758   6757   6760   6761     1  0.0000000  0.6508444  3
   6758   6757   6760   6762     1  0.0000000  0.6508444  3
   6759   6757   6750   6779     1  0.0000000  0.6508444  3
   6759   6757   6760   6769     1  0.0000000  0.6508444  3
   6759   6757   6760   6761     1  0.0000000  0.6508444  3
   6759   6757   6760   6762     1  0.0000000  0.6508444  3
   6760   6757   6750   6779     1  0.0000000  0.6508444  3
   6761   6760   6769   6778     1  0.0000000  1.0460000  1
   6761   6760   6769   6778     1  0.0000000  0.0000000  3
   6761   6760   6769   6770     1  0.0000000  0.6508444  3
   6761   6760   6769   6771     1  0.0000000  0.6508444  3
   6762   6760   6769   6778     1  0.0000000  1.0460000  1
   6762   6760   6769   6778     1  0.0000000  0.0000000  3
   6762   6760   6769   6770     1  0.0000000  0.6508444  3
   6762   6760   6769   6771     1  0.0000000  0.6508444  3
   6763   6751   6750   6779     1  0.0000000  0.6508444  3
   6764   6763   6775  12207     1  0.0000000  1.0460000  1
   6764   6763   6775  12207     1  0.0000000  0.0000000  3
   6764   6763   6775   6776     1  0.0000000  0.6508444  3
   6764   6763   6775   6777     1  0.0000000  0.6508444  3
   6765   6763   6775  12207     1  0.0000000  1.0460000  1
   6765   6763   6775  12207     1  0.0000000  0.0000000  3
   6765   6763   6775   6776     1  0.0000000  0.6508444  3
   6765   6763   6775   6777     1  0.0000000  0.6508444  3
   6766   6754   6750   6779     1  0.0000000  0.6508444  3
   6767   6766   6772  12184     1  0.0000000  1.0460000  1
   6767   6766   6772  12184     1  0.0000000  0.0000000  3
   6767   6766   6772   6773     1  0.0000000  0.6508444  3
   6767   6766   6772   6774     1  0.0000000  0.6508444  3
   6768   6766   6772  12184     1  0.0000000  1.0460000  1
   6768   6766   6772  12184     1  0.0000000  0.0000000  3
   6768   6766   6772   6773     1  0.0000000  0.6508444  3
   6768   6766   6772   6774     1  0.0000000  0.6508444  3
   6772  12184  12180  12183     1  0.0000000  1.6038667  3
   6773   6772  12184  12180     1  0.0000000  1.6038667  3
   6774   6772  12184  12180     1  0.0000000  1.6038667  3
   6775  12207  12203  12206     1  0.0000000  1.6038667  3
   6776   6775  12207  12203     1  0.0000000  1.6038667  3
   6777   6775  12207  12203     1  0.0000000  1.6038667  3
   6780   6781   6793   6794     1  0.0000000  0.6508444  3
   6780   6781   6793   6795     1  0.0000000  0.6508444  3
   6780   6784   6796   6797     1  0.0000000  0.6508444  3
   6780   6784   6796   6798     1  0.0000000  0.6508444  3
   6780   6787   6790   6791     1  0.0000000  0.6508444  3
   6780   6787   6790   6792     1  0.0000000  0.6508444  3
   6781   6780   6784   6785     1  0.0000000  0.6508444  3
   6781   6780   6784   6786     1  0.0000000  0.6508444  3
   6781   6780   6787   6788     1  0.0000000  0.6508444  3
   6781   6780   6787   6789     1  0.0000000  0.6508444  3
   6781   6793   6805   6806     1  0.0000000  0.6508444  3
   6781   6793   6805   6807     1  0.0000000  0.6508444  3
   6782   6781   6780   6784     1  0.0000000  0.6508444  3
   6782   6781   6780   6787     1  0.0000000  0.6508444  3
   6782   6781   6780   6809     1  0.0000000  0.6508444  3
   6782   6781   6793   6805     1  0.0000000  0.6508444  3
   6782   6781   6793   6794     1  0.0000000  0.6508444  3
   6782   6781   6793   6795     1  0.0000000  0.6508444  3
   6783   6781   6780   6784     1  0.0000000  0.6508444  3
   6783   6781   6780   6787     1  0.0000000  0.6508444  3
   6783   6781   6780   6809     1  0.0000000  0.6508444  3
   6783   6781   6793   6805     1  0.0000000  0.6508444  3
   6783   6781   6793   6794     1  0.0000000  0.6508444  3
   6783   6781   6793   6795     1  0.0000000  0.6508444  3
   6784   6780   6787   6788     1  0.0000000  0.6508444  3
   6784   6780   6787   6789     1  0.0000000  0.6508444  3
   6784   6796   6802   6803     1  0.0000000  0.6508444  3
   6784   6796   6802   6804     1  0.0000000  0.6508444  3
   6785   6784   6780   6787     1  0.0000000  0.6508444  3
   6785   6784   6780   6809     1  0.0000000  0.6508444  3
   6785   6784   6796   6802     1  0.0000000  0.6508444  3
   6785   6784   6796   6797     1  0.0000000  0.6508444  3
   6785   6784   6796   6798     1  0.0000000  0.6508444  3
   6786   6784   6780   6787     1  0.0000000  0.6508444  3
   6786   6784   6780   6809     1  0.0000000  0.6508444  3
   6786   6784   6796   6802     1  0.0000000  0.6508444  3
   6786   6784   6796   6797     1  0.0000000  0.6508444  3
   6786   6784   6796   6798     1  0.0000000  0.6508444  3
   6787   6790   6799   6800     1  0.0000000  0.6508444  3
   6787   6790   6799   6801     1  0.0000000  0.6508444  3
   6788   6787   6780   6809     1  0.0000000  0.6508444  3
   6788   6787   6790   6799     1  0.0000000  0.6508444  3
   6788   6787   6790   6791     1  0.0000000  0.6508444  3
   6788   6787   6790   6792     1  0.0000000  0.6508444  3
   6789   6787   6780   6809     1  0.0000000  0.6508444  3
   6789   6787   6790   6799     1  0.0000000  0.6508444  3
   6789   6787   6790   6791     1  0.0000000  0.6508444  3
   6789   6787   6790   6792     1  0.0000000  0.6508444  3
   6790   6787   6780   6809     1  0.0000000  0.6508444  3
   6791   6790   6799   6808     1  0.0000000  1.0460000  1
   6791   6790   6799   6808     1  0.0000000  0.0000000  3
   6791   6790   6799   6800     1  0.0000000  0.6508444  3
   6791   6790   6799   6801     1  0.0000000  0.6508444  3
   6792   6790   6799   6808     1  0.0000000  1.0460000  1
   6792   6790   6799   6808     1  0.0000000  0.0000000  3
   6792   6790   6799   6800     1  0.0000000  0.6508444  3
   6792   6790   6799   6801     1  0.0000000  0.6508444  3
   6793   6781   6780   6809     1  0.0000000  0.6508444  3
   6794   6793   6805  12253     1  0.0000000  1.0460000  1
   6794   6793   6805  12253     1  0.0000000  0.0000000  3
   6794   6793   6805   6806     1  0.0000000  0.6508444  3
   6794   6793   6805   6807     1  0.0000000  0.6508444  3
   6795   6793   6805  12253     1  0.0000000  1.0460000  1
   6795   6793   6805  12253     1  0.0000000  0.0000000  3
   6795   6793   6805   6806     1  0.0000000  0.6508444  3
   6795   6793   6805   6807     1  0.0000000  0.6508444  3
   6796   6784   6780   6809     1  0.0000000  0.6508444  3
   6797   6796   6802  12230     1  0.0000000  1.0460000  1
   6797   6796   6802  12230     1  0.0000000  0.0000000  3
   6797   6796   6802   6803     1  0.0000000  0.6508444  3
   6797   6796   6802   6804     1  0.0000000  0.6508444  3
   6798   6796   6802  12230     1  0.0000000  1.0460000  1
   6798   6796   6802  12230     1  0.0000000  0.0000000  3
   6798   6796   6802   6803     1  0.0000000  0.6508444  3
   6798   6796   6802   6804     1  0.0000000  0.6508444  3
   6802  12230  12226  12229     1  0.0000000  1.6038667  3
   6803   6802  12230  12226     1  0.0000000  1.6038667  3
   6804   6802  12230  12226     1  0.0000000  1.6038667  3
   6805  12253  12249  12252     1  0.0000000  1.6038667  3
   6806   6805  12253  12249     1  0.0000000  1.6038667  3
   6807   6805  12253  12249     1  0.0000000  1.6038667  3
   6810   6811   6823   6824     1  0.0000000  0.6508444  3
   6810   6811   6823   6825     1  0.0000000  0.6508444  3
   6810   6814   6826   6827     1  0.0000000  0.6508444  3
   6810   6814   6826   6828     1  0.0000000  0.6508444  3
   6810   6817   6820   6821     1  0.0000000  0.6508444  3
   6810   6817   6820   6822     1  0.0000000  0.6508444  3
   6811   6810   6814   6815     1  0.0000000  0.6508444  3
   6811   6810   6814   6816     1  0.0000000  0.6508444  3
   6811   6810   6817   6818     1  0.0000000  0.6508444  3
   6811   6810   6817   6819     1  0.0000000  0.6508444  3
   6811   6823   6835   6836     1  0.0000000  0.6508444  3
   6811   6823   6835   6837     1  0.0000000  0.6508444  3
   6812   6811   6810   6814     1  0.0000000  0.6508444  3
   6812   6811   6810   6817     1  0.0000000  0.6508444  3
   6812   6811   6810   6839     1  0.0000000  0.6508444  3
   6812   6811   6823   6835     1  0.0000000  0.6508444  3
   6812   6811   6823   6824     1  0.0000000  0.6508444  3
   6812   6811   6823   6825     1  0.0000000  0.6508444  3
   6813   6811   6810   6814     1  0.0000000  0.6508444  3
   6813   6811   6810   6817     1  0.0000000  0.6508444  3
   6813   6811   6810   6839     1  0.0000000  0.6508444  3
   6813   6811   6823   6835     1  0.0000000  0.6508444  3
   6813   6811   6823   6824     1  0.0000000  0.6508444  3
   6813   6811   6823   6825     1  0.0000000  0.6508444  3
   6814   6810   6817   6818     1  0.0000000  0.6508444  3
   6814   6810   6817   6819     1  0.0000000  0.6508444  3
   6814   6826   6832   6833     1  0.0000000  0.6508444  3
   6814   6826   6832   6834     1  0.0000000  0.6508444  3
   6815   6814   6810   6817     1  0.0000000  0.6508444  3
   6815   6814   6810   6839     1  0.0000000  0.6508444  3
   6815   6814   6826   6832     1  0.0000000  0.6508444  3
   6815   6814   6826   6827     1  0.0000000  0.6508444  3
   6815   6814   6826   6828     1  0.0000000  0.6508444  3
   6816   6814   6810   6817     1  0.0000000  0.6508444  3
   6816   6814   6810   6839     1  0.0000000  0.6508444  3
   6816   6814   6826   6832     1  0.0000000  0.6508444  3
   6816   6814   6826   6827     1  0.0000000  0.6508444  3
   6816   6814   6826   6828     1  0.0000000  0.6508444  3
   6817   6820   6829   6830     1  0.0000000  0.6508444  3
   6817   6820   6829   6831     1  0.0000000  0.6508444  3
   6818   6817   6810   6839     1  0.0000000  0.6508444  3
   6818   6817   6820   6829     1  0.0000000  0.6508444  3
   6818   6817   6820   6821     1  0.0000000  0.6508444  3
   6818   6817   6820   6822     1  0.0000000  0.6508444  3
   6819   6817   6810   6839     1  0.0000000  0.6508444  3
   6819   6817   6820   6829     1  0.0000000  0.6508444  3
   6819   6817   6820   6821     1  0.0000000  0.6508444  3
   6819   6817   6820   6822     1  0.0000000  0.6508444  3
   6820   6817   6810   6839     1  0.0000000  0.6508444  3
   6821   6820   6829   6838     1  0.0000000  1.0460000  1
   6821   6820   6829   6838     1  0.0000000  0.0000000  3
   6821   6820   6829   6830     1  0.0000000  0.6508444  3
   6821   6820   6829   6831     1  0.0000000  0.6508444  3
   6822   6820   6829   6838     1  0.0000000  1.0460000  1
   6822   6820   6829   6838     1  0.0000000  0.0000000  3
   6822   6820   6829   6830     1  0.0000000  0.6508444  3
   6822   6820   6829   6831     1  0.0000000  0.6508444  3
   6823   6811   6810   6839     1  0.0000000  0.6508444  3
   6824   6823   6835  12299     1  0.0000000  1.0460000  1
   6824   6823   6835  12299     1  0.0000000  0.0000000  3
   6824   6823   6835   6836     1  0.0000000  0.6508444  3
   6824   6823   6835   6837     1  0.0000000  0.6508444  3
   6825   6823   6835  12299     1  0.0000000  1.0460000  1
   6825   6823   6835  12299     1  0.0000000  0.0000000  3
   6825   6823   6835   6836     1  0.0000000  0.6508444  3
   6825   6823   6835   6837     1  0.0000000  0.6508444  3
   6826   6814   6810   6839     1  0.0000000  0.6508444  3
   6827   6826   6832  12276     1  0.0000000  1.0460000  1
   6827   6826   6832  12276     1  0.0000000  0.0000000  3
   6827   6826   6832   6833     1  0.0000000  0.6508444  3
   6827   6826   6832   6834     1  0.0000000  0.6508444  3
   6828   6826   6832  12276     1  0.0000000  1.0460000  1
   6828   6826   6832  12276     1  0.0000000  0.0000000  3
   6828   6826   6832   6833     1  0.0000000  0.6508444  3
   6828   6826   6832   6834     1  0.0000000  0.6508444  3
   6832  12276  12272  12275     1  0.0000000  1.6038667  3
   6833   6832  12276  12272     1  0.0000000  1.6038667  3
   6834   6832  12276  12272     1  0.0000000  1.6038667  3
   6835  12299  12295  12298     1  0.0000000  1.6038667  3
   6836   6835  12299  12295     1  0.0000000  1.6038667  3
   6837   6835  12299  12295     1  0.0000000  1.6038667  3
   6840   6841   6853   6854     1  0.0000000  0.6508444  3
   6840   6841   6853   6855     1  0.0000000  0.6508444  3
   6840   6844   6856   6857     1  0.0000000  0.6508444  3
   6840   6844   6856   6858     1  0.0000000  0.6508444  3
   6840   6847   6850   6851     1  0.0000000  0.6508444  3
   6840   6847   6850   6852     1  0.0000000  0.6508444  3
   6841   6840   6844   6845     1  0.0000000  0.6508444  3
   6841   6840   6844   6846     1  0.0000000  0.6508444  3
   6841   6840   6847   6848     1  0.0000000  0.6508444  3
   6841   6840   6847   6849     1  0.0000000  0.6508444  3
   6841   6853   6865   6866     1  0.0000000  0.6508444  3
   6841   6853   6865   6867     1  0.0000000  0.6508444  3
   6842   6841   6840   6844     1  0.0000000  0.6508444  3
   6842   6841   6840   6847     1  0.0000000  0.6508444  3
   6842   6841   6840   6869     1  0.0000000  0.6508444  3
   6842   6841   6853   6865     1  0.0000000  0.6508444  3
   6842   6841   6853   6854     1  0.0000000  0.6508444  3
   6842   6841   6853   6855     1  0.0000000  0.6508444  3
   6843   6841   6840   6844     1  0.0000000  0.6508444  3
   6843   6841   6840   6847     1  0.0000000  0.6508444  3
   6843   6841   6840   6869     1  0.0000000  0.6508444  3
   6843   6841   6853   6865     1  0.0000000  0.6508444  3
   6843   6841   6853   6854     1  0.0000000  0.6508444  3
   6843   6841   6853   6855     1  0.0000000  0.6508444  3
   6844   6840   6847   6848     1  0.0000000  0.6508444  3
   6844   6840   6847   6849     1  0.0000000  0.6508444  3
   6844   6856   6862   6863     1  0.0000000  0.6508444  3
   6844   6856   6862   6864     1  0.0000000  0.6508444  3
   6845   6844   6840   6847     1  0.0000000  0.6508444  3
   6845   6844   6840   6869     1  0.0000000  0.6508444  3
   6845   6844   6856   6862     1  0.0000000  0.6508444  3
   6845   6844   6856   6857     1  0.0000000  0.6508444  3
   6845   6844   6856   6858     1  0.0000000  0.6508444  3
   6846   6844   6840   6847     1  0.0000000  0.6508444  3
   6846   6844   6840   6869     1  0.0000000  0.6508444  3
   6846   6844   6856   6862     1  0.0000000  0.6508444  3
   6846   6844   6856   6857     1  0.0000000  0.6508444  3
   6846   6844   6856   6858     1  0.0000000  0.6508444  3
   6847   6850   6859   6860     1  0.0000000  0.6508444  3
   6847   6850   6859   6861     1  0.0000000  0.6508444  3
   6848   6847   6840   6869     1  0.0000000  0.6508444  3
   6848   6847   6850   6859     1  0.0000000  0.6508444  3
   6848   6847   6850   6851     1  0.0000000  0.6508444  3
   6848   6847   6850   6852     1  0.0000000  0.6508444  3
   6849   6847   6840   6869     1  0.0000000  0.6508444  3
   6849   6847   6850   6859     1  0.0000000  0.6508444  3
   6849   6847   6850   6851     1  0.0000000  0.6508444  3
   6849   6847   6850   6852     1  0.0000000  0.6508444  3
   6850   6847   6840   6869     1  0.0000000  0.6508444  3
   6851   6850   6859   6868     1  0.0000000  1.0460000  1
   6851   6850   6859   6868     1  0.0000000  0.0000000  3
   6851   6850   6859   6860     1  0.0000000  0.6508444  3
   6851   6850   6859   6861     1  0.0000000  0.6508444  3
   6852   6850   6859   6868     1  0.0000000  1.0460000  1
   6852   6850   6859   6868     1  0.0000000  0.0000000  3
   6852   6850   6859   6860     1  0.0000000  0.6508444  3
   6852   6850   6859   6861     1  0.0000000  0.6508444  3
   6853   6841   6840   6869     1  0.0000000  0.6508444  3
   6854   6853   6865  12345     1  0.0000000  1.0460000  1
   6854   6853   6865  12345     1  0.0000000  0.0000000  3
   6854   6853   6865   6866     1  0.0000000  0.6508444  3
   6854   6853   6865   6867     1  0.0000000  0.6508444  3
   6855   6853   6865  12345     1  0.0000000  1.0460000  1
   6855   6853   6865  12345     1  0.0000000  0.0000000  3
   6855   6853   6865   6866     1  0.0000000  0.6508444  3
   6855   6853   6865   6867     1  0.0000000  0.6508444  3
   6856   6844   6840   6869     1  0.0000000  0.6508444  3
   6857   6856   6862  12322     1  0.0000000  1.0460000  1
   6857   6856   6862  12322     1  0.0000000  0.0000000  3
   6857   6856   6862   6863     1  0.0000000  0.6508444  3
   6857   6856   6862   6864     1  0.0000000  0.6508444  3
   6858   6856   6862  12322     1  0.0000000  1.0460000  1
   6858   6856   6862  12322     1  0.0000000  0.0000000  3
   6858   6856   6862   6863     1  0.0000000  0.6508444  3
   6858   6856   6862   6864     1  0.0000000  0.6508444  3
   6862  12322  12318  12321     1  0.0000000  1.6038667  3
   6863   6862  12322  12318     1  0.0000000  1.6038667  3
   6864   6862  12322  12318     1  0.0000000  1.6038667  3
   6865  12345  12341  12344     1  0.0000000  1.6038667  3
   6866   6865  12345  12341     1  0.0000000  1.6038667  3
   6867   6865  12345  12341     1  0.0000000  1.6038667  3
   6870   6871   6883   6884     1  0.0000000  0.6508444  3
   6870   6871   6883   6885     1  0.0000000  0.6508444  3
   6870   6874   6886   6887     1  0.0000000  0.6508444  3
   6870   6874   6886   6888     1  0.0000000  0.6508444  3
   6870   6877   6880   6881     1  0.0000000  0.6508444  3
   6870   6877   6880   6882     1  0.0000000  0.6508444  3
   6871   6870   6874   6875     1  0.0000000  0.6508444  3
   6871   6870   6874   6876     1  0.0000000  0.6508444  3
   6871   6870   6877   6878     1  0.0000000  0.6508444  3
   6871   6870   6877   6879     1  0.0000000  0.6508444  3
   6871   6883   6895   6896     1  0.0000000  0.6508444  3
   6871   6883   6895   6897     1  0.0000000  0.6508444  3
   6872   6871   6870   6874     1  0.0000000  0.6508444  3
   6872   6871   6870   6877     1  0.0000000  0.6508444  3
   6872   6871   6870   6899     1  0.0000000  0.6508444  3
   6872   6871   6883   6895     1  0.0000000  0.6508444  3
   6872   6871   6883   6884     1  0.0000000  0.6508444  3
   6872   6871   6883   6885     1  0.0000000  0.6508444  3
   6873   6871   6870   6874     1  0.0000000  0.6508444  3
   6873   6871   6870   6877     1  0.0000000  0.6508444  3
   6873   6871   6870   6899     1  0.0000000  0.6508444  3
   6873   6871   6883   6895     1  0.0000000  0.6508444  3
   6873   6871   6883   6884     1  0.0000000  0.6508444  3
   6873   6871   6883   6885     1  0.0000000  0.6508444  3
   6874   6870   6877   6878     1  0.0000000  0.6508444  3
   6874   6870   6877   6879     1  0.0000000  0.6508444  3
   6874   6886   6892   6893     1  0.0000000  0.6508444  3
   6874   6886   6892   6894     1  0.0000000  0.6508444  3
   6875   6874   6870   6877     1  0.0000000  0.6508444  3
   6875   6874   6870   6899     1  0.0000000  0.6508444  3
   6875   6874   6886   6892     1  0.0000000  0.6508444  3
   6875   6874   6886   6887     1  0.0000000  0.6508444  3
   6875   6874   6886   6888     1  0.0000000  0.6508444  3
   6876   6874   6870   6877     1  0.0000000  0.6508444  3
   6876   6874   6870   6899     1  0.0000000  0.6508444  3
   6876   6874   6886   6892     1  0.0000000  0.6508444  3
   6876   6874   6886   6887     1  0.0000000  0.6508444  3
   6876   6874   6886   6888     1  0.0000000  0.6508444  3
   6877   6880   6889   6890     1  0.0000000  0.6508444  3
   6877   6880   6889   6891     1  0.0000000  0.6508444  3
   6878   6877   6870   6899     1  0.0000000  0.6508444  3
   6878   6877   6880   6889     1  0.0000000  0.6508444  3
   6878   6877   6880   6881     1  0.0000000  0.6508444  3
   6878   6877   6880   6882     1  0.0000000  0.6508444  3
   6879   6877   6870   6899     1  0.0000000  0.6508444  3
   6879   6877   6880   6889     1  0.0000000  0.6508444  3
   6879   6877   6880   6881     1  0.0000000  0.6508444  3
   6879   6877   6880   6882     1  0.0000000  0.6508444  3
   6880   6877   6870   6899     1  0.0000000  0.6508444  3
   6881   6880   6889   6898     1  0.0000000  1.0460000  1
   6881   6880   6889   6898     1  0.0000000  0.0000000  3
   6881   6880   6889   6890     1  0.0000000  0.6508444  3
   6881   6880   6889   6891     1  0.0000000  0.6508444  3
   6882   6880   6889   6898     1  0.0000000  1.0460000  1
   6882   6880   6889   6898     1  0.0000000  0.0000000  3
   6882   6880   6889   6890     1  0.0000000  0.6508444  3
   6882   6880   6889   6891     1  0.0000000  0.6508444  3
   6883   6871   6870   6899     1  0.0000000  0.6508444  3
   6884   6883   6895  12391     1  0.0000000  1.0460000  1
   6884   6883   6895  12391     1  0.0000000  0.0000000  3
   6884   6883   6895   6896     1  0.0000000  0.6508444  3
   6884   6883   6895   6897     1  0.0000000  0.6508444  3
   6885   6883   6895  12391     1  0.0000000  1.0460000  1
   6885   6883   6895  12391     1  0.0000000  0.0000000  3
   6885   6883   6895   6896     1  0.0000000  0.6508444  3
   6885   6883   6895   6897     1  0.0000000  0.6508444  3
   6886   6874   6870   6899     1  0.0000000  0.6508444  3
   6887   6886   6892  12368     1  0.0000000  1.0460000  1
   6887   6886   6892  12368     1  0.0000000  0.0000000  3
   6887   6886   6892   6893     1  0.0000000  0.6508444  3
   6887   6886   6892   6894     1  0.0000000  0.6508444  3
   6888   6886   6892  12368     1  0.0000000  1.0460000  1
   6888   6886   6892  12368     1  0.0000000  0.0000000  3
   6888   6886   6892   6893     1  0.0000000  0.6508444  3
   6888   6886   6892   6894     1  0.0000000  0.6508444  3
   6892  12368  12364  12367     1  0.0000000  1.6038667  3
   6893   6892  12368  12364     1  0.0000000  1.6038667  3
   6894   6892  12368  12364     1  0.0000000  1.6038667  3
   6895  12391  12387  12390     1  0.0000000  1.6038667  3
   6896   6895  12391  12387     1  0.0000000  1.6038667  3
   6897   6895  12391  12387     1  0.0000000  1.6038667  3
   6900   6901   6913   6914     1  0.0000000  0.6508444  3
   6900   6901   6913   6915     1  0.0000000  0.6508444  3
   6900   6904   6916   6917     1  0.0000000  0.6508444  3
   6900   6904   6916   6918     1  0.0000000  0.6508444  3
   6900   6907   6910   6911     1  0.0000000  0.6508444  3
   6900   6907   6910   6912     1  0.0000000  0.6508444  3
   6901   6900   6904   6905     1  0.0000000  0.6508444  3
   6901   6900   6904   6906     1  0.0000000  0.6508444  3
   6901   6900   6907   6908     1  0.0000000  0.6508444  3
   6901   6900   6907   6909     1  0.0000000  0.6508444  3
   6901   6913   6925   6926     1  0.0000000  0.6508444  3
   6901   6913   6925   6927     1  0.0000000  0.6508444  3
   6902   6901   6900   6904     1  0.0000000  0.6508444  3
   6902   6901   6900   6907     1  0.0000000  0.6508444  3
   6902   6901   6900   6929     1  0.0000000  0.6508444  3
   6902   6901   6913   6925     1  0.0000000  0.6508444  3
   6902   6901   6913   6914     1  0.0000000  0.6508444  3
   6902   6901   6913   6915     1  0.0000000  0.6508444  3
   6903   6901   6900   6904     1  0.0000000  0.6508444  3
   6903   6901   6900   6907     1  0.0000000  0.6508444  3
   6903   6901   6900   6929     1  0.0000000  0.6508444  3
   6903   6901   6913   6925     1  0.0000000  0.6508444  3
   6903   6901   6913   6914     1  0.0000000  0.6508444  3
   6903   6901   6913   6915     1  0.0000000  0.6508444  3
   6904   6900   6907   6908     1  0.0000000  0.6508444  3
   6904   6900   6907   6909     1  0.0000000  0.6508444  3
   6904   6916   6922   6923     1  0.0000000  0.6508444  3
   6904   6916   6922   6924     1  0.0000000  0.6508444  3
   6905   6904   6900   6907     1  0.0000000  0.6508444  3
   6905   6904   6900   6929     1  0.0000000  0.6508444  3
   6905   6904   6916   6922     1  0.0000000  0.6508444  3
   6905   6904   6916   6917     1  0.0000000  0.6508444  3
   6905   6904   6916   6918     1  0.0000000  0.6508444  3
   6906   6904   6900   6907     1  0.0000000  0.6508444  3
   6906   6904   6900   6929     1  0.0000000  0.6508444  3
   6906   6904   6916   6922     1  0.0000000  0.6508444  3
   6906   6904   6916   6917     1  0.0000000  0.6508444  3
   6906   6904   6916   6918     1  0.0000000  0.6508444  3
   6907   6910   6919   6920     1  0.0000000  0.6508444  3
   6907   6910   6919   6921     1  0.0000000  0.6508444  3
   6908   6907   6900   6929     1  0.0000000  0.6508444  3
   6908   6907   6910   6919     1  0.0000000  0.6508444  3
   6908   6907   6910   6911     1  0.0000000  0.6508444  3
   6908   6907   6910   6912     1  0.0000000  0.6508444  3
   6909   6907   6900   6929     1  0.0000000  0.6508444  3
   6909   6907   6910   6919     1  0.0000000  0.6508444  3
   6909   6907   6910   6911     1  0.0000000  0.6508444  3
   6909   6907   6910   6912     1  0.0000000  0.6508444  3
   6910   6907   6900   6929     1  0.0000000  0.6508444  3
   6911   6910   6919   6928     1  0.0000000  1.0460000  1
   6911   6910   6919   6928     1  0.0000000  0.0000000  3
   6911   6910   6919   6920     1  0.0000000  0.6508444  3
   6911   6910   6919   6921     1  0.0000000  0.6508444  3
   6912   6910   6919   6928     1  0.0000000  1.0460000  1
   6912   6910   6919   6928     1  0.0000000  0.0000000  3
   6912   6910   6919   6920     1  0.0000000  0.6508444  3
   6912   6910   6919   6921     1  0.0000000  0.6508444  3
   6913   6901   6900   6929     1  0.0000000  0.6508444  3
   6914   6913   6925  12437     1  0.0000000  1.0460000  1
   6914   6913   6925  12437     1  0.0000000  0.0000000  3
   6914   6913   6925   6926     1  0.0000000  0.6508444  3
   6914   6913   6925   6927     1  0.0000000  0.6508444  3
   6915   6913   6925  12437     1  0.0000000  1.0460000  1
   6915   6913   6925  12437     1  0.0000000  0.0000000  3
   6915   6913   6925   6926     1  0.0000000  0.6508444  3
   6915   6913   6925   6927     1  0.0000000  0.6508444  3
   6916   6904   6900   6929     1  0.0000000  0.6508444  3
   6917   6916   6922  12414     1  0.0000000  1.0460000  1
   6917   6916   6922  12414     1  0.0000000  0.0000000  3
   6917   6916   6922   6923     1  0.0000000  0.6508444  3
   6917   6916   6922   6924     1  0.0000000  0.6508444  3
   6918   6916   6922  12414     1  0.0000000  1.0460000  1
   6918   6916   6922  12414     1  0.0000000  0.0000000  3
   6918   6916   6922   6923     1  0.0000000  0.6508444  3
   6918   6916   6922   6924     1  0.0000000  0.6508444  3
   6922  12414  12410  12413     1  0.0000000  1.6038667  3
   6923   6922  12414  12410     1  0.0000000  1.6038667  3
   6924   6922  12414  12410     1  0.0000000  1.6038667  3
   6925  12437  12433  12436     1  0.0000000  1.6038667  3
   6926   6925  12437  12433     1  0.0000000  1.6038667  3
   6927   6925  12437  12433     1  0.0000000  1.6038667  3
   6930   6931   6943   6944     1  0.0000000  0.6508444  3
   6930   6931   6943   6945     1  0.0000000  0.6508444  3
   6930   6934   6946   6947     1  0.0000000  0.6508444  3
   6930   6934   6946   6948     1  0.0000000  0.6508444  3
   6930   6937   6940   6941     1  0.0000000  0.6508444  3
   6930   6937   6940   6942     1  0.0000000  0.6508444  3
   6931   6930   6934   6935     1  0.0000000  0.6508444  3
   6931   6930   6934   6936     1  0.0000000  0.6508444  3
   6931   6930   6937   6938     1  0.0000000  0.6508444  3
   6931   6930   6937   6939     1  0.0000000  0.6508444  3
   6931   6943   6955   6956     1  0.0000000  0.6508444  3
   6931   6943   6955   6957     1  0.0000000  0.6508444  3
   6932   6931   6930   6934     1  0.0000000  0.6508444  3
   6932   6931   6930   6937     1  0.0000000  0.6508444  3
   6932   6931   6930   6959     1  0.0000000  0.6508444  3
   6932   6931   6943   6955     1  0.0000000  0.6508444  3
   6932   6931   6943   6944     1  0.0000000  0.6508444  3
   6932   6931   6943   6945     1  0.0000000  0.6508444  3
   6933   6931   6930   6934     1  0.0000000  0.6508444  3
   6933   6931   6930   6937     1  0.0000000  0.6508444  3
   6933   6931   6930   6959     1  0.0000000  0.6508444  3
   6933   6931   6943   6955     1  0.0000000  0.6508444  3
   6933   6931   6943   6944     1  0.0000000  0.6508444  3
   6933   6931   6943   6945     1  0.0000000  0.6508444  3
   6934   6930   6937   6938     1  0.0000000  0.6508444  3
   6934   6930   6937   6939     1  0.0000000  0.6508444  3
   6934   6946   6952   6953     1  0.0000000  0.6508444  3
   6934   6946   6952   6954     1  0.0000000  0.6508444  3
   6935   6934   6930   6937     1  0.0000000  0.6508444  3
   6935   6934   6930   6959     1  0.0000000  0.6508444  3
   6935   6934   6946   6952     1  0.0000000  0.6508444  3
   6935   6934   6946   6947     1  0.0000000  0.6508444  3
   6935   6934   6946   6948     1  0.0000000  0.6508444  3
   6936   6934   6930   6937     1  0.0000000  0.6508444  3
   6936   6934   6930   6959     1  0.0000000  0.6508444  3
   6936   6934   6946   6952     1  0.0000000  0.6508444  3
   6936   6934   6946   6947     1  0.0000000  0.6508444  3
   6936   6934   6946   6948     1  0.0000000  0.6508444  3
   6937   6940   6949   6950     1  0.0000000  0.6508444  3
   6937   6940   6949   6951     1  0.0000000  0.6508444  3
   6938   6937   6930   6959     1  0.0000000  0.6508444  3
   6938   6937   6940   6949     1  0.0000000  0.6508444  3
   6938   6937   6940   6941     1  0.0000000  0.6508444  3
   6938   6937   6940   6942     1  0.0000000  0.6508444  3
   6939   6937   6930   6959     1  0.0000000  0.6508444  3
   6939   6937   6940   6949     1  0.0000000  0.6508444  3
   6939   6937   6940   6941     1  0.0000000  0.6508444  3
   6939   6937   6940   6942     1  0.0000000  0.6508444  3
   6940   6937   6930   6959     1  0.0000000  0.6508444  3
   6941   6940   6949   6958     1  0.0000000  1.0460000  1
   6941   6940   6949   6958     1  0.0000000  0.0000000  3
   6941   6940   6949   6950     1  0.0000000  0.6508444  3
   6941   6940   6949   6951     1  0.0000000  0.6508444  3
   6942   6940   6949   6958     1  0.0000000  1.0460000  1
   6942   6940   6949   6958     1  0.0000000  0.0000000  3
   6942   6940   6949   6950     1  0.0000000  0.6508444  3
   6942   6940   6949   6951     1  0.0000000  0.6508444  3
   6943   6931   6930   6959     1  0.0000000  0.6508444  3
   6944   6943   6955  12483     1  0.0000000  1.0460000  1
   6944   6943   6955  12483     1  0.0000000  0.0000000  3
   6944   6943   6955   6956     1  0.0000000  0.6508444  3
   6944   6943   6955   6957     1  0.0000000  0.6508444  3
   6945   6943   6955  12483     1  0.0000000  1.0460000  1
   6945   6943   6955  12483     1  0.0000000  0.0000000  3
   6945   6943   6955   6956     1  0.0000000  0.6508444  3
   6945   6943   6955   6957     1  0.0000000  0.6508444  3
   6946   6934   6930   6959     1  0.0000000  0.6508444  3
   6947   6946   6952  12460     1  0.0000000  1.0460000  1
   6947   6946   6952  12460     1  0.0000000  0.0000000  3
   6947   6946   6952   6953     1  0.0000000  0.6508444  3
   6947   6946   6952   6954     1  0.0000000  0.6508444  3
   6948   6946   6952  12460     1  0.0000000  1.0460000  1
   6948   6946   6952  12460     1  0.0000000  0.0000000  3
   6948   6946   6952   6953     1  0.0000000  0.6508444  3
   6948   6946   6952   6954     1  0.0000000  0.6508444  3
   6952  12460  12456  12459     1  0.0000000  1.6038667  3
   6953   6952  12460  12456     1  0.0000000  1.6038667  3
   6954   6952  12460  12456     1  0.0000000  1.6038667  3
   6955  12483  12479  12482     1  0.0000000  1.6038667  3
   6956   6955  12483  12479     1  0.0000000  1.6038667  3
   6957   6955  12483  12479     1  0.0000000  1.6038667  3
   6960   6961   6973   6974     1  0.0000000  0.6508444  3
   6960   6961   6973   6975     1  0.0000000  0.6508444  3
   6960   6964   6976   6977     1  0.0000000  0.6508444  3
   6960   6964   6976   6978     1  0.0000000  0.6508444  3
   6960   6967   6970   6971     1  0.0000000  0.6508444  3
   6960   6967   6970   6972     1  0.0000000  0.6508444  3
   6961   6960   6964   6965     1  0.0000000  0.6508444  3
   6961   6960   6964   6966     1  0.0000000  0.6508444  3
   6961   6960   6967   6968     1  0.0000000  0.6508444  3
   6961   6960   6967   6969     1  0.0000000  0.6508444  3
   6961   6973   6985   6986     1  0.0000000  0.6508444  3
   6961   6973   6985   6987     1  0.0000000  0.6508444  3
   6962   6961   6960   6964     1  0.0000000  0.6508444  3
   6962   6961   6960   6967     1  0.0000000  0.6508444  3
   6962   6961   6960   6989     1  0.0000000  0.6508444  3
   6962   6961   6973   6985     1  0.0000000  0.6508444  3
   6962   6961   6973   6974     1  0.0000000  0.6508444  3
   6962   6961   6973   6975     1  0.0000000  0.6508444  3
   6963   6961   6960   6964     1  0.0000000  0.6508444  3
   6963   6961   6960   6967     1  0.0000000  0.6508444  3
   6963   6961   6960   6989     1  0.0000000  0.6508444  3
   6963   6961   6973   6985     1  0.0000000  0.6508444  3
   6963   6961   6973   6974     1  0.0000000  0.6508444  3
   6963   6961   6973   6975     1  0.0000000  0.6508444  3
   6964   6960   6967   6968     1  0.0000000  0.6508444  3
   6964   6960   6967   6969     1  0.0000000  0.6508444  3
   6964   6976   6982   6983     1  0.0000000  0.6508444  3
   6964   6976   6982   6984     1  0.0000000  0.6508444  3
   6965   6964   6960   6967     1  0.0000000  0.6508444  3
   6965   6964   6960   6989     1  0.0000000  0.6508444  3
   6965   6964   6976   6982     1  0.0000000  0.6508444  3
   6965   6964   6976   6977     1  0.0000000  0.6508444  3
   6965   6964   6976   6978     1  0.0000000  0.6508444  3
   6966   6964   6960   6967     1  0.0000000  0.6508444  3
   6966   6964   6960   6989     1  0.0000000  0.6508444  3
   6966   6964   6976   6982     1  0.0000000  0.6508444  3
   6966   6964   6976   6977     1  0.0000000  0.6508444  3
   6966   6964   6976   6978     1  0.0000000  0.6508444  3
   6967   6970   6979   6980     1  0.0000000  0.6508444  3
   6967   6970   6979   6981     1  0.0000000  0.6508444  3
   6968   6967   6960   6989     1  0.0000000  0.6508444  3
   6968   6967   6970   6979     1  0.0000000  0.6508444  3
   6968   6967   6970   6971     1  0.0000000  0.6508444  3
   6968   6967   6970   6972     1  0.0000000  0.6508444  3
   6969   6967   6960   6989     1  0.0000000  0.6508444  3
   6969   6967   6970   6979     1  0.0000000  0.6508444  3
   6969   6967   6970   6971     1  0.0000000  0.6508444  3
   6969   6967   6970   6972     1  0.0000000  0.6508444  3
   6970   6967   6960   6989     1  0.0000000  0.6508444  3
   6971   6970   6979   6988     1  0.0000000  1.0460000  1
   6971   6970   6979   6988     1  0.0000000  0.0000000  3
   6971   6970   6979   6980     1  0.0000000  0.6508444  3
   6971   6970   6979   6981     1  0.0000000  0.6508444  3
   6972   6970   6979   6988     1  0.0000000  1.0460000  1
   6972   6970   6979   6988     1  0.0000000  0.0000000  3
   6972   6970   6979   6980     1  0.0000000  0.6508444  3
   6972   6970   6979   6981     1  0.0000000  0.6508444  3
   6973   6961   6960   6989     1  0.0000000  0.6508444  3
   6974   6973   6985  12529     1  0.0000000  1.0460000  1
   6974   6973   6985  12529     1  0.0000000  0.0000000  3
   6974   6973   6985   6986     1  0.0000000  0.6508444  3
   6974   6973   6985   6987     1  0.0000000  0.6508444  3
   6975   6973   6985  12529     1  0.0000000  1.0460000  1
   6975   6973   6985  12529     1  0.0000000  0.0000000  3
   6975   6973   6985   6986     1  0.0000000  0.6508444  3
   6975   6973   6985   6987     1  0.0000000  0.6508444  3
   6976   6964   6960   6989     1  0.0000000  0.6508444  3
   6977   6976   6982  12506     1  0.0000000  1.0460000  1
   6977   6976   6982  12506     1  0.0000000  0.0000000  3
   6977   6976   6982   6983     1  0.0000000  0.6508444  3
   6977   6976   6982   6984     1  0.0000000  0.6508444  3
   6978   6976   6982  12506     1  0.0000000  1.0460000  1
   6978   6976   6982  12506     1  0.0000000  0.0000000  3
   6978   6976   6982   6983     1  0.0000000  0.6508444  3
   6978   6976   6982   6984     1  0.0000000  0.6508444  3
   6982  12506  12502  12505     1  0.0000000  1.6038667  3
   6983   6982  12506  12502     1  0.0000000  1.6038667  3
   6984   6982  12506  12502     1  0.0000000  1.6038667  3
   6985  12529  12525  12528     1  0.0000000  1.6038667  3
   6986   6985  12529  12525     1  0.0000000  1.6038667  3
   6987   6985  12529  12525     1  0.0000000  1.6038667  3
   6990   6991   7003   7004     1  0.0000000  0.6508444  3
   6990   6991   7003   7005     1  0.0000000  0.6508444  3
   6990   6994   7006   7007     1  0.0000000  0.6508444  3
   6990   6994   7006   7008     1  0.0000000  0.6508444  3
   6990   6997   7000   7001     1  0.0000000  0.6508444  3
   6990   6997   7000   7002     1  0.0000000  0.6508444  3
   6991   6990   6994   6995     1  0.0000000  0.6508444  3
   6991   6990   6994   6996     1  0.0000000  0.6508444  3
   6991   6990   6997   6998     1  0.0000000  0.6508444  3
   6991   6990   6997   6999     1  0.0000000  0.6508444  3
   6991   7003   7015   7016     1  0.0000000  0.6508444  3
   6991   7003   7015   7017     1  0.0000000  0.6508444  3
   6992   6991   6990   6994     1  0.0000000  0.6508444  3
   6992   6991   6990   6997     1  0.0000000  0.6508444  3
   6992   6991   6990   7019     1  0.0000000  0.6508444  3
   6992   6991   7003   7015     1  0.0000000  0.6508444  3
   6992   6991   7003   7004     1  0.0000000  0.6508444  3
   6992   6991   7003   7005     1  0.0000000  0.6508444  3
   6993   6991   6990   6994     1  0.0000000  0.6508444  3
   6993   6991   6990   6997     1  0.0000000  0.6508444  3
   6993   6991   6990   7019     1  0.0000000  0.6508444  3
   6993   6991   7003   7015     1  0.0000000  0.6508444  3
   6993   6991   7003   7004     1  0.0000000  0.6508444  3
   6993   6991   7003   7005     1  0.0000000  0.6508444  3
   6994   6990   6997   6998     1  0.0000000  0.6508444  3
   6994   6990   6997   6999     1  0.0000000  0.6508444  3
   6994   7006   7012   7013     1  0.0000000  0.6508444  3
   6994   7006   7012   7014     1  0.0000000  0.6508444  3
   6995   6994   6990   6997     1  0.0000000  0.6508444  3
   6995   6994   6990   7019     1  0.0000000  0.6508444  3
   6995   6994   7006   7012     1  0.0000000  0.6508444  3
   6995   6994   7006   7007     1  0.0000000  0.6508444  3
   6995   6994   7006   7008     1  0.0000000  0.6508444  3
   6996   6994   6990   6997     1  0.0000000  0.6508444  3
   6996   6994   6990   7019     1  0.0000000  0.6508444  3
   6996   6994   7006   7012     1  0.0000000  0.6508444  3
   6996   6994   7006   7007     1  0.0000000  0.6508444  3
   6996   6994   7006   7008     1  0.0000000  0.6508444  3
   6997   7000   7009   7010     1  0.0000000  0.6508444  3
   6997   7000   7009   7011     1  0.0000000  0.6508444  3
   6998   6997   6990   7019     1  0.0000000  0.6508444  3
   6998   6997   7000   7009     1  0.0000000  0.6508444  3
   6998   6997   7000   7001     1  0.0000000  0.6508444  3
   6998   6997   7000   7002     1  0.0000000  0.6508444  3
   6999   6997   6990   7019     1  0.0000000  0.6508444  3
   6999   6997   7000   7009     1  0.0000000  0.6508444  3
   6999   6997   7000   7001     1  0.0000000  0.6508444  3
   6999   6997   7000   7002     1  0.0000000  0.6508444  3
   7000   6997   6990   7019     1  0.0000000  0.6508444  3
   7001   7000   7009   7018     1  0.0000000  1.0460000  1
   7001   7000   7009   7018     1  0.0000000  0.0000000  3
   7001   7000   7009   7010     1  0.0000000  0.6508444  3
   7001   7000   7009   7011     1  0.0000000  0.6508444  3
   7002   7000   7009   7018     1  0.0000000  1.0460000  1
   7002   7000   7009   7018     1  0.0000000  0.0000000  3
   7002   7000   7009   7010     1  0.0000000  0.6508444  3
   7002   7000   7009   7011     1  0.0000000  0.6508444  3
   7003   6991   6990   7019     1  0.0000000  0.6508444  3
   7004   7003   7015  12575     1  0.0000000  1.0460000  1
   7004   7003   7015  12575     1  0.0000000  0.0000000  3
   7004   7003   7015   7016     1  0.0000000  0.6508444  3
   7004   7003   7015   7017     1  0.0000000  0.6508444  3
   7005   7003   7015  12575     1  0.0000000  1.0460000  1
   7005   7003   7015  12575     1  0.0000000  0.0000000  3
   7005   7003   7015   7016     1  0.0000000  0.6508444  3
   7005   7003   7015   7017     1  0.0000000  0.6508444  3
   7006   6994   6990   7019     1  0.0000000  0.6508444  3
   7007   7006   7012  12552     1  0.0000000  1.0460000  1
   7007   7006   7012  12552     1  0.0000000  0.0000000  3
   7007   7006   7012   7013     1  0.0000000  0.6508444  3
   7007   7006   7012   7014     1  0.0000000  0.6508444  3
   7008   7006   7012  12552     1  0.0000000  1.0460000  1
   7008   7006   7012  12552     1  0.0000000  0.0000000  3
   7008   7006   7012   7013     1  0.0000000  0.6508444  3
   7008   7006   7012   7014     1  0.0000000  0.6508444  3
   7012  12552  12548  12551     1  0.0000000  1.6038667  3
   7013   7012  12552  12548     1  0.0000000  1.6038667  3
   7014   7012  12552  12548     1  0.0000000  1.6038667  3
   7015  12575  12571  12574     1  0.0000000  1.6038667  3
   7016   7015  12575  12571     1  0.0000000  1.6038667  3
   7017   7015  12575  12571     1  0.0000000  1.6038667  3
   7020   7021   7033   7034     1  0.0000000  0.6508444  3
   7020   7021   7033   7035     1  0.0000000  0.6508444  3
   7020   7024   7036   7037     1  0.0000000  0.6508444  3
   7020   7024   7036   7038     1  0.0000000  0.6508444  3
   7020   7027   7030   7031     1  0.0000000  0.6508444  3
   7020   7027   7030   7032     1  0.0000000  0.6508444  3
   7021   7020   7024   7025     1  0.0000000  0.6508444  3
   7021   7020   7024   7026     1  0.0000000  0.6508444  3
   7021   7020   7027   7028     1  0.0000000  0.6508444  3
   7021   7020   7027   7029     1  0.0000000  0.6508444  3
   7021   7033   7045   7046     1  0.0000000  0.6508444  3
   7021   7033   7045   7047     1  0.0000000  0.6508444  3
   7022   7021   7020   7024     1  0.0000000  0.6508444  3
   7022   7021   7020   7027     1  0.0000000  0.6508444  3
   7022   7021   7020   7049     1  0.0000000  0.6508444  3
   7022   7021   7033   7045     1  0.0000000  0.6508444  3
   7022   7021   7033   7034     1  0.0000000  0.6508444  3
   7022   7021   7033   7035     1  0.0000000  0.6508444  3
   7023   7021   7020   7024     1  0.0000000  0.6508444  3
   7023   7021   7020   7027     1  0.0000000  0.6508444  3
   7023   7021   7020   7049     1  0.0000000  0.6508444  3
   7023   7021   7033   7045     1  0.0000000  0.6508444  3
   7023   7021   7033   7034     1  0.0000000  0.6508444  3
   7023   7021   7033   7035     1  0.0000000  0.6508444  3
   7024   7020   7027   7028     1  0.0000000  0.6508444  3
   7024   7020   7027   7029     1  0.0000000  0.6508444  3
   7024   7036   7042   7043     1  0.0000000  0.6508444  3
   7024   7036   7042   7044     1  0.0000000  0.6508444  3
   7025   7024   7020   7027     1  0.0000000  0.6508444  3
   7025   7024   7020   7049     1  0.0000000  0.6508444  3
   7025   7024   7036   7042     1  0.0000000  0.6508444  3
   7025   7024   7036   7037     1  0.0000000  0.6508444  3
   7025   7024   7036   7038     1  0.0000000  0.6508444  3
   7026   7024   7020   7027     1  0.0000000  0.6508444  3
   7026   7024   7020   7049     1  0.0000000  0.6508444  3
   7026   7024   7036   7042     1  0.0000000  0.6508444  3
   7026   7024   7036   7037     1  0.0000000  0.6508444  3
   7026   7024   7036   7038     1  0.0000000  0.6508444  3
   7027   7030   7039   7040     1  0.0000000  0.6508444  3
   7027   7030   7039   7041     1  0.0000000  0.6508444  3
   7028   7027   7020   7049     1  0.0000000  0.6508444  3
   7028   7027   7030   7039     1  0.0000000  0.6508444  3
   7028   7027   7030   7031     1  0.0000000  0.6508444  3
   7028   7027   7030   7032     1  0.0000000  0.6508444  3
   7029   7027   7020   7049     1  0.0000000  0.6508444  3
   7029   7027   7030   7039     1  0.0000000  0.6508444  3
   7029   7027   7030   7031     1  0.0000000  0.6508444  3
   7029   7027   7030   7032     1  0.0000000  0.6508444  3
   7030   7027   7020   7049     1  0.0000000  0.6508444  3
   7031   7030   7039   7048     1  0.0000000  1.0460000  1
   7031   7030   7039   7048     1  0.0000000  0.0000000  3
   7031   7030   7039   7040     1  0.0000000  0.6508444  3
   7031   7030   7039   7041     1  0.0000000  0.6508444  3
   7032   7030   7039   7048     1  0.0000000  1.0460000  1
   7032   7030   7039   7048     1  0.0000000  0.0000000  3
   7032   7030   7039   7040     1  0.0000000  0.6508444  3
   7032   7030   7039   7041     1  0.0000000  0.6508444  3
   7033   7021   7020   7049     1  0.0000000  0.6508444  3
   7034   7033   7045  12621     1  0.0000000  1.0460000  1
   7034   7033   7045  12621     1  0.0000000  0.0000000  3
   7034   7033   7045   7046     1  0.0000000  0.6508444  3
   7034   7033   7045   7047     1  0.0000000  0.6508444  3
   7035   7033   7045  12621     1  0.0000000  1.0460000  1
   7035   7033   7045  12621     1  0.0000000  0.0000000  3
   7035   7033   7045   7046     1  0.0000000  0.6508444  3
   7035   7033   7045   7047     1  0.0000000  0.6508444  3
   7036   7024   7020   7049     1  0.0000000  0.6508444  3
   7037   7036   7042  12598     1  0.0000000  1.0460000  1
   7037   7036   7042  12598     1  0.0000000  0.0000000  3
   7037   7036   7042   7043     1  0.0000000  0.6508444  3
   7037   7036   7042   7044     1  0.0000000  0.6508444  3
   7038   7036   7042  12598     1  0.0000000  1.0460000  1
   7038   7036   7042  12598     1  0.0000000  0.0000000  3
   7038   7036   7042   7043     1  0.0000000  0.6508444  3
   7038   7036   7042   7044     1  0.0000000  0.6508444  3
   7042  12598  12594  12597     1  0.0000000  1.6038667  3
   7043   7042  12598  12594     1  0.0000000  1.6038667  3
   7044   7042  12598  12594     1  0.0000000  1.6038667  3
   7045  12621  12617  12620     1  0.0000000  1.6038667  3
   7046   7045  12621  12617     1  0.0000000  1.6038667  3
   7047   7045  12621  12617     1  0.0000000  1.6038667  3
   7050   7051   7063   7064     1  0.0000000  0.6508444  3
   7050   7051   7063   7065     1  0.0000000  0.6508444  3
   7050   7054   7066   7067     1  0.0000000  0.6508444  3
   7050   7054   7066   7068     1  0.0000000  0.6508444  3
   7050   7057   7060   7061     1  0.0000000  0.6508444  3
   7050   7057   7060   7062     1  0.0000000  0.6508444  3
   7051   7050   7054   7055     1  0.0000000  0.6508444  3
   7051   7050   7054   7056     1  0.0000000  0.6508444  3
   7051   7050   7057   7058     1  0.0000000  0.6508444  3
   7051   7050   7057   7059     1  0.0000000  0.6508444  3
   7051   7063   7075   7076     1  0.0000000  0.6508444  3
   7051   7063   7075   7077     1  0.0000000  0.6508444  3
   7052   7051   7050   7054     1  0.0000000  0.6508444  3
   7052   7051   7050   7057     1  0.0000000  0.6508444  3
   7052   7051   7050   7079     1  0.0000000  0.6508444  3
   7052   7051   7063   7075     1  0.0000000  0.6508444  3
   7052   7051   7063   7064     1  0.0000000  0.6508444  3
   7052   7051   7063   7065     1  0.0000000  0.6508444  3
   7053   7051   7050   7054     1  0.0000000  0.6508444  3
   7053   7051   7050   7057     1  0.0000000  0.6508444  3
   7053   7051   7050   7079     1  0.0000000  0.6508444  3
   7053   7051   7063   7075     1  0.0000000  0.6508444  3
   7053   7051   7063   7064     1  0.0000000  0.6508444  3
   7053   7051   7063   7065     1  0.0000000  0.6508444  3
   7054   7050   7057   7058     1  0.0000000  0.6508444  3
   7054   7050   7057   7059     1  0.0000000  0.6508444  3
   7054   7066   7072   7073     1  0.0000000  0.6508444  3
   7054   7066   7072   7074     1  0.0000000  0.6508444  3
   7055   7054   7050   7057     1  0.0000000  0.6508444  3
   7055   7054   7050   7079     1  0.0000000  0.6508444  3
   7055   7054   7066   7072     1  0.0000000  0.6508444  3
   7055   7054   7066   7067     1  0.0000000  0.6508444  3
   7055   7054   7066   7068     1  0.0000000  0.6508444  3
   7056   7054   7050   7057     1  0.0000000  0.6508444  3
   7056   7054   7050   7079     1  0.0000000  0.6508444  3
   7056   7054   7066   7072     1  0.0000000  0.6508444  3
   7056   7054   7066   7067     1  0.0000000  0.6508444  3
   7056   7054   7066   7068     1  0.0000000  0.6508444  3
   7057   7060   7069   7070     1  0.0000000  0.6508444  3
   7057   7060   7069   7071     1  0.0000000  0.6508444  3
   7058   7057   7050   7079     1  0.0000000  0.6508444  3
   7058   7057   7060   7069     1  0.0000000  0.6508444  3
   7058   7057   7060   7061     1  0.0000000  0.6508444  3
   7058   7057   7060   7062     1  0.0000000  0.6508444  3
   7059   7057   7050   7079     1  0.0000000  0.6508444  3
   7059   7057   7060   7069     1  0.0000000  0.6508444  3
   7059   7057   7060   7061     1  0.0000000  0.6508444  3
   7059   7057   7060   7062     1  0.0000000  0.6508444  3
   7060   7057   7050   7079     1  0.0000000  0.6508444  3
   7061   7060   7069   7078     1  0.0000000  1.0460000  1
   7061   7060   7069   7078     1  0.0000000  0.0000000  3
   7061   7060   7069   7070     1  0.0000000  0.6508444  3
   7061   7060   7069   7071     1  0.0000000  0.6508444  3
   7062   7060   7069   7078     1  0.0000000  1.0460000  1
   7062   7060   7069   7078     1  0.0000000  0.0000000  3
   7062   7060   7069   7070     1  0.0000000  0.6508444  3
   7062   7060   7069   7071     1  0.0000000  0.6508444  3
   7063   7051   7050   7079     1  0.0000000  0.6508444  3
   7064   7063   7075  12667     1  0.0000000  1.0460000  1
   7064   7063   7075  12667     1  0.0000000  0.0000000  3
   7064   7063   7075   7076     1  0.0000000  0.6508444  3
   7064   7063   7075   7077     1  0.0000000  0.6508444  3
   7065   7063   7075  12667     1  0.0000000  1.0460000  1
   7065   7063   7075  12667     1  0.0000000  0.0000000  3
   7065   7063   7075   7076     1  0.0000000  0.6508444  3
   7065   7063   7075   7077     1  0.0000000  0.6508444  3
   7066   7054   7050   7079     1  0.0000000  0.6508444  3
   7067   7066   7072  12644     1  0.0000000  1.0460000  1
   7067   7066   7072  12644     1  0.0000000  0.0000000  3
   7067   7066   7072   7073     1  0.0000000  0.6508444  3
   7067   7066   7072   7074     1  0.0000000  0.6508444  3
   7068   7066   7072  12644     1  0.0000000  1.0460000  1
   7068   7066   7072  12644     1  0.0000000  0.0000000  3
   7068   7066   7072   7073     1  0.0000000  0.6508444  3
   7068   7066   7072   7074     1  0.0000000  0.6508444  3
   7072  12644  12640  12643     1  0.0000000  1.6038667  3
   7073   7072  12644  12640     1  0.0000000  1.6038667  3
   7074   7072  12644  12640     1  0.0000000  1.6038667  3
   7075  12667  12663  12666     1  0.0000000  1.6038667  3
   7076   7075  12667  12663     1  0.0000000  1.6038667  3
   7077   7075  12667  12663     1  0.0000000  1.6038667  3
   7080   7081   7093   7094     1  0.0000000  0.6508444  3
   7080   7081   7093   7095     1  0.0000000  0.6508444  3
   7080   7084   7096   7097     1  0.0000000  0.6508444  3
   7080   7084   7096   7098     1  0.0000000  0.6508444  3
   7080   7087   7090   7091     1  0.0000000  0.6508444  3
   7080   7087   7090   7092     1  0.0000000  0.6508444  3
   7081   7080   7084   7085     1  0.0000000  0.6508444  3
   7081   7080   7084   7086     1  0.0000000  0.6508444  3
   7081   7080   7087   7088     1  0.0000000  0.6508444  3
   7081   7080   7087   7089     1  0.0000000  0.6508444  3
   7081   7093   7105   7106     1  0.0000000  0.6508444  3
   7081   7093   7105   7107     1  0.0000000  0.6508444  3
   7082   7081   7080   7084     1  0.0000000  0.6508444  3
   7082   7081   7080   7087     1  0.0000000  0.6508444  3
   7082   7081   7080   7109     1  0.0000000  0.6508444  3
   7082   7081   7093   7105     1  0.0000000  0.6508444  3
   7082   7081   7093   7094     1  0.0000000  0.6508444  3
   7082   7081   7093   7095     1  0.0000000  0.6508444  3
   7083   7081   7080   7084     1  0.0000000  0.6508444  3
   7083   7081   7080   7087     1  0.0000000  0.6508444  3
   7083   7081   7080   7109     1  0.0000000  0.6508444  3
   7083   7081   7093   7105     1  0.0000000  0.6508444  3
   7083   7081   7093   7094     1  0.0000000  0.6508444  3
   7083   7081   7093   7095     1  0.0000000  0.6508444  3
   7084   7080   7087   7088     1  0.0000000  0.6508444  3
   7084   7080   7087   7089     1  0.0000000  0.6508444  3
   7084   7096   7102   7103     1  0.0000000  0.6508444  3
   7084   7096   7102   7104     1  0.0000000  0.6508444  3
   7085   7084   7080   7087     1  0.0000000  0.6508444  3
   7085   7084   7080   7109     1  0.0000000  0.6508444  3
   7085   7084   7096   7102     1  0.0000000  0.6508444  3
   7085   7084   7096   7097     1  0.0000000  0.6508444  3
   7085   7084   7096   7098     1  0.0000000  0.6508444  3
   7086   7084   7080   7087     1  0.0000000  0.6508444  3
   7086   7084   7080   7109     1  0.0000000  0.6508444  3
   7086   7084   7096   7102     1  0.0000000  0.6508444  3
   7086   7084   7096   7097     1  0.0000000  0.6508444  3
   7086   7084   7096   7098     1  0.0000000  0.6508444  3
   7087   7090   7099   7100     1  0.0000000  0.6508444  3
   7087   7090   7099   7101     1  0.0000000  0.6508444  3
   7088   7087   7080   7109     1  0.0000000  0.6508444  3
   7088   7087   7090   7099     1  0.0000000  0.6508444  3
   7088   7087   7090   7091     1  0.0000000  0.6508444  3
   7088   7087   7090   7092     1  0.0000000  0.6508444  3
   7089   7087   7080   7109     1  0.0000000  0.6508444  3
   7089   7087   7090   7099     1  0.0000000  0.6508444  3
   7089   7087   7090   7091     1  0.0000000  0.6508444  3
   7089   7087   7090   7092     1  0.0000000  0.6508444  3
   7090   7087   7080   7109     1  0.0000000  0.6508444  3
   7091   7090   7099   7108     1  0.0000000  1.0460000  1
   7091   7090   7099   7108     1  0.0000000  0.0000000  3
   7091   7090   7099   7100     1  0.0000000  0.6508444  3
   7091   7090   7099   7101     1  0.0000000  0.6508444  3
   7092   7090   7099   7108     1  0.0000000  1.0460000  1
   7092   7090   7099   7108     1  0.0000000  0.0000000  3
   7092   7090   7099   7100     1  0.0000000  0.6508444  3
   7092   7090   7099   7101     1  0.0000000  0.6508444  3
   7093   7081   7080   7109     1  0.0000000  0.6508444  3
   7094   7093   7105  12713     1  0.0000000  1.0460000  1
   7094   7093   7105  12713     1  0.0000000  0.0000000  3
   7094   7093   7105   7106     1  0.0000000  0.6508444  3
   7094   7093   7105   7107     1  0.0000000  0.6508444  3
   7095   7093   7105  12713     1  0.0000000  1.0460000  1
   7095   7093   7105  12713     1  0.0000000  0.0000000  3
   7095   7093   7105   7106     1  0.0000000  0.6508444  3
   7095   7093   7105   7107     1  0.0000000  0.6508444  3
   7096   7084   7080   7109     1  0.0000000  0.6508444  3
   7097   7096   7102  12690     1  0.0000000  1.0460000  1
   7097   7096   7102  12690     1  0.0000000  0.0000000  3
   7097   7096   7102   7103     1  0.0000000  0.6508444  3
   7097   7096   7102   7104     1  0.0000000  0.6508444  3
   7098   7096   7102  12690     1  0.0000000  1.0460000  1
   7098   7096   7102  12690     1  0.0000000  0.0000000  3
   7098   7096   7102   7103     1  0.0000000  0.6508444  3
   7098   7096   7102   7104     1  0.0000000  0.6508444  3
   7102  12690  12686  12689     1  0.0000000  1.6038667  3
   7103   7102  12690  12686     1  0.0000000  1.6038667  3
   7104   7102  12690  12686     1  0.0000000  1.6038667  3
   7105  12713  12709  12712     1  0.0000000  1.6038667  3
   7106   7105  12713  12709     1  0.0000000  1.6038667  3
   7107   7105  12713  12709     1  0.0000000  1.6038667  3
   7110   7111   7123   7124     1  0.0000000  0.6508444  3
   7110   7111   7123   7125     1  0.0000000  0.6508444  3
   7110   7114   7126   7127     1  0.0000000  0.6508444  3
   7110   7114   7126   7128     1  0.0000000  0.6508444  3
   7110   7117   7120   7121     1  0.0000000  0.6508444  3
   7110   7117   7120   7122     1  0.0000000  0.6508444  3
   7111   7110   7114   7115     1  0.0000000  0.6508444  3
   7111   7110   7114   7116     1  0.0000000  0.6508444  3
   7111   7110   7117   7118     1  0.0000000  0.6508444  3
   7111   7110   7117   7119     1  0.0000000  0.6508444  3
   7111   7123   7135   7136     1  0.0000000  0.6508444  3
   7111   7123   7135   7137     1  0.0000000  0.6508444  3
   7112   7111   7110   7114     1  0.0000000  0.6508444  3
   7112   7111   7110   7117     1  0.0000000  0.6508444  3
   7112   7111   7110   7139     1  0.0000000  0.6508444  3
   7112   7111   7123   7135     1  0.0000000  0.6508444  3
   7112   7111   7123   7124     1  0.0000000  0.6508444  3
   7112   7111   7123   7125     1  0.0000000  0.6508444  3
   7113   7111   7110   7114     1  0.0000000  0.6508444  3
   7113   7111   7110   7117     1  0.0000000  0.6508444  3
   7113   7111   7110   7139     1  0.0000000  0.6508444  3
   7113   7111   7123   7135     1  0.0000000  0.6508444  3
   7113   7111   7123   7124     1  0.0000000  0.6508444  3
   7113   7111   7123   7125     1  0.0000000  0.6508444  3
   7114   7110   7117   7118     1  0.0000000  0.6508444  3
   7114   7110   7117   7119     1  0.0000000  0.6508444  3
   7114   7126   7132   7133     1  0.0000000  0.6508444  3
   7114   7126   7132   7134     1  0.0000000  0.6508444  3
   7115   7114   7110   7117     1  0.0000000  0.6508444  3
   7115   7114   7110   7139     1  0.0000000  0.6508444  3
   7115   7114   7126   7132     1  0.0000000  0.6508444  3
   7115   7114   7126   7127     1  0.0000000  0.6508444  3
   7115   7114   7126   7128     1  0.0000000  0.6508444  3
   7116   7114   7110   7117     1  0.0000000  0.6508444  3
   7116   7114   7110   7139     1  0.0000000  0.6508444  3
   7116   7114   7126   7132     1  0.0000000  0.6508444  3
   7116   7114   7126   7127     1  0.0000000  0.6508444  3
   7116   7114   7126   7128     1  0.0000000  0.6508444  3
   7117   7120   7129   7130     1  0.0000000  0.6508444  3
   7117   7120   7129   7131     1  0.0000000  0.6508444  3
   7118   7117   7110   7139     1  0.0000000  0.6508444  3
   7118   7117   7120   7129     1  0.0000000  0.6508444  3
   7118   7117   7120   7121     1  0.0000000  0.6508444  3
   7118   7117   7120   7122     1  0.0000000  0.6508444  3
   7119   7117   7110   7139     1  0.0000000  0.6508444  3
   7119   7117   7120   7129     1  0.0000000  0.6508444  3
   7119   7117   7120   7121     1  0.0000000  0.6508444  3
   7119   7117   7120   7122     1  0.0000000  0.6508444  3
   7120   7117   7110   7139     1  0.0000000  0.6508444  3
   7121   7120   7129   7138     1  0.0000000  1.0460000  1
   7121   7120   7129   7138     1  0.0000000  0.0000000  3
   7121   7120   7129   7130     1  0.0000000  0.6508444  3
   7121   7120   7129   7131     1  0.0000000  0.6508444  3
   7122   7120   7129   7138     1  0.0000000  1.0460000  1
   7122   7120   7129   7138     1  0.0000000  0.0000000  3
   7122   7120   7129   7130     1  0.0000000  0.6508444  3
   7122   7120   7129   7131     1  0.0000000  0.6508444  3
   7123   7111   7110   7139     1  0.0000000  0.6508444  3
   7124   7123   7135  12759     1  0.0000000  1.0460000  1
   7124   7123   7135  12759     1  0.0000000  0.0000000  3
   7124   7123   7135   7136     1  0.0000000  0.6508444  3
   7124   7123   7135   7137     1  0.0000000  0.6508444  3
   7125   7123   7135  12759     1  0.0000000  1.0460000  1
   7125   7123   7135  12759     1  0.0000000  0.0000000  3
   7125   7123   7135   7136     1  0.0000000  0.6508444  3
   7125   7123   7135   7137     1  0.0000000  0.6508444  3
   7126   7114   7110   7139     1  0.0000000  0.6508444  3
   7127   7126   7132  12736     1  0.0000000  1.0460000  1
   7127   7126   7132  12736     1  0.0000000  0.0000000  3
   7127   7126   7132   7133     1  0.0000000  0.6508444  3
   7127   7126   7132   7134     1  0.0000000  0.6508444  3
   7128   7126   7132  12736     1  0.0000000  1.0460000  1
   7128   7126   7132  12736     1  0.0000000  0.0000000  3
   7128   7126   7132   7133     1  0.0000000  0.6508444  3
   7128   7126   7132   7134     1  0.0000000  0.6508444  3
   7132  12736  12732  12735     1  0.0000000  1.6038667  3
   7133   7132  12736  12732     1  0.0000000  1.6038667  3
   7134   7132  12736  12732     1  0.0000000  1.6038667  3
   7135  12759  12755  12758     1  0.0000000  1.6038667  3
   7136   7135  12759  12755     1  0.0000000  1.6038667  3
   7137   7135  12759  12755     1  0.0000000  1.6038667  3
   7140   7141   7153   7154     1  0.0000000  0.6508444  3
   7140   7141   7153   7155     1  0.0000000  0.6508444  3
   7140   7144   7156   7157     1  0.0000000  0.6508444  3
   7140   7144   7156   7158     1  0.0000000  0.6508444  3
   7140   7147   7150   7151     1  0.0000000  0.6508444  3
   7140   7147   7150   7152     1  0.0000000  0.6508444  3
   7141   7140   7144   7145     1  0.0000000  0.6508444  3
   7141   7140   7144   7146     1  0.0000000  0.6508444  3
   7141   7140   7147   7148     1  0.0000000  0.6508444  3
   7141   7140   7147   7149     1  0.0000000  0.6508444  3
   7141   7153   7165   7166     1  0.0000000  0.6508444  3
   7141   7153   7165   7167     1  0.0000000  0.6508444  3
   7142   7141   7140   7144     1  0.0000000  0.6508444  3
   7142   7141   7140   7147     1  0.0000000  0.6508444  3
   7142   7141   7140   7169     1  0.0000000  0.6508444  3
   7142   7141   7153   7165     1  0.0000000  0.6508444  3
   7142   7141   7153   7154     1  0.0000000  0.6508444  3
   7142   7141   7153   7155     1  0.0000000  0.6508444  3
   7143   7141   7140   7144     1  0.0000000  0.6508444  3
   7143   7141   7140   7147     1  0.0000000  0.6508444  3
   7143   7141   7140   7169     1  0.0000000  0.6508444  3
   7143   7141   7153   7165     1  0.0000000  0.6508444  3
   7143   7141   7153   7154     1  0.0000000  0.6508444  3
   7143   7141   7153   7155     1  0.0000000  0.6508444  3
   7144   7140   7147   7148     1  0.0000000  0.6508444  3
   7144   7140   7147   7149     1  0.0000000  0.6508444  3
   7144   7156   7162   7163     1  0.0000000  0.6508444  3
   7144   7156   7162   7164     1  0.0000000  0.6508444  3
   7145   7144   7140   7147     1  0.0000000  0.6508444  3
   7145   7144   7140   7169     1  0.0000000  0.6508444  3
   7145   7144   7156   7162     1  0.0000000  0.6508444  3
   7145   7144   7156   7157     1  0.0000000  0.6508444  3
   7145   7144   7156   7158     1  0.0000000  0.6508444  3
   7146   7144   7140   7147     1  0.0000000  0.6508444  3
   7146   7144   7140   7169     1  0.0000000  0.6508444  3
   7146   7144   7156   7162     1  0.0000000  0.6508444  3
   7146   7144   7156   7157     1  0.0000000  0.6508444  3
   7146   7144   7156   7158     1  0.0000000  0.6508444  3
   7147   7150   7159   7160     1  0.0000000  0.6508444  3
   7147   7150   7159   7161     1  0.0000000  0.6508444  3
   7148   7147   7140   7169     1  0.0000000  0.6508444  3
   7148   7147   7150   7159     1  0.0000000  0.6508444  3
   7148   7147   7150   7151     1  0.0000000  0.6508444  3
   7148   7147   7150   7152     1  0.0000000  0.6508444  3
   7149   7147   7140   7169     1  0.0000000  0.6508444  3
   7149   7147   7150   7159     1  0.0000000  0.6508444  3
   7149   7147   7150   7151     1  0.0000000  0.6508444  3
   7149   7147   7150   7152     1  0.0000000  0.6508444  3
   7150   7147   7140   7169     1  0.0000000  0.6508444  3
   7151   7150   7159   7168     1  0.0000000  1.0460000  1
   7151   7150   7159   7168     1  0.0000000  0.0000000  3
   7151   7150   7159   7160     1  0.0000000  0.6508444  3
   7151   7150   7159   7161     1  0.0000000  0.6508444  3
   7152   7150   7159   7168     1  0.0000000  1.0460000  1
   7152   7150   7159   7168     1  0.0000000  0.0000000  3
   7152   7150   7159   7160     1  0.0000000  0.6508444  3
   7152   7150   7159   7161     1  0.0000000  0.6508444  3
   7153   7141   7140   7169     1  0.0000000  0.6508444  3
   7154   7153   7165  12805     1  0.0000000  1.0460000  1
   7154   7153   7165  12805     1  0.0000000  0.0000000  3
   7154   7153   7165   7166     1  0.0000000  0.6508444  3
   7154   7153   7165   7167     1  0.0000000  0.6508444  3
   7155   7153   7165  12805     1  0.0000000  1.0460000  1
   7155   7153   7165  12805     1  0.0000000  0.0000000  3
   7155   7153   7165   7166     1  0.0000000  0.6508444  3
   7155   7153   7165   7167     1  0.0000000  0.6508444  3
   7156   7144   7140   7169     1  0.0000000  0.6508444  3
   7157   7156   7162  12782     1  0.0000000  1.0460000  1
   7157   7156   7162  12782     1  0.0000000  0.0000000  3
   7157   7156   7162   7163     1  0.0000000  0.6508444  3
   7157   7156   7162   7164     1  0.0000000  0.6508444  3
   7158   7156   7162  12782     1  0.0000000  1.0460000  1
   7158   7156   7162  12782     1  0.0000000  0.0000000  3
   7158   7156   7162   7163     1  0.0000000  0.6508444  3
   7158   7156   7162   7164     1  0.0000000  0.6508444  3
   7162  12782  12778  12781     1  0.0000000  1.6038667  3
   7163   7162  12782  12778     1  0.0000000  1.6038667  3
   7164   7162  12782  12778     1  0.0000000  1.6038667  3
   7165  12805  12801  12804     1  0.0000000  1.6038667  3
   7166   7165  12805  12801     1  0.0000000  1.6038667  3
   7167   7165  12805  12801     1  0.0000000  1.6038667  3
   7170   7171   7183   7184     1  0.0000000  0.6508444  3
   7170   7171   7183   7185     1  0.0000000  0.6508444  3
   7170   7174   7186   7187     1  0.0000000  0.6508444  3
   7170   7174   7186   7188     1  0.0000000  0.6508444  3
   7170   7177   7180   7181     1  0.0000000  0.6508444  3
   7170   7177   7180   7182     1  0.0000000  0.6508444  3
   7171   7170   7174   7175     1  0.0000000  0.6508444  3
   7171   7170   7174   7176     1  0.0000000  0.6508444  3
   7171   7170   7177   7178     1  0.0000000  0.6508444  3
   7171   7170   7177   7179     1  0.0000000  0.6508444  3
   7171   7183   7195   7196     1  0.0000000  0.6508444  3
   7171   7183   7195   7197     1  0.0000000  0.6508444  3
   7172   7171   7170   7174     1  0.0000000  0.6508444  3
   7172   7171   7170   7177     1  0.0000000  0.6508444  3
   7172   7171   7170   7199     1  0.0000000  0.6508444  3
   7172   7171   7183   7195     1  0.0000000  0.6508444  3
   7172   7171   7183   7184     1  0.0000000  0.6508444  3
   7172   7171   7183   7185     1  0.0000000  0.6508444  3
   7173   7171   7170   7174     1  0.0000000  0.6508444  3
   7173   7171   7170   7177     1  0.0000000  0.6508444  3
   7173   7171   7170   7199     1  0.0000000  0.6508444  3
   7173   7171   7183   7195     1  0.0000000  0.6508444  3
   7173   7171   7183   7184     1  0.0000000  0.6508444  3
   7173   7171   7183   7185     1  0.0000000  0.6508444  3
   7174   7170   7177   7178     1  0.0000000  0.6508444  3
   7174   7170   7177   7179     1  0.0000000  0.6508444  3
   7174   7186   7192   7193     1  0.0000000  0.6508444  3
   7174   7186   7192   7194     1  0.0000000  0.6508444  3
   7175   7174   7170   7177     1  0.0000000  0.6508444  3
   7175   7174   7170   7199     1  0.0000000  0.6508444  3
   7175   7174   7186   7192     1  0.0000000  0.6508444  3
   7175   7174   7186   7187     1  0.0000000  0.6508444  3
   7175   7174   7186   7188     1  0.0000000  0.6508444  3
   7176   7174   7170   7177     1  0.0000000  0.6508444  3
   7176   7174   7170   7199     1  0.0000000  0.6508444  3
   7176   7174   7186   7192     1  0.0000000  0.6508444  3
   7176   7174   7186   7187     1  0.0000000  0.6508444  3
   7176   7174   7186   7188     1  0.0000000  0.6508444  3
   7177   7180   7189   7190     1  0.0000000  0.6508444  3
   7177   7180   7189   7191     1  0.0000000  0.6508444  3
   7178   7177   7170   7199     1  0.0000000  0.6508444  3
   7178   7177   7180   7189     1  0.0000000  0.6508444  3
   7178   7177   7180   7181     1  0.0000000  0.6508444  3
   7178   7177   7180   7182     1  0.0000000  0.6508444  3
   7179   7177   7170   7199     1  0.0000000  0.6508444  3
   7179   7177   7180   7189     1  0.0000000  0.6508444  3
   7179   7177   7180   7181     1  0.0000000  0.6508444  3
   7179   7177   7180   7182     1  0.0000000  0.6508444  3
   7180   7177   7170   7199     1  0.0000000  0.6508444  3
   7181   7180   7189   7198     1  0.0000000  1.0460000  1
   7181   7180   7189   7198     1  0.0000000  0.0000000  3
   7181   7180   7189   7190     1  0.0000000  0.6508444  3
   7181   7180   7189   7191     1  0.0000000  0.6508444  3
   7182   7180   7189   7198     1  0.0000000  1.0460000  1
   7182   7180   7189   7198     1  0.0000000  0.0000000  3
   7182   7180   7189   7190     1  0.0000000  0.6508444  3
   7182   7180   7189   7191     1  0.0000000  0.6508444  3
   7183   7171   7170   7199     1  0.0000000  0.6508444  3
   7184   7183   7195  12851     1  0.0000000  1.0460000  1
   7184   7183   7195  12851     1  0.0000000  0.0000000  3
   7184   7183   7195   7196     1  0.0000000  0.6508444  3
   7184   7183   7195   7197     1  0.0000000  0.6508444  3
   7185   7183   7195  12851     1  0.0000000  1.0460000  1
   7185   7183   7195  12851     1  0.0000000  0.0000000  3
   7185   7183   7195   7196     1  0.0000000  0.6508444  3
   7185   7183   7195   7197     1  0.0000000  0.6508444  3
   7186   7174   7170   7199     1  0.0000000  0.6508444  3
   7187   7186   7192  12828     1  0.0000000  1.0460000  1
   7187   7186   7192  12828     1  0.0000000  0.0000000  3
   7187   7186   7192   7193     1  0.0000000  0.6508444  3
   7187   7186   7192   7194     1  0.0000000  0.6508444  3
   7188   7186   7192  12828     1  0.0000000  1.0460000  1
   7188   7186   7192  12828     1  0.0000000  0.0000000  3
   7188   7186   7192   7193     1  0.0000000  0.6508444  3
   7188   7186   7192   7194     1  0.0000000  0.6508444  3
   7192  12828  12824  12827     1  0.0000000  1.6038667  3
   7193   7192  12828  12824     1  0.0000000  1.6038667  3
   7194   7192  12828  12824     1  0.0000000  1.6038667  3
   7195  12851  12847  12850     1  0.0000000  1.6038667  3
   7196   7195  12851  12847     1  0.0000000  1.6038667  3
   7197   7195  12851  12847     1  0.0000000  1.6038667  3
   7200   7201   7213   7214     1  0.0000000  0.6508444  3
   7200   7201   7213   7215     1  0.0000000  0.6508444  3
   7200   7204   7216   7217     1  0.0000000  0.6508444  3
   7200   7204   7216   7218     1  0.0000000  0.6508444  3
   7200   7207   7210   7211     1  0.0000000  0.6508444  3
   7200   7207   7210   7212     1  0.0000000  0.6508444  3
   7201   7200   7204   7205     1  0.0000000  0.6508444  3
   7201   7200   7204   7206     1  0.0000000  0.6508444  3
   7201   7200   7207   7208     1  0.0000000  0.6508444  3
   7201   7200   7207   7209     1  0.0000000  0.6508444  3
   7201   7213   7225   7226     1  0.0000000  0.6508444  3
   7201   7213   7225   7227     1  0.0000000  0.6508444  3
   7202   7201   7200   7204     1  0.0000000  0.6508444  3
   7202   7201   7200   7207     1  0.0000000  0.6508444  3
   7202   7201   7200   7229     1  0.0000000  0.6508444  3
   7202   7201   7213   7225     1  0.0000000  0.6508444  3
   7202   7201   7213   7214     1  0.0000000  0.6508444  3
   7202   7201   7213   7215     1  0.0000000  0.6508444  3
   7203   7201   7200   7204     1  0.0000000  0.6508444  3
   7203   7201   7200   7207     1  0.0000000  0.6508444  3
   7203   7201   7200   7229     1  0.0000000  0.6508444  3
   7203   7201   7213   7225     1  0.0000000  0.6508444  3
   7203   7201   7213   7214     1  0.0000000  0.6508444  3
   7203   7201   7213   7215     1  0.0000000  0.6508444  3
   7204   7200   7207   7208     1  0.0000000  0.6508444  3
   7204   7200   7207   7209     1  0.0000000  0.6508444  3
   7204   7216   7222   7223     1  0.0000000  0.6508444  3
   7204   7216   7222   7224     1  0.0000000  0.6508444  3
   7205   7204   7200   7207     1  0.0000000  0.6508444  3
   7205   7204   7200   7229     1  0.0000000  0.6508444  3
   7205   7204   7216   7222     1  0.0000000  0.6508444  3
   7205   7204   7216   7217     1  0.0000000  0.6508444  3
   7205   7204   7216   7218     1  0.0000000  0.6508444  3
   7206   7204   7200   7207     1  0.0000000  0.6508444  3
   7206   7204   7200   7229     1  0.0000000  0.6508444  3
   7206   7204   7216   7222     1  0.0000000  0.6508444  3
   7206   7204   7216   7217     1  0.0000000  0.6508444  3
   7206   7204   7216   7218     1  0.0000000  0.6508444  3
   7207   7210   7219   7220     1  0.0000000  0.6508444  3
   7207   7210   7219   7221     1  0.0000000  0.6508444  3
   7208   7207   7200   7229     1  0.0000000  0.6508444  3
   7208   7207   7210   7219     1  0.0000000  0.6508444  3
   7208   7207   7210   7211     1  0.0000000  0.6508444  3
   7208   7207   7210   7212     1  0.0000000  0.6508444  3
   7209   7207   7200   7229     1  0.0000000  0.6508444  3
   7209   7207   7210   7219     1  0.0000000  0.6508444  3
   7209   7207   7210   7211     1  0.0000000  0.6508444  3
   7209   7207   7210   7212     1  0.0000000  0.6508444  3
   7210   7207   7200   7229     1  0.0000000  0.6508444  3
   7211   7210   7219   7228     1  0.0000000  1.0460000  1
   7211   7210   7219   7228     1  0.0000000  0.0000000  3
   7211   7210   7219   7220     1  0.0000000  0.6508444  3
   7211   7210   7219   7221     1  0.0000000  0.6508444  3
   7212   7210   7219   7228     1  0.0000000  1.0460000  1
   7212   7210   7219   7228     1  0.0000000  0.0000000  3
   7212   7210   7219   7220     1  0.0000000  0.6508444  3
   7212   7210   7219   7221     1  0.0000000  0.6508444  3
   7213   7201   7200   7229     1  0.0000000  0.6508444  3
   7214   7213   7225  12897     1  0.0000000  1.0460000  1
   7214   7213   7225  12897     1  0.0000000  0.0000000  3
   7214   7213   7225   7226     1  0.0000000  0.6508444  3
   7214   7213   7225   7227     1  0.0000000  0.6508444  3
   7215   7213   7225  12897     1  0.0000000  1.0460000  1
   7215   7213   7225  12897     1  0.0000000  0.0000000  3
   7215   7213   7225   7226     1  0.0000000  0.6508444  3
   7215   7213   7225   7227     1  0.0000000  0.6508444  3
   7216   7204   7200   7229     1  0.0000000  0.6508444  3
   7217   7216   7222  12874     1  0.0000000  1.0460000  1
   7217   7216   7222  12874     1  0.0000000  0.0000000  3
   7217   7216   7222   7223     1  0.0000000  0.6508444  3
   7217   7216   7222   7224     1  0.0000000  0.6508444  3
   7218   7216   7222  12874     1  0.0000000  1.0460000  1
   7218   7216   7222  12874     1  0.0000000  0.0000000  3
   7218   7216   7222   7223     1  0.0000000  0.6508444  3
   7218   7216   7222   7224     1  0.0000000  0.6508444  3
   7222  12874  12870  12873     1  0.0000000  1.6038667  3
   7223   7222  12874  12870     1  0.0000000  1.6038667  3
   7224   7222  12874  12870     1  0.0000000  1.6038667  3
   7225  12897  12893  12896     1  0.0000000  1.6038667  3
   7226   7225  12897  12893     1  0.0000000  1.6038667  3
   7227   7225  12897  12893     1  0.0000000  1.6038667  3
   7230   7231   7243   7244     1  0.0000000  0.6508444  3
   7230   7231   7243   7245     1  0.0000000  0.6508444  3
   7230   7234   7246   7247     1  0.0000000  0.6508444  3
   7230   7234   7246   7248     1  0.0000000  0.6508444  3
   7230   7237   7240   7241     1  0.0000000  0.6508444  3
   7230   7237   7240   7242     1  0.0000000  0.6508444  3
   7231   7230   7234   7235     1  0.0000000  0.6508444  3
   7231   7230   7234   7236     1  0.0000000  0.6508444  3
   7231   7230   7237   7238     1  0.0000000  0.6508444  3
   7231   7230   7237   7239     1  0.0000000  0.6508444  3
   7231   7243   7255   7256     1  0.0000000  0.6508444  3
   7231   7243   7255   7257     1  0.0000000  0.6508444  3
   7232   7231   7230   7234     1  0.0000000  0.6508444  3
   7232   7231   7230   7237     1  0.0000000  0.6508444  3
   7232   7231   7230   7259     1  0.0000000  0.6508444  3
   7232   7231   7243   7255     1  0.0000000  0.6508444  3
   7232   7231   7243   7244     1  0.0000000  0.6508444  3
   7232   7231   7243   7245     1  0.0000000  0.6508444  3
   7233   7231   7230   7234     1  0.0000000  0.6508444  3
   7233   7231   7230   7237     1  0.0000000  0.6508444  3
   7233   7231   7230   7259     1  0.0000000  0.6508444  3
   7233   7231   7243   7255     1  0.0000000  0.6508444  3
   7233   7231   7243   7244     1  0.0000000  0.6508444  3
   7233   7231   7243   7245     1  0.0000000  0.6508444  3
   7234   7230   7237   7238     1  0.0000000  0.6508444  3
   7234   7230   7237   7239     1  0.0000000  0.6508444  3
   7234   7246   7252   7253     1  0.0000000  0.6508444  3
   7234   7246   7252   7254     1  0.0000000  0.6508444  3
   7235   7234   7230   7237     1  0.0000000  0.6508444  3
   7235   7234   7230   7259     1  0.0000000  0.6508444  3
   7235   7234   7246   7252     1  0.0000000  0.6508444  3
   7235   7234   7246   7247     1  0.0000000  0.6508444  3
   7235   7234   7246   7248     1  0.0000000  0.6508444  3
   7236   7234   7230   7237     1  0.0000000  0.6508444  3
   7236   7234   7230   7259     1  0.0000000  0.6508444  3
   7236   7234   7246   7252     1  0.0000000  0.6508444  3
   7236   7234   7246   7247     1  0.0000000  0.6508444  3
   7236   7234   7246   7248     1  0.0000000  0.6508444  3
   7237   7240   7249   7250     1  0.0000000  0.6508444  3
   7237   7240   7249   7251     1  0.0000000  0.6508444  3
   7238   7237   7230   7259     1  0.0000000  0.6508444  3
   7238   7237   7240   7249     1  0.0000000  0.6508444  3
   7238   7237   7240   7241     1  0.0000000  0.6508444  3
   7238   7237   7240   7242     1  0.0000000  0.6508444  3
   7239   7237   7230   7259     1  0.0000000  0.6508444  3
   7239   7237   7240   7249     1  0.0000000  0.6508444  3
   7239   7237   7240   7241     1  0.0000000  0.6508444  3
   7239   7237   7240   7242     1  0.0000000  0.6508444  3
   7240   7237   7230   7259     1  0.0000000  0.6508444  3
   7241   7240   7249   7258     1  0.0000000  1.0460000  1
   7241   7240   7249   7258     1  0.0000000  0.0000000  3
   7241   7240   7249   7250     1  0.0000000  0.6508444  3
   7241   7240   7249   7251     1  0.0000000  0.6508444  3
   7242   7240   7249   7258     1  0.0000000  1.0460000  1
   7242   7240   7249   7258     1  0.0000000  0.0000000  3
   7242   7240   7249   7250     1  0.0000000  0.6508444  3
   7242   7240   7249   7251     1  0.0000000  0.6508444  3
   7243   7231   7230   7259     1  0.0000000  0.6508444  3
   7244   7243   7255  12943     1  0.0000000  1.0460000  1
   7244   7243   7255  12943     1  0.0000000  0.0000000  3
   7244   7243   7255   7256     1  0.0000000  0.6508444  3
   7244   7243   7255   7257     1  0.0000000  0.6508444  3
   7245   7243   7255  12943     1  0.0000000  1.0460000  1
   7245   7243   7255  12943     1  0.0000000  0.0000000  3
   7245   7243   7255   7256     1  0.0000000  0.6508444  3
   7245   7243   7255   7257     1  0.0000000  0.6508444  3
   7246   7234   7230   7259     1  0.0000000  0.6508444  3
   7247   7246   7252  12920     1  0.0000000  1.0460000  1
   7247   7246   7252  12920     1  0.0000000  0.0000000  3
   7247   7246   7252   7253     1  0.0000000  0.6508444  3
   7247   7246   7252   7254     1  0.0000000  0.6508444  3
   7248   7246   7252  12920     1  0.0000000  1.0460000  1
   7248   7246   7252  12920     1  0.0000000  0.0000000  3
   7248   7246   7252   7253     1  0.0000000  0.6508444  3
   7248   7246   7252   7254     1  0.0000000  0.6508444  3
   7252  12920  12916  12919     1  0.0000000  1.6038667  3
   7253   7252  12920  12916     1  0.0000000  1.6038667  3
   7254   7252  12920  12916     1  0.0000000  1.6038667  3
   7255  12943  12939  12942     1  0.0000000  1.6038667  3
   7256   7255  12943  12939     1  0.0000000  1.6038667  3
   7257   7255  12943  12939     1  0.0000000  1.6038667  3
   7260   7261   7273   7274     1  0.0000000  0.6508444  3
   7260   7261   7273   7275     1  0.0000000  0.6508444  3
   7260   7264   7276   7277     1  0.0000000  0.6508444  3
   7260   7264   7276   7278     1  0.0000000  0.6508444  3
   7260   7267   7270   7271     1  0.0000000  0.6508444  3
   7260   7267   7270   7272     1  0.0000000  0.6508444  3
   7261   7260   7264   7265     1  0.0000000  0.6508444  3
   7261   7260   7264   7266     1  0.0000000  0.6508444  3
   7261   7260   7267   7268     1  0.0000000  0.6508444  3
   7261   7260   7267   7269     1  0.0000000  0.6508444  3
   7261   7273   7285   7286     1  0.0000000  0.6508444  3
   7261   7273   7285   7287     1  0.0000000  0.6508444  3
   7262   7261   7260   7264     1  0.0000000  0.6508444  3
   7262   7261   7260   7267     1  0.0000000  0.6508444  3
   7262   7261   7260   7289     1  0.0000000  0.6508444  3
   7262   7261   7273   7285     1  0.0000000  0.6508444  3
   7262   7261   7273   7274     1  0.0000000  0.6508444  3
   7262   7261   7273   7275     1  0.0000000  0.6508444  3
   7263   7261   7260   7264     1  0.0000000  0.6508444  3
   7263   7261   7260   7267     1  0.0000000  0.6508444  3
   7263   7261   7260   7289     1  0.0000000  0.6508444  3
   7263   7261   7273   7285     1  0.0000000  0.6508444  3
   7263   7261   7273   7274     1  0.0000000  0.6508444  3
   7263   7261   7273   7275     1  0.0000000  0.6508444  3
   7264   7260   7267   7268     1  0.0000000  0.6508444  3
   7264   7260   7267   7269     1  0.0000000  0.6508444  3
   7264   7276   7282   7283     1  0.0000000  0.6508444  3
   7264   7276   7282   7284     1  0.0000000  0.6508444  3
   7265   7264   7260   7267     1  0.0000000  0.6508444  3
   7265   7264   7260   7289     1  0.0000000  0.6508444  3
   7265   7264   7276   7282     1  0.0000000  0.6508444  3
   7265   7264   7276   7277     1  0.0000000  0.6508444  3
   7265   7264   7276   7278     1  0.0000000  0.6508444  3
   7266   7264   7260   7267     1  0.0000000  0.6508444  3
   7266   7264   7260   7289     1  0.0000000  0.6508444  3
   7266   7264   7276   7282     1  0.0000000  0.6508444  3
   7266   7264   7276   7277     1  0.0000000  0.6508444  3
   7266   7264   7276   7278     1  0.0000000  0.6508444  3
   7267   7270   7279   7280     1  0.0000000  0.6508444  3
   7267   7270   7279   7281     1  0.0000000  0.6508444  3
   7268   7267   7260   7289     1  0.0000000  0.6508444  3
   7268   7267   7270   7279     1  0.0000000  0.6508444  3
   7268   7267   7270   7271     1  0.0000000  0.6508444  3
   7268   7267   7270   7272     1  0.0000000  0.6508444  3
   7269   7267   7260   7289     1  0.0000000  0.6508444  3
   7269   7267   7270   7279     1  0.0000000  0.6508444  3
   7269   7267   7270   7271     1  0.0000000  0.6508444  3
   7269   7267   7270   7272     1  0.0000000  0.6508444  3
   7270   7267   7260   7289     1  0.0000000  0.6508444  3
   7271   7270   7279   7288     1  0.0000000  1.0460000  1
   7271   7270   7279   7288     1  0.0000000  0.0000000  3
   7271   7270   7279   7280     1  0.0000000  0.6508444  3
   7271   7270   7279   7281     1  0.0000000  0.6508444  3
   7272   7270   7279   7288     1  0.0000000  1.0460000  1
   7272   7270   7279   7288     1  0.0000000  0.0000000  3
   7272   7270   7279   7280     1  0.0000000  0.6508444  3
   7272   7270   7279   7281     1  0.0000000  0.6508444  3
   7273   7261   7260   7289     1  0.0000000  0.6508444  3
   7274   7273   7285  12989     1  0.0000000  1.0460000  1
   7274   7273   7285  12989     1  0.0000000  0.0000000  3
   7274   7273   7285   7286     1  0.0000000  0.6508444  3
   7274   7273   7285   7287     1  0.0000000  0.6508444  3
   7275   7273   7285  12989     1  0.0000000  1.0460000  1
   7275   7273   7285  12989     1  0.0000000  0.0000000  3
   7275   7273   7285   7286     1  0.0000000  0.6508444  3
   7275   7273   7285   7287     1  0.0000000  0.6508444  3
   7276   7264   7260   7289     1  0.0000000  0.6508444  3
   7277   7276   7282  12966     1  0.0000000  1.0460000  1
   7277   7276   7282  12966     1  0.0000000  0.0000000  3
   7277   7276   7282   7283     1  0.0000000  0.6508444  3
   7277   7276   7282   7284     1  0.0000000  0.6508444  3
   7278   7276   7282  12966     1  0.0000000  1.0460000  1
   7278   7276   7282  12966     1  0.0000000  0.0000000  3
   7278   7276   7282   7283     1  0.0000000  0.6508444  3
   7278   7276   7282   7284     1  0.0000000  0.6508444  3
   7282  12966  12962  12965     1  0.0000000  1.6038667  3
   7283   7282  12966  12962     1  0.0000000  1.6038667  3
   7284   7282  12966  12962     1  0.0000000  1.6038667  3
   7285  12989  12985  12988     1  0.0000000  1.6038667  3
   7286   7285  12989  12985     1  0.0000000  1.6038667  3
   7287   7285  12989  12985     1  0.0000000  1.6038667  3
   7290   7291   7303   7304     1  0.0000000  0.6508444  3
   7290   7291   7303   7305     1  0.0000000  0.6508444  3
   7290   7294   7306   7307     1  0.0000000  0.6508444  3
   7290   7294   7306   7308     1  0.0000000  0.6508444  3
   7290   7297   7300   7301     1  0.0000000  0.6508444  3
   7290   7297   7300   7302     1  0.0000000  0.6508444  3
   7291   7290   7294   7295     1  0.0000000  0.6508444  3
   7291   7290   7294   7296     1  0.0000000  0.6508444  3
   7291   7290   7297   7298     1  0.0000000  0.6508444  3
   7291   7290   7297   7299     1  0.0000000  0.6508444  3
   7291   7303   7315   7316     1  0.0000000  0.6508444  3
   7291   7303   7315   7317     1  0.0000000  0.6508444  3
   7292   7291   7290   7294     1  0.0000000  0.6508444  3
   7292   7291   7290   7297     1  0.0000000  0.6508444  3
   7292   7291   7290   7319     1  0.0000000  0.6508444  3
   7292   7291   7303   7315     1  0.0000000  0.6508444  3
   7292   7291   7303   7304     1  0.0000000  0.6508444  3
   7292   7291   7303   7305     1  0.0000000  0.6508444  3
   7293   7291   7290   7294     1  0.0000000  0.6508444  3
   7293   7291   7290   7297     1  0.0000000  0.6508444  3
   7293   7291   7290   7319     1  0.0000000  0.6508444  3
   7293   7291   7303   7315     1  0.0000000  0.6508444  3
   7293   7291   7303   7304     1  0.0000000  0.6508444  3
   7293   7291   7303   7305     1  0.0000000  0.6508444  3
   7294   7290   7297   7298     1  0.0000000  0.6508444  3
   7294   7290   7297   7299     1  0.0000000  0.6508444  3
   7294   7306   7312   7313     1  0.0000000  0.6508444  3
   7294   7306   7312   7314     1  0.0000000  0.6508444  3
   7295   7294   7290   7297     1  0.0000000  0.6508444  3
   7295   7294   7290   7319     1  0.0000000  0.6508444  3
   7295   7294   7306   7312     1  0.0000000  0.6508444  3
   7295   7294   7306   7307     1  0.0000000  0.6508444  3
   7295   7294   7306   7308     1  0.0000000  0.6508444  3
   7296   7294   7290   7297     1  0.0000000  0.6508444  3
   7296   7294   7290   7319     1  0.0000000  0.6508444  3
   7296   7294   7306   7312     1  0.0000000  0.6508444  3
   7296   7294   7306   7307     1  0.0000000  0.6508444  3
   7296   7294   7306   7308     1  0.0000000  0.6508444  3
   7297   7300   7309   7310     1  0.0000000  0.6508444  3
   7297   7300   7309   7311     1  0.0000000  0.6508444  3
   7298   7297   7290   7319     1  0.0000000  0.6508444  3
   7298   7297   7300   7309     1  0.0000000  0.6508444  3
   7298   7297   7300   7301     1  0.0000000  0.6508444  3
   7298   7297   7300   7302     1  0.0000000  0.6508444  3
   7299   7297   7290   7319     1  0.0000000  0.6508444  3
   7299   7297   7300   7309     1  0.0000000  0.6508444  3
   7299   7297   7300   7301     1  0.0000000  0.6508444  3
   7299   7297   7300   7302     1  0.0000000  0.6508444  3
   7300   7297   7290   7319     1  0.0000000  0.6508444  3
   7301   7300   7309   7318     1  0.0000000  1.0460000  1
   7301   7300   7309   7318     1  0.0000000  0.0000000  3
   7301   7300   7309   7310     1  0.0000000  0.6508444  3
   7301   7300   7309   7311     1  0.0000000  0.6508444  3
   7302   7300   7309   7318     1  0.0000000  1.0460000  1
   7302   7300   7309   7318     1  0.0000000  0.0000000  3
   7302   7300   7309   7310     1  0.0000000  0.6508444  3
   7302   7300   7309   7311     1  0.0000000  0.6508444  3
   7303   7291   7290   7319     1  0.0000000  0.6508444  3
   7304   7303   7315  13035     1  0.0000000  1.0460000  1
   7304   7303   7315  13035     1  0.0000000  0.0000000  3
   7304   7303   7315   7316     1  0.0000000  0.6508444  3
   7304   7303   7315   7317     1  0.0000000  0.6508444  3
   7305   7303   7315  13035     1  0.0000000  1.0460000  1
   7305   7303   7315  13035     1  0.0000000  0.0000000  3
   7305   7303   7315   7316     1  0.0000000  0.6508444  3
   7305   7303   7315   7317     1  0.0000000  0.6508444  3
   7306   7294   7290   7319     1  0.0000000  0.6508444  3
   7307   7306   7312  13012     1  0.0000000  1.0460000  1
   7307   7306   7312  13012     1  0.0000000  0.0000000  3
   7307   7306   7312   7313     1  0.0000000  0.6508444  3
   7307   7306   7312   7314     1  0.0000000  0.6508444  3
   7308   7306   7312  13012     1  0.0000000  1.0460000  1
   7308   7306   7312  13012     1  0.0000000  0.0000000  3
   7308   7306   7312   7313     1  0.0000000  0.6508444  3
   7308   7306   7312   7314     1  0.0000000  0.6508444  3
   7312  13012  13008  13011     1  0.0000000  1.6038667  3
   7313   7312  13012  13008     1  0.0000000  1.6038667  3
   7314   7312  13012  13008     1  0.0000000  1.6038667  3
   7315  13035  13031  13034     1  0.0000000  1.6038667  3
   7316   7315  13035  13031     1  0.0000000  1.6038667  3
   7317   7315  13035  13031     1  0.0000000  1.6038667  3
   7320   7321   7333   7334     1  0.0000000  0.6508444  3
   7320   7321   7333   7335     1  0.0000000  0.6508444  3
   7320   7324   7336   7337     1  0.0000000  0.6508444  3
   7320   7324   7336   7338     1  0.0000000  0.6508444  3
   7320   7327   7330   7331     1  0.0000000  0.6508444  3
   7320   7327   7330   7332     1  0.0000000  0.6508444  3
   7321   7320   7324   7325     1  0.0000000  0.6508444  3
   7321   7320   7324   7326     1  0.0000000  0.6508444  3
   7321   7320   7327   7328     1  0.0000000  0.6508444  3
   7321   7320   7327   7329     1  0.0000000  0.6508444  3
   7321   7333   7345   7346     1  0.0000000  0.6508444  3
   7321   7333   7345   7347     1  0.0000000  0.6508444  3
   7322   7321   7320   7324     1  0.0000000  0.6508444  3
   7322   7321   7320   7327     1  0.0000000  0.6508444  3
   7322   7321   7320   7349     1  0.0000000  0.6508444  3
   7322   7321   7333   7345     1  0.0000000  0.6508444  3
   7322   7321   7333   7334     1  0.0000000  0.6508444  3
   7322   7321   7333   7335     1  0.0000000  0.6508444  3
   7323   7321   7320   7324     1  0.0000000  0.6508444  3
   7323   7321   7320   7327     1  0.0000000  0.6508444  3
   7323   7321   7320   7349     1  0.0000000  0.6508444  3
   7323   7321   7333   7345     1  0.0000000  0.6508444  3
   7323   7321   7333   7334     1  0.0000000  0.6508444  3
   7323   7321   7333   7335     1  0.0000000  0.6508444  3
   7324   7320   7327   7328     1  0.0000000  0.6508444  3
   7324   7320   7327   7329     1  0.0000000  0.6508444  3
   7324   7336   7342   7343     1  0.0000000  0.6508444  3
   7324   7336   7342   7344     1  0.0000000  0.6508444  3
   7325   7324   7320   7327     1  0.0000000  0.6508444  3
   7325   7324   7320   7349     1  0.0000000  0.6508444  3
   7325   7324   7336   7342     1  0.0000000  0.6508444  3
   7325   7324   7336   7337     1  0.0000000  0.6508444  3
   7325   7324   7336   7338     1  0.0000000  0.6508444  3
   7326   7324   7320   7327     1  0.0000000  0.6508444  3
   7326   7324   7320   7349     1  0.0000000  0.6508444  3
   7326   7324   7336   7342     1  0.0000000  0.6508444  3
   7326   7324   7336   7337     1  0.0000000  0.6508444  3
   7326   7324   7336   7338     1  0.0000000  0.6508444  3
   7327   7330   7339   7340     1  0.0000000  0.6508444  3
   7327   7330   7339   7341     1  0.0000000  0.6508444  3
   7328   7327   7320   7349     1  0.0000000  0.6508444  3
   7328   7327   7330   7339     1  0.0000000  0.6508444  3
   7328   7327   7330   7331     1  0.0000000  0.6508444  3
   7328   7327   7330   7332     1  0.0000000  0.6508444  3
   7329   7327   7320   7349     1  0.0000000  0.6508444  3
   7329   7327   7330   7339     1  0.0000000  0.6508444  3
   7329   7327   7330   7331     1  0.0000000  0.6508444  3
   7329   7327   7330   7332     1  0.0000000  0.6508444  3
   7330   7327   7320   7349     1  0.0000000  0.6508444  3
   7331   7330   7339   7348     1  0.0000000  1.0460000  1
   7331   7330   7339   7348     1  0.0000000  0.0000000  3
   7331   7330   7339   7340     1  0.0000000  0.6508444  3
   7331   7330   7339   7341     1  0.0000000  0.6508444  3
   7332   7330   7339   7348     1  0.0000000  1.0460000  1
   7332   7330   7339   7348     1  0.0000000  0.0000000  3
   7332   7330   7339   7340     1  0.0000000  0.6508444  3
   7332   7330   7339   7341     1  0.0000000  0.6508444  3
   7333   7321   7320   7349     1  0.0000000  0.6508444  3
   7334   7333   7345  13081     1  0.0000000  1.0460000  1
   7334   7333   7345  13081     1  0.0000000  0.0000000  3
   7334   7333   7345   7346     1  0.0000000  0.6508444  3
   7334   7333   7345   7347     1  0.0000000  0.6508444  3
   7335   7333   7345  13081     1  0.0000000  1.0460000  1
   7335   7333   7345  13081     1  0.0000000  0.0000000  3
   7335   7333   7345   7346     1  0.0000000  0.6508444  3
   7335   7333   7345   7347     1  0.0000000  0.6508444  3
   7336   7324   7320   7349     1  0.0000000  0.6508444  3
   7337   7336   7342  13058     1  0.0000000  1.0460000  1
   7337   7336   7342  13058     1  0.0000000  0.0000000  3
   7337   7336   7342   7343     1  0.0000000  0.6508444  3
   7337   7336   7342   7344     1  0.0000000  0.6508444  3
   7338   7336   7342  13058     1  0.0000000  1.0460000  1
   7338   7336   7342  13058     1  0.0000000  0.0000000  3
   7338   7336   7342   7343     1  0.0000000  0.6508444  3
   7338   7336   7342   7344     1  0.0000000  0.6508444  3
   7342  13058  13054  13057     1  0.0000000  1.6038667  3
   7343   7342  13058  13054     1  0.0000000  1.6038667  3
   7344   7342  13058  13054     1  0.0000000  1.6038667  3
   7345  13081  13077  13080     1  0.0000000  1.6038667  3
   7346   7345  13081  13077     1  0.0000000  1.6038667  3
   7347   7345  13081  13077     1  0.0000000  1.6038667  3
   7350   7351   7363   7364     1  0.0000000  0.6508444  3
   7350   7351   7363   7365     1  0.0000000  0.6508444  3
   7350   7354   7366   7367     1  0.0000000  0.6508444  3
   7350   7354   7366   7368     1  0.0000000  0.6508444  3
   7350   7357   7360   7361     1  0.0000000  0.6508444  3
   7350   7357   7360   7362     1  0.0000000  0.6508444  3
   7351   7350   7354   7355     1  0.0000000  0.6508444  3
   7351   7350   7354   7356     1  0.0000000  0.6508444  3
   7351   7350   7357   7358     1  0.0000000  0.6508444  3
   7351   7350   7357   7359     1  0.0000000  0.6508444  3
   7351   7363   7375   7376     1  0.0000000  0.6508444  3
   7351   7363   7375   7377     1  0.0000000  0.6508444  3
   7352   7351   7350   7354     1  0.0000000  0.6508444  3
   7352   7351   7350   7357     1  0.0000000  0.6508444  3
   7352   7351   7350   7379     1  0.0000000  0.6508444  3
   7352   7351   7363   7375     1  0.0000000  0.6508444  3
   7352   7351   7363   7364     1  0.0000000  0.6508444  3
   7352   7351   7363   7365     1  0.0000000  0.6508444  3
   7353   7351   7350   7354     1  0.0000000  0.6508444  3
   7353   7351   7350   7357     1  0.0000000  0.6508444  3
   7353   7351   7350   7379     1  0.0000000  0.6508444  3
   7353   7351   7363   7375     1  0.0000000  0.6508444  3
   7353   7351   7363   7364     1  0.0000000  0.6508444  3
   7353   7351   7363   7365     1  0.0000000  0.6508444  3
   7354   7350   7357   7358     1  0.0000000  0.6508444  3
   7354   7350   7357   7359     1  0.0000000  0.6508444  3
   7354   7366   7372   7373     1  0.0000000  0.6508444  3
   7354   7366   7372   7374     1  0.0000000  0.6508444  3
   7355   7354   7350   7357     1  0.0000000  0.6508444  3
   7355   7354   7350   7379     1  0.0000000  0.6508444  3
   7355   7354   7366   7372     1  0.0000000  0.6508444  3
   7355   7354   7366   7367     1  0.0000000  0.6508444  3
   7355   7354   7366   7368     1  0.0000000  0.6508444  3
   7356   7354   7350   7357     1  0.0000000  0.6508444  3
   7356   7354   7350   7379     1  0.0000000  0.6508444  3
   7356   7354   7366   7372     1  0.0000000  0.6508444  3
   7356   7354   7366   7367     1  0.0000000  0.6508444  3
   7356   7354   7366   7368     1  0.0000000  0.6508444  3
   7357   7360   7369   7370     1  0.0000000  0.6508444  3
   7357   7360   7369   7371     1  0.0000000  0.6508444  3
   7358   7357   7350   7379     1  0.0000000  0.6508444  3
   7358   7357   7360   7369     1  0.0000000  0.6508444  3
   7358   7357   7360   7361     1  0.0000000  0.6508444  3
   7358   7357   7360   7362     1  0.0000000  0.6508444  3
   7359   7357   7350   7379     1  0.0000000  0.6508444  3
   7359   7357   7360   7369     1  0.0000000  0.6508444  3
   7359   7357   7360   7361     1  0.0000000  0.6508444  3
   7359   7357   7360   7362     1  0.0000000  0.6508444  3
   7360   7357   7350   7379     1  0.0000000  0.6508444  3
   7361   7360   7369   7378     1  0.0000000  1.0460000  1
   7361   7360   7369   7378     1  0.0000000  0.0000000  3
   7361   7360   7369   7370     1  0.0000000  0.6508444  3
   7361   7360   7369   7371     1  0.0000000  0.6508444  3
   7362   7360   7369   7378     1  0.0000000  1.0460000  1
   7362   7360   7369   7378     1  0.0000000  0.0000000  3
   7362   7360   7369   7370     1  0.0000000  0.6508444  3
   7362   7360   7369   7371     1  0.0000000  0.6508444  3
   7363   7351   7350   7379     1  0.0000000  0.6508444  3
   7364   7363   7375  13127     1  0.0000000  1.0460000  1
   7364   7363   7375  13127     1  0.0000000  0.0000000  3
   7364   7363   7375   7376     1  0.0000000  0.6508444  3
   7364   7363   7375   7377     1  0.0000000  0.6508444  3
   7365   7363   7375  13127     1  0.0000000  1.0460000  1
   7365   7363   7375  13127     1  0.0000000  0.0000000  3
   7365   7363   7375   7376     1  0.0000000  0.6508444  3
   7365   7363   7375   7377     1  0.0000000  0.6508444  3
   7366   7354   7350   7379     1  0.0000000  0.6508444  3
   7367   7366   7372  13104     1  0.0000000  1.0460000  1
   7367   7366   7372  13104     1  0.0000000  0.0000000  3
   7367   7366   7372   7373     1  0.0000000  0.6508444  3
   7367   7366   7372   7374     1  0.0000000  0.6508444  3
   7368   7366   7372  13104     1  0.0000000  1.0460000  1
   7368   7366   7372  13104     1  0.0000000  0.0000000  3
   7368   7366   7372   7373     1  0.0000000  0.6508444  3
   7368   7366   7372   7374     1  0.0000000  0.6508444  3
   7372  13104  13100  13103     1  0.0000000  1.6038667  3
   7373   7372  13104  13100     1  0.0000000  1.6038667  3
   7374   7372  13104  13100     1  0.0000000  1.6038667  3
   7375  13127  13123  13126     1  0.0000000  1.6038667  3
   7376   7375  13127  13123     1  0.0000000  1.6038667  3
   7377   7375  13127  13123     1  0.0000000  1.6038667  3
   7380   7381   7393   7394     1  0.0000000  0.6508444  3
   7380   7381   7393   7395     1  0.0000000  0.6508444  3
   7380   7384   7396   7397     1  0.0000000  0.6508444  3
   7380   7384   7396   7398     1  0.0000000  0.6508444  3
   7380   7387   7390   7391     1  0.0000000  0.6508444  3
   7380   7387   7390   7392     1  0.0000000  0.6508444  3
   7381   7380   7384   7385     1  0.0000000  0.6508444  3
   7381   7380   7384   7386     1  0.0000000  0.6508444  3
   7381   7380   7387   7388     1  0.0000000  0.6508444  3
   7381   7380   7387   7389     1  0.0000000  0.6508444  3
   7381   7393   7405   7406     1  0.0000000  0.6508444  3
   7381   7393   7405   7407     1  0.0000000  0.6508444  3
   7382   7381   7380   7384     1  0.0000000  0.6508444  3
   7382   7381   7380   7387     1  0.0000000  0.6508444  3
   7382   7381   7380   7409     1  0.0000000  0.6508444  3
   7382   7381   7393   7405     1  0.0000000  0.6508444  3
   7382   7381   7393   7394     1  0.0000000  0.6508444  3
   7382   7381   7393   7395     1  0.0000000  0.6508444  3
   7383   7381   7380   7384     1  0.0000000  0.6508444  3
   7383   7381   7380   7387     1  0.0000000  0.6508444  3
   7383   7381   7380   7409     1  0.0000000  0.6508444  3
   7383   7381   7393   7405     1  0.0000000  0.6508444  3
   7383   7381   7393   7394     1  0.0000000  0.6508444  3
   7383   7381   7393   7395     1  0.0000000  0.6508444  3
   7384   7380   7387   7388     1  0.0000000  0.6508444  3
   7384   7380   7387   7389     1  0.0000000  0.6508444  3
   7384   7396   7402   7403     1  0.0000000  0.6508444  3
   7384   7396   7402   7404     1  0.0000000  0.6508444  3
   7385   7384   7380   7387     1  0.0000000  0.6508444  3
   7385   7384   7380   7409     1  0.0000000  0.6508444  3
   7385   7384   7396   7402     1  0.0000000  0.6508444  3
   7385   7384   7396   7397     1  0.0000000  0.6508444  3
   7385   7384   7396   7398     1  0.0000000  0.6508444  3
   7386   7384   7380   7387     1  0.0000000  0.6508444  3
   7386   7384   7380   7409     1  0.0000000  0.6508444  3
   7386   7384   7396   7402     1  0.0000000  0.6508444  3
   7386   7384   7396   7397     1  0.0000000  0.6508444  3
   7386   7384   7396   7398     1  0.0000000  0.6508444  3
   7387   7390   7399   7400     1  0.0000000  0.6508444  3
   7387   7390   7399   7401     1  0.0000000  0.6508444  3
   7388   7387   7380   7409     1  0.0000000  0.6508444  3
   7388   7387   7390   7399     1  0.0000000  0.6508444  3
   7388   7387   7390   7391     1  0.0000000  0.6508444  3
   7388   7387   7390   7392     1  0.0000000  0.6508444  3
   7389   7387   7380   7409     1  0.0000000  0.6508444  3
   7389   7387   7390   7399     1  0.0000000  0.6508444  3
   7389   7387   7390   7391     1  0.0000000  0.6508444  3
   7389   7387   7390   7392     1  0.0000000  0.6508444  3
   7390   7387   7380   7409     1  0.0000000  0.6508444  3
   7391   7390   7399   7408     1  0.0000000  1.0460000  1
   7391   7390   7399   7408     1  0.0000000  0.0000000  3
   7391   7390   7399   7400     1  0.0000000  0.6508444  3
   7391   7390   7399   7401     1  0.0000000  0.6508444  3
   7392   7390   7399   7408     1  0.0000000  1.0460000  1
   7392   7390   7399   7408     1  0.0000000  0.0000000  3
   7392   7390   7399   7400     1  0.0000000  0.6508444  3
   7392   7390   7399   7401     1  0.0000000  0.6508444  3
   7393   7381   7380   7409     1  0.0000000  0.6508444  3
   7394   7393   7405  13173     1  0.0000000  1.0460000  1
   7394   7393   7405  13173     1  0.0000000  0.0000000  3
   7394   7393   7405   7406     1  0.0000000  0.6508444  3
   7394   7393   7405   7407     1  0.0000000  0.6508444  3
   7395   7393   7405  13173     1  0.0000000  1.0460000  1
   7395   7393   7405  13173     1  0.0000000  0.0000000  3
   7395   7393   7405   7406     1  0.0000000  0.6508444  3
   7395   7393   7405   7407     1  0.0000000  0.6508444  3
   7396   7384   7380   7409     1  0.0000000  0.6508444  3
   7397   7396   7402  13150     1  0.0000000  1.0460000  1
   7397   7396   7402  13150     1  0.0000000  0.0000000  3
   7397   7396   7402   7403     1  0.0000000  0.6508444  3
   7397   7396   7402   7404     1  0.0000000  0.6508444  3
   7398   7396   7402  13150     1  0.0000000  1.0460000  1
   7398   7396   7402  13150     1  0.0000000  0.0000000  3
   7398   7396   7402   7403     1  0.0000000  0.6508444  3
   7398   7396   7402   7404     1  0.0000000  0.6508444  3
   7402  13150  13146  13149     1  0.0000000  1.6038667  3
   7403   7402  13150  13146     1  0.0000000  1.6038667  3
   7404   7402  13150  13146     1  0.0000000  1.6038667  3
   7405  13173  13169  13172     1  0.0000000  1.6038667  3
   7406   7405  13173  13169     1  0.0000000  1.6038667  3
   7407   7405  13173  13169     1  0.0000000  1.6038667  3
   7410   7411   7423   7424     1  0.0000000  0.6508444  3
   7410   7411   7423   7425     1  0.0000000  0.6508444  3
   7410   7414   7426   7427     1  0.0000000  0.6508444  3
   7410   7414   7426   7428     1  0.0000000  0.6508444  3
   7410   7417   7420   7421     1  0.0000000  0.6508444  3
   7410   7417   7420   7422     1  0.0000000  0.6508444  3
   7411   7410   7414   7415     1  0.0000000  0.6508444  3
   7411   7410   7414   7416     1  0.0000000  0.6508444  3
   7411   7410   7417   7418     1  0.0000000  0.6508444  3
   7411   7410   7417   7419     1  0.0000000  0.6508444  3
   7411   7423   7435   7436     1  0.0000000  0.6508444  3
   7411   7423   7435   7437     1  0.0000000  0.6508444  3
   7412   7411   7410   7414     1  0.0000000  0.6508444  3
   7412   7411   7410   7417     1  0.0000000  0.6508444  3
   7412   7411   7410   7439     1  0.0000000  0.6508444  3
   7412   7411   7423   7435     1  0.0000000  0.6508444  3
   7412   7411   7423   7424     1  0.0000000  0.6508444  3
   7412   7411   7423   7425     1  0.0000000  0.6508444  3
   7413   7411   7410   7414     1  0.0000000  0.6508444  3
   7413   7411   7410   7417     1  0.0000000  0.6508444  3
   7413   7411   7410   7439     1  0.0000000  0.6508444  3
   7413   7411   7423   7435     1  0.0000000  0.6508444  3
   7413   7411   7423   7424     1  0.0000000  0.6508444  3
   7413   7411   7423   7425     1  0.0000000  0.6508444  3
   7414   7410   7417   7418     1  0.0000000  0.6508444  3
   7414   7410   7417   7419     1  0.0000000  0.6508444  3
   7414   7426   7432   7433     1  0.0000000  0.6508444  3
   7414   7426   7432   7434     1  0.0000000  0.6508444  3
   7415   7414   7410   7417     1  0.0000000  0.6508444  3
   7415   7414   7410   7439     1  0.0000000  0.6508444  3
   7415   7414   7426   7432     1  0.0000000  0.6508444  3
   7415   7414   7426   7427     1  0.0000000  0.6508444  3
   7415   7414   7426   7428     1  0.0000000  0.6508444  3
   7416   7414   7410   7417     1  0.0000000  0.6508444  3
   7416   7414   7410   7439     1  0.0000000  0.6508444  3
   7416   7414   7426   7432     1  0.0000000  0.6508444  3
   7416   7414   7426   7427     1  0.0000000  0.6508444  3
   7416   7414   7426   7428     1  0.0000000  0.6508444  3
   7417   7420   7429   7430     1  0.0000000  0.6508444  3
   7417   7420   7429   7431     1  0.0000000  0.6508444  3
   7418   7417   7410   7439     1  0.0000000  0.6508444  3
   7418   7417   7420   7429     1  0.0000000  0.6508444  3
   7418   7417   7420   7421     1  0.0000000  0.6508444  3
   7418   7417   7420   7422     1  0.0000000  0.6508444  3
   7419   7417   7410   7439     1  0.0000000  0.6508444  3
   7419   7417   7420   7429     1  0.0000000  0.6508444  3
   7419   7417   7420   7421     1  0.0000000  0.6508444  3
   7419   7417   7420   7422     1  0.0000000  0.6508444  3
   7420   7417   7410   7439     1  0.0000000  0.6508444  3
   7421   7420   7429   7438     1  0.0000000  1.0460000  1
   7421   7420   7429   7438     1  0.0000000  0.0000000  3
   7421   7420   7429   7430     1  0.0000000  0.6508444  3
   7421   7420   7429   7431     1  0.0000000  0.6508444  3
   7422   7420   7429   7438     1  0.0000000  1.0460000  1
   7422   7420   7429   7438     1  0.0000000  0.0000000  3
   7422   7420   7429   7430     1  0.0000000  0.6508444  3
   7422   7420   7429   7431     1  0.0000000  0.6508444  3
   7423   7411   7410   7439     1  0.0000000  0.6508444  3
   7424   7423   7435  13219     1  0.0000000  1.0460000  1
   7424   7423   7435  13219     1  0.0000000  0.0000000  3
   7424   7423   7435   7436     1  0.0000000  0.6508444  3
   7424   7423   7435   7437     1  0.0000000  0.6508444  3
   7425   7423   7435  13219     1  0.0000000  1.0460000  1
   7425   7423   7435  13219     1  0.0000000  0.0000000  3
   7425   7423   7435   7436     1  0.0000000  0.6508444  3
   7425   7423   7435   7437     1  0.0000000  0.6508444  3
   7426   7414   7410   7439     1  0.0000000  0.6508444  3
   7427   7426   7432  13196     1  0.0000000  1.0460000  1
   7427   7426   7432  13196     1  0.0000000  0.0000000  3
   7427   7426   7432   7433     1  0.0000000  0.6508444  3
   7427   7426   7432   7434     1  0.0000000  0.6508444  3
   7428   7426   7432  13196     1  0.0000000  1.0460000  1
   7428   7426   7432  13196     1  0.0000000  0.0000000  3
   7428   7426   7432   7433     1  0.0000000  0.6508444  3
   7428   7426   7432   7434     1  0.0000000  0.6508444  3
   7432  13196  13192  13195     1  0.0000000  1.6038667  3
   7433   7432  13196  13192     1  0.0000000  1.6038667  3
   7434   7432  13196  13192     1  0.0000000  1.6038667  3
   7435  13219  13215  13218     1  0.0000000  1.6038667  3
   7436   7435  13219  13215     1  0.0000000  1.6038667  3
   7437   7435  13219  13215     1  0.0000000  1.6038667  3
   7440   7441   7453   7454     1  0.0000000  0.6508444  3
   7440   7441   7453   7455     1  0.0000000  0.6508444  3
   7440   7444   7456   7457     1  0.0000000  0.6508444  3
   7440   7444   7456   7458     1  0.0000000  0.6508444  3
   7440   7447   7450   7451     1  0.0000000  0.6508444  3
   7440   7447   7450   7452     1  0.0000000  0.6508444  3
   7441   7440   7444   7445     1  0.0000000  0.6508444  3
   7441   7440   7444   7446     1  0.0000000  0.6508444  3
   7441   7440   7447   7448     1  0.0000000  0.6508444  3
   7441   7440   7447   7449     1  0.0000000  0.6508444  3
   7441   7453   7465   7466     1  0.0000000  0.6508444  3
   7441   7453   7465   7467     1  0.0000000  0.6508444  3
   7442   7441   7440   7444     1  0.0000000  0.6508444  3
   7442   7441   7440   7447     1  0.0000000  0.6508444  3
   7442   7441   7440   7469     1  0.0000000  0.6508444  3
   7442   7441   7453   7465     1  0.0000000  0.6508444  3
   7442   7441   7453   7454     1  0.0000000  0.6508444  3
   7442   7441   7453   7455     1  0.0000000  0.6508444  3
   7443   7441   7440   7444     1  0.0000000  0.6508444  3
   7443   7441   7440   7447     1  0.0000000  0.6508444  3
   7443   7441   7440   7469     1  0.0000000  0.6508444  3
   7443   7441   7453   7465     1  0.0000000  0.6508444  3
   7443   7441   7453   7454     1  0.0000000  0.6508444  3
   7443   7441   7453   7455     1  0.0000000  0.6508444  3
   7444   7440   7447   7448     1  0.0000000  0.6508444  3
   7444   7440   7447   7449     1  0.0000000  0.6508444  3
   7444   7456   7462   7463     1  0.0000000  0.6508444  3
   7444   7456   7462   7464     1  0.0000000  0.6508444  3
   7445   7444   7440   7447     1  0.0000000  0.6508444  3
   7445   7444   7440   7469     1  0.0000000  0.6508444  3
   7445   7444   7456   7462     1  0.0000000  0.6508444  3
   7445   7444   7456   7457     1  0.0000000  0.6508444  3
   7445   7444   7456   7458     1  0.0000000  0.6508444  3
   7446   7444   7440   7447     1  0.0000000  0.6508444  3
   7446   7444   7440   7469     1  0.0000000  0.6508444  3
   7446   7444   7456   7462     1  0.0000000  0.6508444  3
   7446   7444   7456   7457     1  0.0000000  0.6508444  3
   7446   7444   7456   7458     1  0.0000000  0.6508444  3
   7447   7450   7459   7460     1  0.0000000  0.6508444  3
   7447   7450   7459   7461     1  0.0000000  0.6508444  3
   7448   7447   7440   7469     1  0.0000000  0.6508444  3
   7448   7447   7450   7459     1  0.0000000  0.6508444  3
   7448   7447   7450   7451     1  0.0000000  0.6508444  3
   7448   7447   7450   7452     1  0.0000000  0.6508444  3
   7449   7447   7440   7469     1  0.0000000  0.6508444  3
   7449   7447   7450   7459     1  0.0000000  0.6508444  3
   7449   7447   7450   7451     1  0.0000000  0.6508444  3
   7449   7447   7450   7452     1  0.0000000  0.6508444  3
   7450   7447   7440   7469     1  0.0000000  0.6508444  3
   7451   7450   7459   7468     1  0.0000000  1.0460000  1
   7451   7450   7459   7468     1  0.0000000  0.0000000  3
   7451   7450   7459   7460     1  0.0000000  0.6508444  3
   7451   7450   7459   7461     1  0.0000000  0.6508444  3
   7452   7450   7459   7468     1  0.0000000  1.0460000  1
   7452   7450   7459   7468     1  0.0000000  0.0000000  3
   7452   7450   7459   7460     1  0.0000000  0.6508444  3
   7452   7450   7459   7461     1  0.0000000  0.6508444  3
   7453   7441   7440   7469     1  0.0000000  0.6508444  3
   7454   7453   7465  13265     1  0.0000000  1.0460000  1
   7454   7453   7465  13265     1  0.0000000  0.0000000  3
   7454   7453   7465   7466     1  0.0000000  0.6508444  3
   7454   7453   7465   7467     1  0.0000000  0.6508444  3
   7455   7453   7465  13265     1  0.0000000  1.0460000  1
   7455   7453   7465  13265     1  0.0000000  0.0000000  3
   7455   7453   7465   7466     1  0.0000000  0.6508444  3
   7455   7453   7465   7467     1  0.0000000  0.6508444  3
   7456   7444   7440   7469     1  0.0000000  0.6508444  3
   7457   7456   7462  13242     1  0.0000000  1.0460000  1
   7457   7456   7462  13242     1  0.0000000  0.0000000  3
   7457   7456   7462   7463     1  0.0000000  0.6508444  3
   7457   7456   7462   7464     1  0.0000000  0.6508444  3
   7458   7456   7462  13242     1  0.0000000  1.0460000  1
   7458   7456   7462  13242     1  0.0000000  0.0000000  3
   7458   7456   7462   7463     1  0.0000000  0.6508444  3
   7458   7456   7462   7464     1  0.0000000  0.6508444  3
   7462  13242  13238  13241     1  0.0000000  1.6038667  3
   7463   7462  13242  13238     1  0.0000000  1.6038667  3
   7464   7462  13242  13238     1  0.0000000  1.6038667  3
   7465  13265  13261  13264     1  0.0000000  1.6038667  3
   7466   7465  13265  13261     1  0.0000000  1.6038667  3
   7467   7465  13265  13261     1  0.0000000  1.6038667  3
   7470   7471   7483   7484     1  0.0000000  0.6508444  3
   7470   7471   7483   7485     1  0.0000000  0.6508444  3
   7470   7474   7486   7487     1  0.0000000  0.6508444  3
   7470   7474   7486   7488     1  0.0000000  0.6508444  3
   7470   7477   7480   7481     1  0.0000000  0.6508444  3
   7470   7477   7480   7482     1  0.0000000  0.6508444  3
   7471   7470   7474   7475     1  0.0000000  0.6508444  3
   7471   7470   7474   7476     1  0.0000000  0.6508444  3
   7471   7470   7477   7478     1  0.0000000  0.6508444  3
   7471   7470   7477   7479     1  0.0000000  0.6508444  3
   7471   7483   7495   7496     1  0.0000000  0.6508444  3
   7471   7483   7495   7497     1  0.0000000  0.6508444  3
   7472   7471   7470   7474     1  0.0000000  0.6508444  3
   7472   7471   7470   7477     1  0.0000000  0.6508444  3
   7472   7471   7470   7499     1  0.0000000  0.6508444  3
   7472   7471   7483   7495     1  0.0000000  0.6508444  3
   7472   7471   7483   7484     1  0.0000000  0.6508444  3
   7472   7471   7483   7485     1  0.0000000  0.6508444  3
   7473   7471   7470   7474     1  0.0000000  0.6508444  3
   7473   7471   7470   7477     1  0.0000000  0.6508444  3
   7473   7471   7470   7499     1  0.0000000  0.6508444  3
   7473   7471   7483   7495     1  0.0000000  0.6508444  3
   7473   7471   7483   7484     1  0.0000000  0.6508444  3
   7473   7471   7483   7485     1  0.0000000  0.6508444  3
   7474   7470   7477   7478     1  0.0000000  0.6508444  3
   7474   7470   7477   7479     1  0.0000000  0.6508444  3
   7474   7486   7492   7493     1  0.0000000  0.6508444  3
   7474   7486   7492   7494     1  0.0000000  0.6508444  3
   7475   7474   7470   7477     1  0.0000000  0.6508444  3
   7475   7474   7470   7499     1  0.0000000  0.6508444  3
   7475   7474   7486   7492     1  0.0000000  0.6508444  3
   7475   7474   7486   7487     1  0.0000000  0.6508444  3
   7475   7474   7486   7488     1  0.0000000  0.6508444  3
   7476   7474   7470   7477     1  0.0000000  0.6508444  3
   7476   7474   7470   7499     1  0.0000000  0.6508444  3
   7476   7474   7486   7492     1  0.0000000  0.6508444  3
   7476   7474   7486   7487     1  0.0000000  0.6508444  3
   7476   7474   7486   7488     1  0.0000000  0.6508444  3
   7477   7480   7489   7490     1  0.0000000  0.6508444  3
   7477   7480   7489   7491     1  0.0000000  0.6508444  3
   7478   7477   7470   7499     1  0.0000000  0.6508444  3
   7478   7477   7480   7489     1  0.0000000  0.6508444  3
   7478   7477   7480   7481     1  0.0000000  0.6508444  3
   7478   7477   7480   7482     1  0.0000000  0.6508444  3
   7479   7477   7470   7499     1  0.0000000  0.6508444  3
   7479   7477   7480   7489     1  0.0000000  0.6508444  3
   7479   7477   7480   7481     1  0.0000000  0.6508444  3
   7479   7477   7480   7482     1  0.0000000  0.6508444  3
   7480   7477   7470   7499     1  0.0000000  0.6508444  3
   7481   7480   7489   7498     1  0.0000000  1.0460000  1
   7481   7480   7489   7498     1  0.0000000  0.0000000  3
   7481   7480   7489   7490     1  0.0000000  0.6508444  3
   7481   7480   7489   7491     1  0.0000000  0.6508444  3
   7482   7480   7489   7498     1  0.0000000  1.0460000  1
   7482   7480   7489   7498     1  0.0000000  0.0000000  3
   7482   7480   7489   7490     1  0.0000000  0.6508444  3
   7482   7480   7489   7491     1  0.0000000  0.6508444  3
   7483   7471   7470   7499     1  0.0000000  0.6508444  3
   7484   7483   7495  13311     1  0.0000000  1.0460000  1
   7484   7483   7495  13311     1  0.0000000  0.0000000  3
   7484   7483   7495   7496     1  0.0000000  0.6508444  3
   7484   7483   7495   7497     1  0.0000000  0.6508444  3
   7485   7483   7495  13311     1  0.0000000  1.0460000  1
   7485   7483   7495  13311     1  0.0000000  0.0000000  3
   7485   7483   7495   7496     1  0.0000000  0.6508444  3
   7485   7483   7495   7497     1  0.0000000  0.6508444  3
   7486   7474   7470   7499     1  0.0000000  0.6508444  3
   7487   7486   7492  13288     1  0.0000000  1.0460000  1
   7487   7486   7492  13288     1  0.0000000  0.0000000  3
   7487   7486   7492   7493     1  0.0000000  0.6508444  3
   7487   7486   7492   7494     1  0.0000000  0.6508444  3
   7488   7486   7492  13288     1  0.0000000  1.0460000  1
   7488   7486   7492  13288     1  0.0000000  0.0000000  3
   7488   7486   7492   7493     1  0.0000000  0.6508444  3
   7488   7486   7492   7494     1  0.0000000  0.6508444  3
   7492  13288  13284  13287     1  0.0000000  1.6038667  3
   7493   7492  13288  13284     1  0.0000000  1.6038667  3
   7494   7492  13288  13284     1  0.0000000  1.6038667  3
   7495  13311  13307  13310     1  0.0000000  1.6038667  3
   7496   7495  13311  13307     1  0.0000000  1.6038667  3
   7497   7495  13311  13307     1  0.0000000  1.6038667  3
   7500   7501   7513   7514     1  0.0000000  0.6508444  3
   7500   7501   7513   7515     1  0.0000000  0.6508444  3
   7500   7504   7516   7517     1  0.0000000  0.6508444  3
   7500   7504   7516   7518     1  0.0000000  0.6508444  3
   7500   7507   7510   7511     1  0.0000000  0.6508444  3
   7500   7507   7510   7512     1  0.0000000  0.6508444  3
   7501   7500   7504   7505     1  0.0000000  0.6508444  3
   7501   7500   7504   7506     1  0.0000000  0.6508444  3
   7501   7500   7507   7508     1  0.0000000  0.6508444  3
   7501   7500   7507   7509     1  0.0000000  0.6508444  3
   7501   7513   7525   7526     1  0.0000000  0.6508444  3
   7501   7513   7525   7527     1  0.0000000  0.6508444  3
   7502   7501   7500   7504     1  0.0000000  0.6508444  3
   7502   7501   7500   7507     1  0.0000000  0.6508444  3
   7502   7501   7500   7529     1  0.0000000  0.6508444  3
   7502   7501   7513   7525     1  0.0000000  0.6508444  3
   7502   7501   7513   7514     1  0.0000000  0.6508444  3
   7502   7501   7513   7515     1  0.0000000  0.6508444  3
   7503   7501   7500   7504     1  0.0000000  0.6508444  3
   7503   7501   7500   7507     1  0.0000000  0.6508444  3
   7503   7501   7500   7529     1  0.0000000  0.6508444  3
   7503   7501   7513   7525     1  0.0000000  0.6508444  3
   7503   7501   7513   7514     1  0.0000000  0.6508444  3
   7503   7501   7513   7515     1  0.0000000  0.6508444  3
   7504   7500   7507   7508     1  0.0000000  0.6508444  3
   7504   7500   7507   7509     1  0.0000000  0.6508444  3
   7504   7516   7522   7523     1  0.0000000  0.6508444  3
   7504   7516   7522   7524     1  0.0000000  0.6508444  3
   7505   7504   7500   7507     1  0.0000000  0.6508444  3
   7505   7504   7500   7529     1  0.0000000  0.6508444  3
   7505   7504   7516   7522     1  0.0000000  0.6508444  3
   7505   7504   7516   7517     1  0.0000000  0.6508444  3
   7505   7504   7516   7518     1  0.0000000  0.6508444  3
   7506   7504   7500   7507     1  0.0000000  0.6508444  3
   7506   7504   7500   7529     1  0.0000000  0.6508444  3
   7506   7504   7516   7522     1  0.0000000  0.6508444  3
   7506   7504   7516   7517     1  0.0000000  0.6508444  3
   7506   7504   7516   7518     1  0.0000000  0.6508444  3
   7507   7510   7519   7520     1  0.0000000  0.6508444  3
   7507   7510   7519   7521     1  0.0000000  0.6508444  3
   7508   7507   7500   7529     1  0.0000000  0.6508444  3
   7508   7507   7510   7519     1  0.0000000  0.6508444  3
   7508   7507   7510   7511     1  0.0000000  0.6508444  3
   7508   7507   7510   7512     1  0.0000000  0.6508444  3
   7509   7507   7500   7529     1  0.0000000  0.6508444  3
   7509   7507   7510   7519     1  0.0000000  0.6508444  3
   7509   7507   7510   7511     1  0.0000000  0.6508444  3
   7509   7507   7510   7512     1  0.0000000  0.6508444  3
   7510   7507   7500   7529     1  0.0000000  0.6508444  3
   7511   7510   7519   7528     1  0.0000000  1.0460000  1
   7511   7510   7519   7528     1  0.0000000  0.0000000  3
   7511   7510   7519   7520     1  0.0000000  0.6508444  3
   7511   7510   7519   7521     1  0.0000000  0.6508444  3
   7512   7510   7519   7528     1  0.0000000  1.0460000  1
   7512   7510   7519   7528     1  0.0000000  0.0000000  3
   7512   7510   7519   7520     1  0.0000000  0.6508444  3
   7512   7510   7519   7521     1  0.0000000  0.6508444  3
   7513   7501   7500   7529     1  0.0000000  0.6508444  3
   7514   7513   7525  13357     1  0.0000000  1.0460000  1
   7514   7513   7525  13357     1  0.0000000  0.0000000  3
   7514   7513   7525   7526     1  0.0000000  0.6508444  3
   7514   7513   7525   7527     1  0.0000000  0.6508444  3
   7515   7513   7525  13357     1  0.0000000  1.0460000  1
   7515   7513   7525  13357     1  0.0000000  0.0000000  3
   7515   7513   7525   7526     1  0.0000000  0.6508444  3
   7515   7513   7525   7527     1  0.0000000  0.6508444  3
   7516   7504   7500   7529     1  0.0000000  0.6508444  3
   7517   7516   7522  13334     1  0.0000000  1.0460000  1
   7517   7516   7522  13334     1  0.0000000  0.0000000  3
   7517   7516   7522   7523     1  0.0000000  0.6508444  3
   7517   7516   7522   7524     1  0.0000000  0.6508444  3
   7518   7516   7522  13334     1  0.0000000  1.0460000  1
   7518   7516   7522  13334     1  0.0000000  0.0000000  3
   7518   7516   7522   7523     1  0.0000000  0.6508444  3
   7518   7516   7522   7524     1  0.0000000  0.6508444  3
   7522  13334  13330  13333     1  0.0000000  1.6038667  3
   7523   7522  13334  13330     1  0.0000000  1.6038667  3
   7524   7522  13334  13330     1  0.0000000  1.6038667  3
   7525  13357  13353  13356     1  0.0000000  1.6038667  3
   7526   7525  13357  13353     1  0.0000000  1.6038667  3
   7527   7525  13357  13353     1  0.0000000  1.6038667  3
   7530   7531   7543   7544     1  0.0000000  0.6508444  3
   7530   7531   7543   7545     1  0.0000000  0.6508444  3
   7530   7534   7546   7547     1  0.0000000  0.6508444  3
   7530   7534   7546   7548     1  0.0000000  0.6508444  3
   7530   7537   7540   7541     1  0.0000000  0.6508444  3
   7530   7537   7540   7542     1  0.0000000  0.6508444  3
   7531   7530   7534   7535     1  0.0000000  0.6508444  3
   7531   7530   7534   7536     1  0.0000000  0.6508444  3
   7531   7530   7537   7538     1  0.0000000  0.6508444  3
   7531   7530   7537   7539     1  0.0000000  0.6508444  3
   7531   7543   7555   7556     1  0.0000000  0.6508444  3
   7531   7543   7555   7557     1  0.0000000  0.6508444  3
   7532   7531   7530   7534     1  0.0000000  0.6508444  3
   7532   7531   7530   7537     1  0.0000000  0.6508444  3
   7532   7531   7530   7559     1  0.0000000  0.6508444  3
   7532   7531   7543   7555     1  0.0000000  0.6508444  3
   7532   7531   7543   7544     1  0.0000000  0.6508444  3
   7532   7531   7543   7545     1  0.0000000  0.6508444  3
   7533   7531   7530   7534     1  0.0000000  0.6508444  3
   7533   7531   7530   7537     1  0.0000000  0.6508444  3
   7533   7531   7530   7559     1  0.0000000  0.6508444  3
   7533   7531   7543   7555     1  0.0000000  0.6508444  3
   7533   7531   7543   7544     1  0.0000000  0.6508444  3
   7533   7531   7543   7545     1  0.0000000  0.6508444  3
   7534   7530   7537   7538     1  0.0000000  0.6508444  3
   7534   7530   7537   7539     1  0.0000000  0.6508444  3
   7534   7546   7552   7553     1  0.0000000  0.6508444  3
   7534   7546   7552   7554     1  0.0000000  0.6508444  3
   7535   7534   7530   7537     1  0.0000000  0.6508444  3
   7535   7534   7530   7559     1  0.0000000  0.6508444  3
   7535   7534   7546   7552     1  0.0000000  0.6508444  3
   7535   7534   7546   7547     1  0.0000000  0.6508444  3
   7535   7534   7546   7548     1  0.0000000  0.6508444  3
   7536   7534   7530   7537     1  0.0000000  0.6508444  3
   7536   7534   7530   7559     1  0.0000000  0.6508444  3
   7536   7534   7546   7552     1  0.0000000  0.6508444  3
   7536   7534   7546   7547     1  0.0000000  0.6508444  3
   7536   7534   7546   7548     1  0.0000000  0.6508444  3
   7537   7540   7549   7550     1  0.0000000  0.6508444  3
   7537   7540   7549   7551     1  0.0000000  0.6508444  3
   7538   7537   7530   7559     1  0.0000000  0.6508444  3
   7538   7537   7540   7549     1  0.0000000  0.6508444  3
   7538   7537   7540   7541     1  0.0000000  0.6508444  3
   7538   7537   7540   7542     1  0.0000000  0.6508444  3
   7539   7537   7530   7559     1  0.0000000  0.6508444  3
   7539   7537   7540   7549     1  0.0000000  0.6508444  3
   7539   7537   7540   7541     1  0.0000000  0.6508444  3
   7539   7537   7540   7542     1  0.0000000  0.6508444  3
   7540   7537   7530   7559     1  0.0000000  0.6508444  3
   7541   7540   7549   7558     1  0.0000000  1.0460000  1
   7541   7540   7549   7558     1  0.0000000  0.0000000  3
   7541   7540   7549   7550     1  0.0000000  0.6508444  3
   7541   7540   7549   7551     1  0.0000000  0.6508444  3
   7542   7540   7549   7558     1  0.0000000  1.0460000  1
   7542   7540   7549   7558     1  0.0000000  0.0000000  3
   7542   7540   7549   7550     1  0.0000000  0.6508444  3
   7542   7540   7549   7551     1  0.0000000  0.6508444  3
   7543   7531   7530   7559     1  0.0000000  0.6508444  3
   7544   7543   7555  13403     1  0.0000000  1.0460000  1
   7544   7543   7555  13403     1  0.0000000  0.0000000  3
   7544   7543   7555   7556     1  0.0000000  0.6508444  3
   7544   7543   7555   7557     1  0.0000000  0.6508444  3
   7545   7543   7555  13403     1  0.0000000  1.0460000  1
   7545   7543   7555  13403     1  0.0000000  0.0000000  3
   7545   7543   7555   7556     1  0.0000000  0.6508444  3
   7545   7543   7555   7557     1  0.0000000  0.6508444  3
   7546   7534   7530   7559     1  0.0000000  0.6508444  3
   7547   7546   7552  13380     1  0.0000000  1.0460000  1
   7547   7546   7552  13380     1  0.0000000  0.0000000  3
   7547   7546   7552   7553     1  0.0000000  0.6508444  3
   7547   7546   7552   7554     1  0.0000000  0.6508444  3
   7548   7546   7552  13380     1  0.0000000  1.0460000  1
   7548   7546   7552  13380     1  0.0000000  0.0000000  3
   7548   7546   7552   7553     1  0.0000000  0.6508444  3
   7548   7546   7552   7554     1  0.0000000  0.6508444  3
   7552  13380  13376  13379     1  0.0000000  1.6038667  3
   7553   7552  13380  13376     1  0.0000000  1.6038667  3
   7554   7552  13380  13376     1  0.0000000  1.6038667  3
   7555  13403  13399  13402     1  0.0000000  1.6038667  3
   7556   7555  13403  13399     1  0.0000000  1.6038667  3
   7557   7555  13403  13399     1  0.0000000  1.6038667  3
   7560   7561   7573   7574     1  0.0000000  0.6508444  3
   7560   7561   7573   7575     1  0.0000000  0.6508444  3
   7560   7564   7576   7577     1  0.0000000  0.6508444  3
   7560   7564   7576   7578     1  0.0000000  0.6508444  3
   7560   7567   7570   7571     1  0.0000000  0.6508444  3
   7560   7567   7570   7572     1  0.0000000  0.6508444  3
   7561   7560   7564   7565     1  0.0000000  0.6508444  3
   7561   7560   7564   7566     1  0.0000000  0.6508444  3
   7561   7560   7567   7568     1  0.0000000  0.6508444  3
   7561   7560   7567   7569     1  0.0000000  0.6508444  3
   7561   7573   7585   7586     1  0.0000000  0.6508444  3
   7561   7573   7585   7587     1  0.0000000  0.6508444  3
   7562   7561   7560   7564     1  0.0000000  0.6508444  3
   7562   7561   7560   7567     1  0.0000000  0.6508444  3
   7562   7561   7560   7589     1  0.0000000  0.6508444  3
   7562   7561   7573   7585     1  0.0000000  0.6508444  3
   7562   7561   7573   7574     1  0.0000000  0.6508444  3
   7562   7561   7573   7575     1  0.0000000  0.6508444  3
   7563   7561   7560   7564     1  0.0000000  0.6508444  3
   7563   7561   7560   7567     1  0.0000000  0.6508444  3
   7563   7561   7560   7589     1  0.0000000  0.6508444  3
   7563   7561   7573   7585     1  0.0000000  0.6508444  3
   7563   7561   7573   7574     1  0.0000000  0.6508444  3
   7563   7561   7573   7575     1  0.0000000  0.6508444  3
   7564   7560   7567   7568     1  0.0000000  0.6508444  3
   7564   7560   7567   7569     1  0.0000000  0.6508444  3
   7564   7576   7582   7583     1  0.0000000  0.6508444  3
   7564   7576   7582   7584     1  0.0000000  0.6508444  3
   7565   7564   7560   7567     1  0.0000000  0.6508444  3
   7565   7564   7560   7589     1  0.0000000  0.6508444  3
   7565   7564   7576   7582     1  0.0000000  0.6508444  3
   7565   7564   7576   7577     1  0.0000000  0.6508444  3
   7565   7564   7576   7578     1  0.0000000  0.6508444  3
   7566   7564   7560   7567     1  0.0000000  0.6508444  3
   7566   7564   7560   7589     1  0.0000000  0.6508444  3
   7566   7564   7576   7582     1  0.0000000  0.6508444  3
   7566   7564   7576   7577     1  0.0000000  0.6508444  3
   7566   7564   7576   7578     1  0.0000000  0.6508444  3
   7567   7570   7579   7580     1  0.0000000  0.6508444  3
   7567   7570   7579   7581     1  0.0000000  0.6508444  3
   7568   7567   7560   7589     1  0.0000000  0.6508444  3
   7568   7567   7570   7579     1  0.0000000  0.6508444  3
   7568   7567   7570   7571     1  0.0000000  0.6508444  3
   7568   7567   7570   7572     1  0.0000000  0.6508444  3
   7569   7567   7560   7589     1  0.0000000  0.6508444  3
   7569   7567   7570   7579     1  0.0000000  0.6508444  3
   7569   7567   7570   7571     1  0.0000000  0.6508444  3
   7569   7567   7570   7572     1  0.0000000  0.6508444  3
   7570   7567   7560   7589     1  0.0000000  0.6508444  3
   7571   7570   7579   7588     1  0.0000000  1.0460000  1
   7571   7570   7579   7588     1  0.0000000  0.0000000  3
   7571   7570   7579   7580     1  0.0000000  0.6508444  3
   7571   7570   7579   7581     1  0.0000000  0.6508444  3
   7572   7570   7579   7588     1  0.0000000  1.0460000  1
   7572   7570   7579   7588     1  0.0000000  0.0000000  3
   7572   7570   7579   7580     1  0.0000000  0.6508444  3
   7572   7570   7579   7581     1  0.0000000  0.6508444  3
   7573   7561   7560   7589     1  0.0000000  0.6508444  3
   7574   7573   7585  13449     1  0.0000000  1.0460000  1
   7574   7573   7585  13449     1  0.0000000  0.0000000  3
   7574   7573   7585   7586     1  0.0000000  0.6508444  3
   7574   7573   7585   7587     1  0.0000000  0.6508444  3
   7575   7573   7585  13449     1  0.0000000  1.0460000  1
   7575   7573   7585  13449     1  0.0000000  0.0000000  3
   7575   7573   7585   7586     1  0.0000000  0.6508444  3
   7575   7573   7585   7587     1  0.0000000  0.6508444  3
   7576   7564   7560   7589     1  0.0000000  0.6508444  3
   7577   7576   7582  13426     1  0.0000000  1.0460000  1
   7577   7576   7582  13426     1  0.0000000  0.0000000  3
   7577   7576   7582   7583     1  0.0000000  0.6508444  3
   7577   7576   7582   7584     1  0.0000000  0.6508444  3
   7578   7576   7582  13426     1  0.0000000  1.0460000  1
   7578   7576   7582  13426     1  0.0000000  0.0000000  3
   7578   7576   7582   7583     1  0.0000000  0.6508444  3
   7578   7576   7582   7584     1  0.0000000  0.6508444  3
   7582  13426  13422  13425     1  0.0000000  1.6038667  3
   7583   7582  13426  13422     1  0.0000000  1.6038667  3
   7584   7582  13426  13422     1  0.0000000  1.6038667  3
   7585  13449  13445  13448     1  0.0000000  1.6038667  3
   7586   7585  13449  13445     1  0.0000000  1.6038667  3
   7587   7585  13449  13445     1  0.0000000  1.6038667  3
   7590   7591   7603   7604     1  0.0000000  0.6508444  3
   7590   7591   7603   7605     1  0.0000000  0.6508444  3
   7590   7594   7606   7607     1  0.0000000  0.6508444  3
   7590   7594   7606   7608     1  0.0000000  0.6508444  3
   7590   7597   7600   7601     1  0.0000000  0.6508444  3
   7590   7597   7600   7602     1  0.0000000  0.6508444  3
   7591   7590   7594   7595     1  0.0000000  0.6508444  3
   7591   7590   7594   7596     1  0.0000000  0.6508444  3
   7591   7590   7597   7598     1  0.0000000  0.6508444  3
   7591   7590   7597   7599     1  0.0000000  0.6508444  3
   7591   7603   7615   7616     1  0.0000000  0.6508444  3
   7591   7603   7615   7617     1  0.0000000  0.6508444  3
   7592   7591   7590   7594     1  0.0000000  0.6508444  3
   7592   7591   7590   7597     1  0.0000000  0.6508444  3
   7592   7591   7590   7619     1  0.0000000  0.6508444  3
   7592   7591   7603   7615     1  0.0000000  0.6508444  3
   7592   7591   7603   7604     1  0.0000000  0.6508444  3
   7592   7591   7603   7605     1  0.0000000  0.6508444  3
   7593   7591   7590   7594     1  0.0000000  0.6508444  3
   7593   7591   7590   7597     1  0.0000000  0.6508444  3
   7593   7591   7590   7619     1  0.0000000  0.6508444  3
   7593   7591   7603   7615     1  0.0000000  0.6508444  3
   7593   7591   7603   7604     1  0.0000000  0.6508444  3
   7593   7591   7603   7605     1  0.0000000  0.6508444  3
   7594   7590   7597   7598     1  0.0000000  0.6508444  3
   7594   7590   7597   7599     1  0.0000000  0.6508444  3
   7594   7606   7612   7613     1  0.0000000  0.6508444  3
   7594   7606   7612   7614     1  0.0000000  0.6508444  3
   7595   7594   7590   7597     1  0.0000000  0.6508444  3
   7595   7594   7590   7619     1  0.0000000  0.6508444  3
   7595   7594   7606   7612     1  0.0000000  0.6508444  3
   7595   7594   7606   7607     1  0.0000000  0.6508444  3
   7595   7594   7606   7608     1  0.0000000  0.6508444  3
   7596   7594   7590   7597     1  0.0000000  0.6508444  3
   7596   7594   7590   7619     1  0.0000000  0.6508444  3
   7596   7594   7606   7612     1  0.0000000  0.6508444  3
   7596   7594   7606   7607     1  0.0000000  0.6508444  3
   7596   7594   7606   7608     1  0.0000000  0.6508444  3
   7597   7600   7609   7610     1  0.0000000  0.6508444  3
   7597   7600   7609   7611     1  0.0000000  0.6508444  3
   7598   7597   7590   7619     1  0.0000000  0.6508444  3
   7598   7597   7600   7609     1  0.0000000  0.6508444  3
   7598   7597   7600   7601     1  0.0000000  0.6508444  3
   7598   7597   7600   7602     1  0.0000000  0.6508444  3
   7599   7597   7590   7619     1  0.0000000  0.6508444  3
   7599   7597   7600   7609     1  0.0000000  0.6508444  3
   7599   7597   7600   7601     1  0.0000000  0.6508444  3
   7599   7597   7600   7602     1  0.0000000  0.6508444  3
   7600   7597   7590   7619     1  0.0000000  0.6508444  3
   7601   7600   7609   7618     1  0.0000000  1.0460000  1
   7601   7600   7609   7618     1  0.0000000  0.0000000  3
   7601   7600   7609   7610     1  0.0000000  0.6508444  3
   7601   7600   7609   7611     1  0.0000000  0.6508444  3
   7602   7600   7609   7618     1  0.0000000  1.0460000  1
   7602   7600   7609   7618     1  0.0000000  0.0000000  3
   7602   7600   7609   7610     1  0.0000000  0.6508444  3
   7602   7600   7609   7611     1  0.0000000  0.6508444  3
   7603   7591   7590   7619     1  0.0000000  0.6508444  3
   7604   7603   7615  13495     1  0.0000000  1.0460000  1
   7604   7603   7615  13495     1  0.0000000  0.0000000  3
   7604   7603   7615   7616     1  0.0000000  0.6508444  3
   7604   7603   7615   7617     1  0.0000000  0.6508444  3
   7605   7603   7615  13495     1  0.0000000  1.0460000  1
   7605   7603   7615  13495     1  0.0000000  0.0000000  3
   7605   7603   7615   7616     1  0.0000000  0.6508444  3
   7605   7603   7615   7617     1  0.0000000  0.6508444  3
   7606   7594   7590   7619     1  0.0000000  0.6508444  3
   7607   7606   7612  13472     1  0.0000000  1.0460000  1
   7607   7606   7612  13472     1  0.0000000  0.0000000  3
   7607   7606   7612   7613     1  0.0000000  0.6508444  3
   7607   7606   7612   7614     1  0.0000000  0.6508444  3
   7608   7606   7612  13472     1  0.0000000  1.0460000  1
   7608   7606   7612  13472     1  0.0000000  0.0000000  3
   7608   7606   7612   7613     1  0.0000000  0.6508444  3
   7608   7606   7612   7614     1  0.0000000  0.6508444  3
   7612  13472  13468  13471     1  0.0000000  1.6038667  3
   7613   7612  13472  13468     1  0.0000000  1.6038667  3
   7614   7612  13472  13468     1  0.0000000  1.6038667  3
   7615  13495  13491  13494     1  0.0000000  1.6038667  3
   7616   7615  13495  13491     1  0.0000000  1.6038667  3
   7617   7615  13495  13491     1  0.0000000  1.6038667  3
   7620   7621   7624   7628     1  0.0000000  0.6508444  3
   7620   7621   7633   7636     1  0.0000000  1.0460000  1
   7620   7621   7633   7636     1  0.0000000  0.6694400  3
   7620   7634   7640   7641     1  0.0000000  1.0460000  1
   7620   7634   7640   7641     1  0.0000000  0.6694400  3
   7620   7642   7626   7629     1  0.0000000  1.6038667  3
   7621   7620   7634   7638     1  0.0000000  0.6508444  3
   7621   7620   7634   7639     1  0.0000000  0.6508444  3
   7621   7624   7625   7627     1  0.0000000  0.6508444  3
   7621   7624   7632   7635     1  0.0000000  1.0460000  1
   7621   7624   7632   7635     1  0.0000000  0.6694400  3
   7622   7620   7621   7624     1  0.0000000  0.6508444  3
   7622   7620   7621   7633     1  0.0000000  1.0460000  1
   7622   7620   7621   7633     1  0.0000000  0.0000000  3
   7622   7620   7621   7623     1  0.0000000  0.6508444  3
   7622   7620   7634   7640     1  0.0000000  1.0460000  1
   7622   7620   7634   7640     1  0.0000000  0.0000000  3
   7622   7620   7634   7638     1  0.0000000  0.6508444  3
   7622   7620   7634   7639     1  0.0000000  0.6508444  3
   7622   7620   7642   7626     1  0.0000000  1.6038667  3
   7623   7621   7620   7634     1  0.0000000  0.6508444  3
   7623   7621   7620   7642     1  0.0000000  1.0460000  1
   7623   7621   7620   7642     1  0.0000000  0.0000000  3
   7623   7621   7624   7625     1  0.0000000  0.6508444  3
   7623   7621   7624   7632     1  0.0000000  1.0460000  1
   7623   7621   7624   7632     1  0.0000000  0.0000000  3
   7623   7621   7624   7628     1  0.0000000  0.6508444  3
   7623   7621   7633   7636     1  0.0000000  0.6973333  3
   7624   7621   7633   7636     1  0.0000000  1.0460000  1
   7624   7621   7633   7636     1  0.0000000  0.6694400  3
   7624   7625   7626   7629     1  0.0000000  0.6508444  3
   7624   7625   7631   7637     1  0.0000000  1.0460000  1
   7624   7625   7631   7637     1  0.0000000  0.6694400  3
   7625   7624   7632   7635     1  0.0000000  1.0460000  1
   7625   7624   7632   7635     1  0.0000000  0.6694400  3
   7626   7625   7624   7628     1  0.0000000  0.6508444  3
   7626   7625   7631   7637     1  0.0000000  1.0460000  1
   7626   7625   7631   7637     1  0.0000000  0.6694400  3
   7627   7625   7624   7632     1  0.0000000  1.0460000  1
   7627   7625   7624   7632     1  0.0000000  0.0000000  3
   7627   7625   7624   7628     1  0.0000000  0.6508444  3
   7627   7625   7626   7630     1  0.0000000  1.0460000  1
   7627   7625   7626   7630     1  0.0000000  0.0000000  3
   7627   7625   7626   7642     1  0.0000000  1.0460000  1
   7627   7625   7626   7642     1  0.0000000  0.0000000  3
   7627   7625   7626   7629     1  0.0000000  0.6508444  3
   7627   7625   7631   7637     1  0.0000000  0.6973333  3
   7628   7624   7621   7633     1  0.0000000  1.0460000  1
   7628   7624   7621   7633     1  0.0000000  0.0000000  3
   7628   7624   7625   7631     1  0.0000000  1.0460000  1
   7628   7624   7625   7631     1  0.0000000  0.0000000  3
   7628   7624   7632   7635     1  0.0000000  0.6973333  3
   7629   7626   7625   7631     1  0.0000000  0.6508444  3
   7638   7634   7620   7642     1  0.0000000  1.0460000  1
   7638   7634   7620   7642     1  0.0000000  0.0000000  3
   7638   7634   7640   7641     1  0.0000000  0.6973333  3
   7639   7634   7620   7642     1  0.0000000  1.0460000  1
   7639   7634   7620   7642     1  0.0000000  0.0000000  3
   7639   7634   7640   7641     1  0.0000000  0.6973333  3
   7643   7644   7647   7651     1  0.0000000  0.6508444  3
   7643   7644   7656   7659     1  0.0000000  1.0460000  1
   7643   7644   7656   7659     1  0.0000000  0.6694400  3
   7643   7657   7663   7664     1  0.0000000  1.0460000  1
   7643   7657   7663   7664     1  0.0000000  0.6694400  3
   7643   7665   7649   7652     1  0.0000000  1.6038667  3
   7644   7647   7648   7650     1  0.0000000  0.6508444  3
   7644   7647   7655   7658     1  0.0000000  1.0460000  1
   7644   7647   7655   7658     1  0.0000000  0.6694400  3
   7644   7643   7657   7661     1  0.0000000  0.6508444  3
   7644   7643   7657   7662     1  0.0000000  0.6508444  3
   7645   7643   7644   7647     1  0.0000000  0.6508444  3
   7645   7643   7644   7656     1  0.0000000  1.0460000  1
   7645   7643   7644   7656     1  0.0000000  0.0000000  3
   7645   7643   7644   7646     1  0.0000000  0.6508444  3
   7645   7643   7657   7663     1  0.0000000  1.0460000  1
   7645   7643   7657   7663     1  0.0000000  0.0000000  3
   7645   7643   7657   7661     1  0.0000000  0.6508444  3
   7645   7643   7657   7662     1  0.0000000  0.6508444  3
   7645   7643   7665   7649     1  0.0000000  1.6038667  3
   7646   7644   7647   7648     1  0.0000000  0.6508444  3
   7646   7644   7647   7655     1  0.0000000  1.0460000  1
   7646   7644   7647   7655     1  0.0000000  0.0000000  3
   7646   7644   7647   7651     1  0.0000000  0.6508444  3
   7646   7644   7656   7659     1  0.0000000  0.6973333  3
   7646   7644   7643   7657     1  0.0000000  0.6508444  3
   7646   7644   7643   7665     1  0.0000000  1.0460000  1
   7646   7644   7643   7665     1  0.0000000  0.0000000  3
   7647   7648   7649   7652     1  0.0000000  0.6508444  3
   7647   7648   7654   7660     1  0.0000000  1.0460000  1
   7647   7648   7654   7660     1  0.0000000  0.6694400  3
   7647   7644   7656   7659     1  0.0000000  1.0460000  1
   7647   7644   7656   7659     1  0.0000000  0.6694400  3
   7648   7647   7655   7658     1  0.0000000  1.0460000  1
   7648   7647   7655   7658     1  0.0000000  0.6694400  3
   7649   7648   7654   7660     1  0.0000000  1.0460000  1
   7649   7648   7654   7660     1  0.0000000  0.6694400  3
   7649   7648   7647   7651     1  0.0000000  0.6508444  3
   7650   7648   7649   7653     1  0.0000000  1.0460000  1
   7650   7648   7649   7653     1  0.0000000  0.0000000  3
   7650   7648   7649   7665     1  0.0000000  1.0460000  1
   7650   7648   7649   7665     1  0.0000000  0.0000000  3
   7650   7648   7649   7652     1  0.0000000  0.6508444  3
   7650   7648   7654   7660     1  0.0000000  0.6973333  3
   7650   7648   7647   7655     1  0.0000000  1.0460000  1
   7650   7648   7647   7655     1  0.0000000  0.0000000  3
   7650   7648   7647   7651     1  0.0000000  0.6508444  3
   7651   7647   7648   7654     1  0.0000000  1.0460000  1
   7651   7647   7648   7654     1  0.0000000  0.0000000  3
   7651   7647   7655   7658     1  0.0000000  0.6973333  3
   7651   7647   7644   7656     1  0.0000000  1.0460000  1
   7651   7647   7644   7656     1  0.0000000  0.0000000  3
   7652   7649   7648   7654     1  0.0000000  0.6508444  3
   7661   7657   7663   7664     1  0.0000000  0.6973333  3
   7661   7657   7643   7665     1  0.0000000  1.0460000  1
   7661   7657   7643   7665     1  0.0000000  0.0000000  3
   7662   7657   7663   7664     1  0.0000000  0.6973333  3
   7662   7657   7643   7665     1  0.0000000  1.0460000  1
   7662   7657   7643   7665     1  0.0000000  0.0000000  3
   7666   7667   7670   7674     1  0.0000000  0.6508444  3
   7666   7667   7679   7682     1  0.0000000  1.0460000  1
   7666   7667   7679   7682     1  0.0000000  0.6694400  3
   7666   7680   7686   7687     1  0.0000000  1.0460000  1
   7666   7680   7686   7687     1  0.0000000  0.6694400  3
   7666   7688   7672   7675     1  0.0000000  1.6038667  3
   7667   7666   7680   7684     1  0.0000000  0.6508444  3
   7667   7666   7680   7685     1  0.0000000  0.6508444  3
   7667   7670   7671   7673     1  0.0000000  0.6508444  3
   7667   7670   7678   7681     1  0.0000000  1.0460000  1
   7667   7670   7678   7681     1  0.0000000  0.6694400  3
   7668   7666   7667   7670     1  0.0000000  0.6508444  3
   7668   7666   7667   7679     1  0.0000000  1.0460000  1
   7668   7666   7667   7679     1  0.0000000  0.0000000  3
   7668   7666   7667   7669     1  0.0000000  0.6508444  3
   7668   7666   7680   7686     1  0.0000000  1.0460000  1
   7668   7666   7680   7686     1  0.0000000  0.0000000  3
   7668   7666   7680   7684     1  0.0000000  0.6508444  3
   7668   7666   7680   7685     1  0.0000000  0.6508444  3
   7668   7666   7688   7672     1  0.0000000  1.6038667  3
   7669   7667   7666   7680     1  0.0000000  0.6508444  3
   7669   7667   7666   7688     1  0.0000000  1.0460000  1
   7669   7667   7666   7688     1  0.0000000  0.0000000  3
   7669   7667   7670   7671     1  0.0000000  0.6508444  3
   7669   7667   7670   7678     1  0.0000000  1.0460000  1
   7669   7667   7670   7678     1  0.0000000  0.0000000  3
   7669   7667   7670   7674     1  0.0000000  0.6508444  3
   7669   7667   7679   7682     1  0.0000000  0.6973333  3
   7670   7667   7679   7682     1  0.0000000  1.0460000  1
   7670   7667   7679   7682     1  0.0000000  0.6694400  3
   7670   7671   7672   7675     1  0.0000000  0.6508444  3
   7670   7671   7677   7683     1  0.0000000  1.0460000  1
   7670   7671   7677   7683     1  0.0000000  0.6694400  3
   7671   7670   7678   7681     1  0.0000000  1.0460000  1
   7671   7670   7678   7681     1  0.0000000  0.6694400  3
   7672   7671   7670   7674     1  0.0000000  0.6508444  3
   7672   7671   7677   7683     1  0.0000000  1.0460000  1
   7672   7671   7677   7683     1  0.0000000  0.6694400  3
   7673   7671   7670   7678     1  0.0000000  1.0460000  1
   7673   7671   7670   7678     1  0.0000000  0.0000000  3
   7673   7671   7670   7674     1  0.0000000  0.6508444  3
   7673   7671   7672   7676     1  0.0000000  1.0460000  1
   7673   7671   7672   7676     1  0.0000000  0.0000000  3
   7673   7671   7672   7688     1  0.0000000  1.0460000  1
   7673   7671   7672   7688     1  0.0000000  0.0000000  3
   7673   7671   7672   7675     1  0.0000000  0.6508444  3
   7673   7671   7677   7683     1  0.0000000  0.6973333  3
   7674   7670   7667   7679     1  0.0000000  1.0460000  1
   7674   7670   7667   7679     1  0.0000000  0.0000000  3
   7674   7670   7671   7677     1  0.0000000  1.0460000  1
   7674   7670   7671   7677     1  0.0000000  0.0000000  3
   7674   7670   7678   7681     1  0.0000000  0.6973333  3
   7675   7672   7671   7677     1  0.0000000  0.6508444  3
   7684   7680   7666   7688     1  0.0000000  1.0460000  1
   7684   7680   7666   7688     1  0.0000000  0.0000000  3
   7684   7680   7686   7687     1  0.0000000  0.6973333  3
   7685   7680   7666   7688     1  0.0000000  1.0460000  1
   7685   7680   7666   7688     1  0.0000000  0.0000000  3
   7685   7680   7686   7687     1  0.0000000  0.6973333  3
   7689   7690   7693   7697     1  0.0000000  0.6508444  3
   7689   7690   7702   7705     1  0.0000000  1.0460000  1
   7689   7690   7702   7705     1  0.0000000  0.6694400  3
   7689   7703   7709   7710     1  0.0000000  1.0460000  1
   7689   7703   7709   7710     1  0.0000000  0.6694400  3
   7689   7711   7695   7698     1  0.0000000  1.6038667  3
   7690   7693   7694   7696     1  0.0000000  0.6508444  3
   7690   7693   7701   7704     1  0.0000000  1.0460000  1
   7690   7693   7701   7704     1  0.0000000  0.6694400  3
   7690   7689   7703   7707     1  0.0000000  0.6508444  3
   7690   7689   7703   7708     1  0.0000000  0.6508444  3
   7691   7689   7690   7693     1  0.0000000  0.6508444  3
   7691   7689   7690   7702     1  0.0000000  1.0460000  1
   7691   7689   7690   7702     1  0.0000000  0.0000000  3
   7691   7689   7690   7692     1  0.0000000  0.6508444  3
   7691   7689   7703   7709     1  0.0000000  1.0460000  1
   7691   7689   7703   7709     1  0.0000000  0.0000000  3
   7691   7689   7703   7707     1  0.0000000  0.6508444  3
   7691   7689   7703   7708     1  0.0000000  0.6508444  3
   7691   7689   7711   7695     1  0.0000000  1.6038667  3
   7692   7690   7693   7694     1  0.0000000  0.6508444  3
   7692   7690   7693   7701     1  0.0000000  1.0460000  1
   7692   7690   7693   7701     1  0.0000000  0.0000000  3
   7692   7690   7693   7697     1  0.0000000  0.6508444  3
   7692   7690   7702   7705     1  0.0000000  0.6973333  3
   7692   7690   7689   7703     1  0.0000000  0.6508444  3
   7692   7690   7689   7711     1  0.0000000  1.0460000  1
   7692   7690   7689   7711     1  0.0000000  0.0000000  3
   7693   7694   7695   7698     1  0.0000000  0.6508444  3
   7693   7694   7700   7706     1  0.0000000  1.0460000  1
   7693   7694   7700   7706     1  0.0000000  0.6694400  3
   7693   7690   7702   7705     1  0.0000000  1.0460000  1
   7693   7690   7702   7705     1  0.0000000  0.6694400  3
   7694   7693   7701   7704     1  0.0000000  1.0460000  1
   7694   7693   7701   7704     1  0.0000000  0.6694400  3
   7695   7694   7700   7706     1  0.0000000  1.0460000  1
   7695   7694   7700   7706     1  0.0000000  0.6694400  3
   7695   7694   7693   7697     1  0.0000000  0.6508444  3
   7696   7694   7695   7699     1  0.0000000  1.0460000  1
   7696   7694   7695   7699     1  0.0000000  0.0000000  3
   7696   7694   7695   7711     1  0.0000000  1.0460000  1
   7696   7694   7695   7711     1  0.0000000  0.0000000  3
   7696   7694   7695   7698     1  0.0000000  0.6508444  3
   7696   7694   7700   7706     1  0.0000000  0.6973333  3
   7696   7694   7693   7701     1  0.0000000  1.0460000  1
   7696   7694   7693   7701     1  0.0000000  0.0000000  3
   7696   7694   7693   7697     1  0.0000000  0.6508444  3
   7697   7693   7694   7700     1  0.0000000  1.0460000  1
   7697   7693   7694   7700     1  0.0000000  0.0000000  3
   7697   7693   7701   7704     1  0.0000000  0.6973333  3
   7697   7693   7690   7702     1  0.0000000  1.0460000  1
   7697   7693   7690   7702     1  0.0000000  0.0000000  3
   7698   7695   7694   7700     1  0.0000000  0.6508444  3
   7707   7703   7709   7710     1  0.0000000  0.6973333  3
   7707   7703   7689   7711     1  0.0000000  1.0460000  1
   7707   7703   7689   7711     1  0.0000000  0.0000000  3
   7708   7703   7709   7710     1  0.0000000  0.6973333  3
   7708   7703   7689   7711     1  0.0000000  1.0460000  1
   7708   7703   7689   7711     1  0.0000000  0.0000000  3
   7712   7713   7716   7720     1  0.0000000  0.6508444  3
   7712   7713   7725   7728     1  0.0000000  1.0460000  1
   7712   7713   7725   7728     1  0.0000000  0.6694400  3
   7712   7726   7732   7733     1  0.0000000  1.0460000  1
   7712   7726   7732   7733     1  0.0000000  0.6694400  3
   7712   7734   7718   7721     1  0.0000000  1.6038667  3
   7713   7712   7726   7730     1  0.0000000  0.6508444  3
   7713   7712   7726   7731     1  0.0000000  0.6508444  3
   7713   7716   7717   7719     1  0.0000000  0.6508444  3
   7713   7716   7724   7727     1  0.0000000  1.0460000  1
   7713   7716   7724   7727     1  0.0000000  0.6694400  3
   7714   7712   7713   7716     1  0.0000000  0.6508444  3
   7714   7712   7713   7725     1  0.0000000  1.0460000  1
   7714   7712   7713   7725     1  0.0000000  0.0000000  3
   7714   7712   7713   7715     1  0.0000000  0.6508444  3
   7714   7712   7726   7732     1  0.0000000  1.0460000  1
   7714   7712   7726   7732     1  0.0000000  0.0000000  3
   7714   7712   7726   7730     1  0.0000000  0.6508444  3
   7714   7712   7726   7731     1  0.0000000  0.6508444  3
   7714   7712   7734   7718     1  0.0000000  1.6038667  3
   7715   7713   7712   7726     1  0.0000000  0.6508444  3
   7715   7713   7712   7734     1  0.0000000  1.0460000  1
   7715   7713   7712   7734     1  0.0000000  0.0000000  3
   7715   7713   7716   7717     1  0.0000000  0.6508444  3
   7715   7713   7716   7724     1  0.0000000  1.0460000  1
   7715   7713   7716   7724     1  0.0000000  0.0000000  3
   7715   7713   7716   7720     1  0.0000000  0.6508444  3
   7715   7713   7725   7728     1  0.0000000  0.6973333  3
   7716   7713   7725   7728     1  0.0000000  1.0460000  1
   7716   7713   7725   7728     1  0.0000000  0.6694400  3
   7716   7717   7718   7721     1  0.0000000  0.6508444  3
   7716   7717   7723   7729     1  0.0000000  1.0460000  1
   7716   7717   7723   7729     1  0.0000000  0.6694400  3
   7717   7716   7724   7727     1  0.0000000  1.0460000  1
   7717   7716   7724   7727     1  0.0000000  0.6694400  3
   7718   7717   7716   7720     1  0.0000000  0.6508444  3
   7718   7717   7723   7729     1  0.0000000  1.0460000  1
   7718   7717   7723   7729     1  0.0000000  0.6694400  3
   7719   7717   7716   7724     1  0.0000000  1.0460000  1
   7719   7717   7716   7724     1  0.0000000  0.0000000  3
   7719   7717   7716   7720     1  0.0000000  0.6508444  3
   7719   7717   7718   7722     1  0.0000000  1.0460000  1
   7719   7717   7718   7722     1  0.0000000  0.0000000  3
   7719   7717   7718   7734     1  0.0000000  1.0460000  1
   7719   7717   7718   7734     1  0.0000000  0.0000000  3
   7719   7717   7718   7721     1  0.0000000  0.6508444  3
   7719   7717   7723   7729     1  0.0000000  0.6973333  3
   7720   7716   7713   7725     1  0.0000000  1.0460000  1
   7720   7716   7713   7725     1  0.0000000  0.0000000  3
   7720   7716   7717   7723     1  0.0000000  1.0460000  1
   7720   7716   7717   7723     1  0.0000000  0.0000000  3
   7720   7716   7724   7727     1  0.0000000  0.6973333  3
   7721   7718   7717   7723     1  0.0000000  0.6508444  3
   7730   7726   7712   7734     1  0.0000000  1.0460000  1
   7730   7726   7712   7734     1  0.0000000  0.0000000  3
   7730   7726   7732   7733     1  0.0000000  0.6973333  3
   7731   7726   7712   7734     1  0.0000000  1.0460000  1
   7731   7726   7712   7734     1  0.0000000  0.0000000  3
   7731   7726   7732   7733     1  0.0000000  0.6973333  3
   7735   7736   7739   7743     1  0.0000000  0.6508444  3
   7735   7736   7748   7751     1  0.0000000  1.0460000  1
   7735   7736   7748   7751     1  0.0000000  0.6694400  3
   7735   7749   7755   7756     1  0.0000000  1.0460000  1
   7735   7749   7755   7756     1  0.0000000  0.6694400  3
   7735   7757   7741   7744     1  0.0000000  1.6038667  3
   7736   7739   7740   7742     1  0.0000000  0.6508444  3
   7736   7739   7747   7750     1  0.0000000  1.0460000  1
   7736   7739   7747   7750     1  0.0000000  0.6694400  3
   7736   7735   7749   7753     1  0.0000000  0.6508444  3
   7736   7735   7749   7754     1  0.0000000  0.6508444  3
   7737   7735   7736   7739     1  0.0000000  0.6508444  3
   7737   7735   7736   7748     1  0.0000000  1.0460000  1
   7737   7735   7736   7748     1  0.0000000  0.0000000  3
   7737   7735   7736   7738     1  0.0000000  0.6508444  3
   7737   7735   7749   7755     1  0.0000000  1.0460000  1
   7737   7735   7749   7755     1  0.0000000  0.0000000  3
   7737   7735   7749   7753     1  0.0000000  0.6508444  3
   7737   7735   7749   7754     1  0.0000000  0.6508444  3
   7737   7735   7757   7741     1  0.0000000  1.6038667  3
   7738   7736   7739   7740     1  0.0000000  0.6508444  3
   7738   7736   7739   7747     1  0.0000000  1.0460000  1
   7738   7736   7739   7747     1  0.0000000  0.0000000  3
   7738   7736   7739   7743     1  0.0000000  0.6508444  3
   7738   7736   7748   7751     1  0.0000000  0.6973333  3
   7738   7736   7735   7749     1  0.0000000  0.6508444  3
   7738   7736   7735   7757     1  0.0000000  1.0460000  1
   7738   7736   7735   7757     1  0.0000000  0.0000000  3
   7739   7740   7741   7744     1  0.0000000  0.6508444  3
   7739   7740   7746   7752     1  0.0000000  1.0460000  1
   7739   7740   7746   7752     1  0.0000000  0.6694400  3
   7739   7736   7748   7751     1  0.0000000  1.0460000  1
   7739   7736   7748   7751     1  0.0000000  0.6694400  3
   7740   7739   7747   7750     1  0.0000000  1.0460000  1
   7740   7739   7747   7750     1  0.0000000  0.6694400  3
   7741   7740   7746   7752     1  0.0000000  1.0460000  1
   7741   7740   7746   7752     1  0.0000000  0.6694400  3
   7741   7740   7739   7743     1  0.0000000  0.6508444  3
   7742   7740   7741   7745     1  0.0000000  1.0460000  1
   7742   7740   7741   7745     1  0.0000000  0.0000000  3
   7742   7740   7741   7757     1  0.0000000  1.0460000  1
   7742   7740   7741   7757     1  0.0000000  0.0000000  3
   7742   7740   7741   7744     1  0.0000000  0.6508444  3
   7742   7740   7746   7752     1  0.0000000  0.6973333  3
   7742   7740   7739   7747     1  0.0000000  1.0460000  1
   7742   7740   7739   7747     1  0.0000000  0.0000000  3
   7742   7740   7739   7743     1  0.0000000  0.6508444  3
   7743   7739   7740   7746     1  0.0000000  1.0460000  1
   7743   7739   7740   7746     1  0.0000000  0.0000000  3
   7743   7739   7747   7750     1  0.0000000  0.6973333  3
   7743   7739   7736   7748     1  0.0000000  1.0460000  1
   7743   7739   7736   7748     1  0.0000000  0.0000000  3
   7744   7741   7740   7746     1  0.0000000  0.6508444  3
   7753   7749   7755   7756     1  0.0000000  0.6973333  3
   7753   7749   7735   7757     1  0.0000000  1.0460000  1
   7753   7749   7735   7757     1  0.0000000  0.0000000  3
   7754   7749   7755   7756     1  0.0000000  0.6973333  3
   7754   7749   7735   7757     1  0.0000000  1.0460000  1
   7754   7749   7735   7757     1  0.0000000  0.0000000  3
   7758   7759   7762   7766     1  0.0000000  0.6508444  3
   7758   7759   7771   7774     1  0.0000000  1.0460000  1
   7758   7759   7771   7774     1  0.0000000  0.6694400  3
   7758   7772   7778   7779     1  0.0000000  1.0460000  1
   7758   7772   7778   7779     1  0.0000000  0.6694400  3
   7758   7780   7764   7767     1  0.0000000  1.6038667  3
   7759   7758   7772   7776     1  0.0000000  0.6508444  3
   7759   7758   7772   7777     1  0.0000000  0.6508444  3
   7759   7762   7763   7765     1  0.0000000  0.6508444  3
   7759   7762   7770   7773     1  0.0000000  1.0460000  1
   7759   7762   7770   7773     1  0.0000000  0.6694400  3
   7760   7758   7759   7762     1  0.0000000  0.6508444  3
   7760   7758   7759   7771     1  0.0000000  1.0460000  1
   7760   7758   7759   7771     1  0.0000000  0.0000000  3
   7760   7758   7759   7761     1  0.0000000  0.6508444  3
   7760   7758   7772   7778     1  0.0000000  1.0460000  1
   7760   7758   7772   7778     1  0.0000000  0.0000000  3
   7760   7758   7772   7776     1  0.0000000  0.6508444  3
   7760   7758   7772   7777     1  0.0000000  0.6508444  3
   7760   7758   7780   7764     1  0.0000000  1.6038667  3
   7761   7759   7758   7772     1  0.0000000  0.6508444  3
   7761   7759   7758   7780     1  0.0000000  1.0460000  1
   7761   7759   7758   7780     1  0.0000000  0.0000000  3
   7761   7759   7762   7763     1  0.0000000  0.6508444  3
   7761   7759   7762   7770     1  0.0000000  1.0460000  1
   7761   7759   7762   7770     1  0.0000000  0.0000000  3
   7761   7759   7762   7766     1  0.0000000  0.6508444  3
   7761   7759   7771   7774     1  0.0000000  0.6973333  3
   7762   7759   7771   7774     1  0.0000000  1.0460000  1
   7762   7759   7771   7774     1  0.0000000  0.6694400  3
   7762   7763   7764   7767     1  0.0000000  0.6508444  3
   7762   7763   7769   7775     1  0.0000000  1.0460000  1
   7762   7763   7769   7775     1  0.0000000  0.6694400  3
   7763   7762   7770   7773     1  0.0000000  1.0460000  1
   7763   7762   7770   7773     1  0.0000000  0.6694400  3
   7764   7763   7762   7766     1  0.0000000  0.6508444  3
   7764   7763   7769   7775     1  0.0000000  1.0460000  1
   7764   7763   7769   7775     1  0.0000000  0.6694400  3
   7765   7763   7762   7770     1  0.0000000  1.0460000  1
   7765   7763   7762   7770     1  0.0000000  0.0000000  3
   7765   7763   7762   7766     1  0.0000000  0.6508444  3
   7765   7763   7764   7768     1  0.0000000  1.0460000  1
   7765   7763   7764   7768     1  0.0000000  0.0000000  3
   7765   7763   7764   7780     1  0.0000000  1.0460000  1
   7765   7763   7764   7780     1  0.0000000  0.0000000  3
   7765   7763   7764   7767     1  0.0000000  0.6508444  3
   7765   7763   7769   7775     1  0.0000000  0.6973333  3
   7766   7762   7759   7771     1  0.0000000  1.0460000  1
   7766   7762   7759   7771     1  0.0000000  0.0000000  3
   7766   7762   7763   7769     1  0.0000000  1.0460000  1
   7766   7762   7763   7769     1  0.0000000  0.0000000  3
   7766   7762   7770   7773     1  0.0000000  0.6973333  3
   7767   7764   7763   7769     1  0.0000000  0.6508444  3
   7776   7772   7758   7780     1  0.0000000  1.0460000  1
   7776   7772   7758   7780     1  0.0000000  0.0000000  3
   7776   7772   7778   7779     1  0.0000000  0.6973333  3
   7777   7772   7758   7780     1  0.0000000  1.0460000  1
   7777   7772   7758   7780     1  0.0000000  0.0000000  3
   7777   7772   7778   7779     1  0.0000000  0.6973333  3
   7781   7782   7785   7789     1  0.0000000  0.6508444  3
   7781   7782   7794   7797     1  0.0000000  1.0460000  1
   7781   7782   7794   7797     1  0.0000000  0.6694400  3
   7781   7795   7801   7802     1  0.0000000  1.0460000  1
   7781   7795   7801   7802     1  0.0000000  0.6694400  3
   7781   7803   7787   7790     1  0.0000000  1.6038667  3
   7782   7785   7786   7788     1  0.0000000  0.6508444  3
   7782   7785   7793   7796     1  0.0000000  1.0460000  1
   7782   7785   7793   7796     1  0.0000000  0.6694400  3
   7782   7781   7795   7799     1  0.0000000  0.6508444  3
   7782   7781   7795   7800     1  0.0000000  0.6508444  3
   7783   7781   7782   7785     1  0.0000000  0.6508444  3
   7783   7781   7782   7794     1  0.0000000  1.0460000  1
   7783   7781   7782   7794     1  0.0000000  0.0000000  3
   7783   7781   7782   7784     1  0.0000000  0.6508444  3
   7783   7781   7795   7801     1  0.0000000  1.0460000  1
   7783   7781   7795   7801     1  0.0000000  0.0000000  3
   7783   7781   7795   7799     1  0.0000000  0.6508444  3
   7783   7781   7795   7800     1  0.0000000  0.6508444  3
   7783   7781   7803   7787     1  0.0000000  1.6038667  3
   7784   7782   7785   7786     1  0.0000000  0.6508444  3
   7784   7782   7785   7793     1  0.0000000  1.0460000  1
   7784   7782   7785   7793     1  0.0000000  0.0000000  3
   7784   7782   7785   7789     1  0.0000000  0.6508444  3
   7784   7782   7794   7797     1  0.0000000  0.6973333  3
   7784   7782   7781   7795     1  0.0000000  0.6508444  3
   7784   7782   7781   7803     1  0.0000000  1.0460000  1
   7784   7782   7781   7803     1  0.0000000  0.0000000  3
   7785   7786   7787   7790     1  0.0000000  0.6508444  3
   7785   7786   7792   7798     1  0.0000000  1.0460000  1
   7785   7786   7792   7798     1  0.0000000  0.6694400  3
   7785   7782   7794   7797     1  0.0000000  1.0460000  1
   7785   7782   7794   7797     1  0.0000000  0.6694400  3
   7786   7785   7793   7796     1  0.0000000  1.0460000  1
   7786   7785   7793   7796     1  0.0000000  0.6694400  3
   7787   7786   7792   7798     1  0.0000000  1.0460000  1
   7787   7786   7792   7798     1  0.0000000  0.6694400  3
   7787   7786   7785   7789     1  0.0000000  0.6508444  3
   7788   7786   7787   7791     1  0.0000000  1.0460000  1
   7788   7786   7787   7791     1  0.0000000  0.0000000  3
   7788   7786   7787   7803     1  0.0000000  1.0460000  1
   7788   7786   7787   7803     1  0.0000000  0.0000000  3
   7788   7786   7787   7790     1  0.0000000  0.6508444  3
   7788   7786   7792   7798     1  0.0000000  0.6973333  3
   7788   7786   7785   7793     1  0.0000000  1.0460000  1
   7788   7786   7785   7793     1  0.0000000  0.0000000  3
   7788   7786   7785   7789     1  0.0000000  0.6508444  3
   7789   7785   7786   7792     1  0.0000000  1.0460000  1
   7789   7785   7786   7792     1  0.0000000  0.0000000  3
   7789   7785   7793   7796     1  0.0000000  0.6973333  3
   7789   7785   7782   7794     1  0.0000000  1.0460000  1
   7789   7785   7782   7794     1  0.0000000  0.0000000  3
   7790   7787   7786   7792     1  0.0000000  0.6508444  3
   7799   7795   7801   7802     1  0.0000000  0.6973333  3
   7799   7795   7781   7803     1  0.0000000  1.0460000  1
   7799   7795   7781   7803     1  0.0000000  0.0000000  3
   7800   7795   7801   7802     1  0.0000000  0.6973333  3
   7800   7795   7781   7803     1  0.0000000  1.0460000  1
   7800   7795   7781   7803     1  0.0000000  0.0000000  3
   7804   7805   7808   7812     1  0.0000000  0.6508444  3
   7804   7805   7817   7820     1  0.0000000  1.0460000  1
   7804   7805   7817   7820     1  0.0000000  0.6694400  3
   7804   7818   7824   7825     1  0.0000000  1.0460000  1
   7804   7818   7824   7825     1  0.0000000  0.6694400  3
   7804   7826   7810   7813     1  0.0000000  1.6038667  3
   7805   7804   7818   7822     1  0.0000000  0.6508444  3
   7805   7804   7818   7823     1  0.0000000  0.6508444  3
   7805   7808   7809   7811     1  0.0000000  0.6508444  3
   7805   7808   7816   7819     1  0.0000000  1.0460000  1
   7805   7808   7816   7819     1  0.0000000  0.6694400  3
   7806   7804   7805   7808     1  0.0000000  0.6508444  3
   7806   7804   7805   7817     1  0.0000000  1.0460000  1
   7806   7804   7805   7817     1  0.0000000  0.0000000  3
   7806   7804   7805   7807     1  0.0000000  0.6508444  3
   7806   7804   7818   7824     1  0.0000000  1.0460000  1
   7806   7804   7818   7824     1  0.0000000  0.0000000  3
   7806   7804   7818   7822     1  0.0000000  0.6508444  3
   7806   7804   7818   7823     1  0.0000000  0.6508444  3
   7806   7804   7826   7810     1  0.0000000  1.6038667  3
   7807   7805   7804   7818     1  0.0000000  0.6508444  3
   7807   7805   7804   7826     1  0.0000000  1.0460000  1
   7807   7805   7804   7826     1  0.0000000  0.0000000  3
   7807   7805   7808   7809     1  0.0000000  0.6508444  3
   7807   7805   7808   7816     1  0.0000000  1.0460000  1
   7807   7805   7808   7816     1  0.0000000  0.0000000  3
   7807   7805   7808   7812     1  0.0000000  0.6508444  3
   7807   7805   7817   7820     1  0.0000000  0.6973333  3
   7808   7805   7817   7820     1  0.0000000  1.0460000  1
   7808   7805   7817   7820     1  0.0000000  0.6694400  3
   7808   7809   7810   7813     1  0.0000000  0.6508444  3
   7808   7809   7815   7821     1  0.0000000  1.0460000  1
   7808   7809   7815   7821     1  0.0000000  0.6694400  3
   7809   7808   7816   7819     1  0.0000000  1.0460000  1
   7809   7808   7816   7819     1  0.0000000  0.6694400  3
   7810   7809   7808   7812     1  0.0000000  0.6508444  3
   7810   7809   7815   7821     1  0.0000000  1.0460000  1
   7810   7809   7815   7821     1  0.0000000  0.6694400  3
   7811   7809   7808   7816     1  0.0000000  1.0460000  1
   7811   7809   7808   7816     1  0.0000000  0.0000000  3
   7811   7809   7808   7812     1  0.0000000  0.6508444  3
   7811   7809   7810   7814     1  0.0000000  1.0460000  1
   7811   7809   7810   7814     1  0.0000000  0.0000000  3
   7811   7809   7810   7826     1  0.0000000  1.0460000  1
   7811   7809   7810   7826     1  0.0000000  0.0000000  3
   7811   7809   7810   7813     1  0.0000000  0.6508444  3
   7811   7809   7815   7821     1  0.0000000  0.6973333  3
   7812   7808   7805   7817     1  0.0000000  1.0460000  1
   7812   7808   7805   7817     1  0.0000000  0.0000000  3
   7812   7808   7809   7815     1  0.0000000  1.0460000  1
   7812   7808   7809   7815     1  0.0000000  0.0000000  3
   7812   7808   7816   7819     1  0.0000000  0.6973333  3
   7813   7810   7809   7815     1  0.0000000  0.6508444  3
   7822   7818   7804   7826     1  0.0000000  1.0460000  1
   7822   7818   7804   7826     1  0.0000000  0.0000000  3
   7822   7818   7824   7825     1  0.0000000  0.6973333  3
   7823   7818   7804   7826     1  0.0000000  1.0460000  1
   7823   7818   7804   7826     1  0.0000000  0.0000000  3
   7823   7818   7824   7825     1  0.0000000  0.6973333  3
   7827   7828   7831   7835     1  0.0000000  0.6508444  3
   7827   7828   7840   7843     1  0.0000000  1.0460000  1
   7827   7828   7840   7843     1  0.0000000  0.6694400  3
   7827   7841   7847   7848     1  0.0000000  1.0460000  1
   7827   7841   7847   7848     1  0.0000000  0.6694400  3
   7827   7849   7833   7836     1  0.0000000  1.6038667  3
   7828   7831   7832   7834     1  0.0000000  0.6508444  3
   7828   7831   7839   7842     1  0.0000000  1.0460000  1
   7828   7831   7839   7842     1  0.0000000  0.6694400  3
   7828   7827   7841   7845     1  0.0000000  0.6508444  3
   7828   7827   7841   7846     1  0.0000000  0.6508444  3
   7829   7827   7828   7831     1  0.0000000  0.6508444  3
   7829   7827   7828   7840     1  0.0000000  1.0460000  1
   7829   7827   7828   7840     1  0.0000000  0.0000000  3
   7829   7827   7828   7830     1  0.0000000  0.6508444  3
   7829   7827   7841   7847     1  0.0000000  1.0460000  1
   7829   7827   7841   7847     1  0.0000000  0.0000000  3
   7829   7827   7841   7845     1  0.0000000  0.6508444  3
   7829   7827   7841   7846     1  0.0000000  0.6508444  3
   7829   7827   7849   7833     1  0.0000000  1.6038667  3
   7830   7828   7831   7832     1  0.0000000  0.6508444  3
   7830   7828   7831   7839     1  0.0000000  1.0460000  1
   7830   7828   7831   7839     1  0.0000000  0.0000000  3
   7830   7828   7831   7835     1  0.0000000  0.6508444  3
   7830   7828   7840   7843     1  0.0000000  0.6973333  3
   7830   7828   7827   7841     1  0.0000000  0.6508444  3
   7830   7828   7827   7849     1  0.0000000  1.0460000  1
   7830   7828   7827   7849     1  0.0000000  0.0000000  3
   7831   7832   7833   7836     1  0.0000000  0.6508444  3
   7831   7832   7838   7844     1  0.0000000  1.0460000  1
   7831   7832   7838   7844     1  0.0000000  0.6694400  3
   7831   7828   7840   7843     1  0.0000000  1.0460000  1
   7831   7828   7840   7843     1  0.0000000  0.6694400  3
   7832   7831   7839   7842     1  0.0000000  1.0460000  1
   7832   7831   7839   7842     1  0.0000000  0.6694400  3
   7833   7832   7838   7844     1  0.0000000  1.0460000  1
   7833   7832   7838   7844     1  0.0000000  0.6694400  3
   7833   7832   7831   7835     1  0.0000000  0.6508444  3
   7834   7832   7833   7837     1  0.0000000  1.0460000  1
   7834   7832   7833   7837     1  0.0000000  0.0000000  3
   7834   7832   7833   7849     1  0.0000000  1.0460000  1
   7834   7832   7833   7849     1  0.0000000  0.0000000  3
   7834   7832   7833   7836     1  0.0000000  0.6508444  3
   7834   7832   7838   7844     1  0.0000000  0.6973333  3
   7834   7832   7831   7839     1  0.0000000  1.0460000  1
   7834   7832   7831   7839     1  0.0000000  0.0000000  3
   7834   7832   7831   7835     1  0.0000000  0.6508444  3
   7835   7831   7832   7838     1  0.0000000  1.0460000  1
   7835   7831   7832   7838     1  0.0000000  0.0000000  3
   7835   7831   7839   7842     1  0.0000000  0.6973333  3
   7835   7831   7828   7840     1  0.0000000  1.0460000  1
   7835   7831   7828   7840     1  0.0000000  0.0000000  3
   7836   7833   7832   7838     1  0.0000000  0.6508444  3
   7845   7841   7847   7848     1  0.0000000  0.6973333  3
   7845   7841   7827   7849     1  0.0000000  1.0460000  1
   7845   7841   7827   7849     1  0.0000000  0.0000000  3
   7846   7841   7847   7848     1  0.0000000  0.6973333  3
   7846   7841   7827   7849     1  0.0000000  1.0460000  1
   7846   7841   7827   7849     1  0.0000000  0.0000000  3
   7850   7851   7854   7858     1  0.0000000  0.6508444  3
   7850   7851   7863   7866     1  0.0000000  1.0460000  1
   7850   7851   7863   7866     1  0.0000000  0.6694400  3
   7850   7864   7870   7871     1  0.0000000  1.0460000  1
   7850   7864   7870   7871     1  0.0000000  0.6694400  3
   7850   7872   7856   7859     1  0.0000000  1.6038667  3
   7851   7850   7864   7868     1  0.0000000  0.6508444  3
   7851   7850   7864   7869     1  0.0000000  0.6508444  3
   7851   7854   7855   7857     1  0.0000000  0.6508444  3
   7851   7854   7862   7865     1  0.0000000  1.0460000  1
   7851   7854   7862   7865     1  0.0000000  0.6694400  3
   7852   7850   7851   7854     1  0.0000000  0.6508444  3
   7852   7850   7851   7863     1  0.0000000  1.0460000  1
   7852   7850   7851   7863     1  0.0000000  0.0000000  3
   7852   7850   7851   7853     1  0.0000000  0.6508444  3
   7852   7850   7864   7870     1  0.0000000  1.0460000  1
   7852   7850   7864   7870     1  0.0000000  0.0000000  3
   7852   7850   7864   7868     1  0.0000000  0.6508444  3
   7852   7850   7864   7869     1  0.0000000  0.6508444  3
   7852   7850   7872   7856     1  0.0000000  1.6038667  3
   7853   7851   7850   7864     1  0.0000000  0.6508444  3
   7853   7851   7850   7872     1  0.0000000  1.0460000  1
   7853   7851   7850   7872     1  0.0000000  0.0000000  3
   7853   7851   7854   7855     1  0.0000000  0.6508444  3
   7853   7851   7854   7862     1  0.0000000  1.0460000  1
   7853   7851   7854   7862     1  0.0000000  0.0000000  3
   7853   7851   7854   7858     1  0.0000000  0.6508444  3
   7853   7851   7863   7866     1  0.0000000  0.6973333  3
   7854   7851   7863   7866     1  0.0000000  1.0460000  1
   7854   7851   7863   7866     1  0.0000000  0.6694400  3
   7854   7855   7856   7859     1  0.0000000  0.6508444  3
   7854   7855   7861   7867     1  0.0000000  1.0460000  1
   7854   7855   7861   7867     1  0.0000000  0.6694400  3
   7855   7854   7862   7865     1  0.0000000  1.0460000  1
   7855   7854   7862   7865     1  0.0000000  0.6694400  3
   7856   7855   7854   7858     1  0.0000000  0.6508444  3
   7856   7855   7861   7867     1  0.0000000  1.0460000  1
   7856   7855   7861   7867     1  0.0000000  0.6694400  3
   7857   7855   7854   7862     1  0.0000000  1.0460000  1
   7857   7855   7854   7862     1  0.0000000  0.0000000  3
   7857   7855   7854   7858     1  0.0000000  0.6508444  3
   7857   7855   7856   7860     1  0.0000000  1.0460000  1
   7857   7855   7856   7860     1  0.0000000  0.0000000  3
   7857   7855   7856   7872     1  0.0000000  1.0460000  1
   7857   7855   7856   7872     1  0.0000000  0.0000000  3
   7857   7855   7856   7859     1  0.0000000  0.6508444  3
   7857   7855   7861   7867     1  0.0000000  0.6973333  3
   7858   7854   7851   7863     1  0.0000000  1.0460000  1
   7858   7854   7851   7863     1  0.0000000  0.0000000  3
   7858   7854   7855   7861     1  0.0000000  1.0460000  1
   7858   7854   7855   7861     1  0.0000000  0.0000000  3
   7858   7854   7862   7865     1  0.0000000  0.6973333  3
   7859   7856   7855   7861     1  0.0000000  0.6508444  3
   7868   7864   7850   7872     1  0.0000000  1.0460000  1
   7868   7864   7850   7872     1  0.0000000  0.0000000  3
   7868   7864   7870   7871     1  0.0000000  0.6973333  3
   7869   7864   7850   7872     1  0.0000000  1.0460000  1
   7869   7864   7850   7872     1  0.0000000  0.0000000  3
   7869   7864   7870   7871     1  0.0000000  0.6973333  3
   7873   7874   7877   7881     1  0.0000000  0.6508444  3
   7873   7874   7886   7889     1  0.0000000  1.0460000  1
   7873   7874   7886   7889     1  0.0000000  0.6694400  3
   7873   7887   7893   7894     1  0.0000000  1.0460000  1
   7873   7887   7893   7894     1  0.0000000  0.6694400  3
   7873   7895   7879   7882     1  0.0000000  1.6038667  3
   7874   7877   7878   7880     1  0.0000000  0.6508444  3
   7874   7877   7885   7888     1  0.0000000  1.0460000  1
   7874   7877   7885   7888     1  0.0000000  0.6694400  3
   7874   7873   7887   7891     1  0.0000000  0.6508444  3
   7874   7873   7887   7892     1  0.0000000  0.6508444  3
   7875   7873   7874   7877     1  0.0000000  0.6508444  3
   7875   7873   7874   7886     1  0.0000000  1.0460000  1
   7875   7873   7874   7886     1  0.0000000  0.0000000  3
   7875   7873   7874   7876     1  0.0000000  0.6508444  3
   7875   7873   7887   7893     1  0.0000000  1.0460000  1
   7875   7873   7887   7893     1  0.0000000  0.0000000  3
   7875   7873   7887   7891     1  0.0000000  0.6508444  3
   7875   7873   7887   7892     1  0.0000000  0.6508444  3
   7875   7873   7895   7879     1  0.0000000  1.6038667  3
   7876   7874   7877   7878     1  0.0000000  0.6508444  3
   7876   7874   7877   7885     1  0.0000000  1.0460000  1
   7876   7874   7877   7885     1  0.0000000  0.0000000  3
   7876   7874   7877   7881     1  0.0000000  0.6508444  3
   7876   7874   7886   7889     1  0.0000000  0.6973333  3
   7876   7874   7873   7887     1  0.0000000  0.6508444  3
   7876   7874   7873   7895     1  0.0000000  1.0460000  1
   7876   7874   7873   7895     1  0.0000000  0.0000000  3
   7877   7878   7879   7882     1  0.0000000  0.6508444  3
   7877   7878   7884   7890     1  0.0000000  1.0460000  1
   7877   7878   7884   7890     1  0.0000000  0.6694400  3
   7877   7874   7886   7889     1  0.0000000  1.0460000  1
   7877   7874   7886   7889     1  0.0000000  0.6694400  3
   7878   7877   7885   7888     1  0.0000000  1.0460000  1
   7878   7877   7885   7888     1  0.0000000  0.6694400  3
   7879   7878   7884   7890     1  0.0000000  1.0460000  1
   7879   7878   7884   7890     1  0.0000000  0.6694400  3
   7879   7878   7877   7881     1  0.0000000  0.6508444  3
   7880   7878   7879   7883     1  0.0000000  1.0460000  1
   7880   7878   7879   7883     1  0.0000000  0.0000000  3
   7880   7878   7879   7895     1  0.0000000  1.0460000  1
   7880   7878   7879   7895     1  0.0000000  0.0000000  3
   7880   7878   7879   7882     1  0.0000000  0.6508444  3
   7880   7878   7884   7890     1  0.0000000  0.6973333  3
   7880   7878   7877   7885     1  0.0000000  1.0460000  1
   7880   7878   7877   7885     1  0.0000000  0.0000000  3
   7880   7878   7877   7881     1  0.0000000  0.6508444  3
   7881   7877   7878   7884     1  0.0000000  1.0460000  1
   7881   7877   7878   7884     1  0.0000000  0.0000000  3
   7881   7877   7885   7888     1  0.0000000  0.6973333  3
   7881   7877   7874   7886     1  0.0000000  1.0460000  1
   7881   7877   7874   7886     1  0.0000000  0.0000000  3
   7882   7879   7878   7884     1  0.0000000  0.6508444  3
   7891   7887   7893   7894     1  0.0000000  0.6973333  3
   7891   7887   7873   7895     1  0.0000000  1.0460000  1
   7891   7887   7873   7895     1  0.0000000  0.0000000  3
   7892   7887   7893   7894     1  0.0000000  0.6973333  3
   7892   7887   7873   7895     1  0.0000000  1.0460000  1
   7892   7887   7873   7895     1  0.0000000  0.0000000  3
   7896   7897   7900   7904     1  0.0000000  0.6508444  3
   7896   7897   7909   7912     1  0.0000000  1.0460000  1
   7896   7897   7909   7912     1  0.0000000  0.6694400  3
   7896   7910   7916   7917     1  0.0000000  1.0460000  1
   7896   7910   7916   7917     1  0.0000000  0.6694400  3
   7896   7918   7902   7905     1  0.0000000  1.6038667  3
   7897   7896   7910   7914     1  0.0000000  0.6508444  3
   7897   7896   7910   7915     1  0.0000000  0.6508444  3
   7897   7900   7901   7903     1  0.0000000  0.6508444  3
   7897   7900   7908   7911     1  0.0000000  1.0460000  1
   7897   7900   7908   7911     1  0.0000000  0.6694400  3
   7898   7896   7897   7900     1  0.0000000  0.6508444  3
   7898   7896   7897   7909     1  0.0000000  1.0460000  1
   7898   7896   7897   7909     1  0.0000000  0.0000000  3
   7898   7896   7897   7899     1  0.0000000  0.6508444  3
   7898   7896   7910   7916     1  0.0000000  1.0460000  1
   7898   7896   7910   7916     1  0.0000000  0.0000000  3
   7898   7896   7910   7914     1  0.0000000  0.6508444  3
   7898   7896   7910   7915     1  0.0000000  0.6508444  3
   7898   7896   7918   7902     1  0.0000000  1.6038667  3
   7899   7897   7896   7910     1  0.0000000  0.6508444  3
   7899   7897   7896   7918     1  0.0000000  1.0460000  1
   7899   7897   7896   7918     1  0.0000000  0.0000000  3
   7899   7897   7900   7901     1  0.0000000  0.6508444  3
   7899   7897   7900   7908     1  0.0000000  1.0460000  1
   7899   7897   7900   7908     1  0.0000000  0.0000000  3
   7899   7897   7900   7904     1  0.0000000  0.6508444  3
   7899   7897   7909   7912     1  0.0000000  0.6973333  3
   7900   7897   7909   7912     1  0.0000000  1.0460000  1
   7900   7897   7909   7912     1  0.0000000  0.6694400  3
   7900   7901   7902   7905     1  0.0000000  0.6508444  3
   7900   7901   7907   7913     1  0.0000000  1.0460000  1
   7900   7901   7907   7913     1  0.0000000  0.6694400  3
   7901   7900   7908   7911     1  0.0000000  1.0460000  1
   7901   7900   7908   7911     1  0.0000000  0.6694400  3
   7902   7901   7900   7904     1  0.0000000  0.6508444  3
   7902   7901   7907   7913     1  0.0000000  1.0460000  1
   7902   7901   7907   7913     1  0.0000000  0.6694400  3
   7903   7901   7900   7908     1  0.0000000  1.0460000  1
   7903   7901   7900   7908     1  0.0000000  0.0000000  3
   7903   7901   7900   7904     1  0.0000000  0.6508444  3
   7903   7901   7902   7906     1  0.0000000  1.0460000  1
   7903   7901   7902   7906     1  0.0000000  0.0000000  3
   7903   7901   7902   7918     1  0.0000000  1.0460000  1
   7903   7901   7902   7918     1  0.0000000  0.0000000  3
   7903   7901   7902   7905     1  0.0000000  0.6508444  3
   7903   7901   7907   7913     1  0.0000000  0.6973333  3
   7904   7900   7897   7909     1  0.0000000  1.0460000  1
   7904   7900   7897   7909     1  0.0000000  0.0000000  3
   7904   7900   7901   7907     1  0.0000000  1.0460000  1
   7904   7900   7901   7907     1  0.0000000  0.0000000  3
   7904   7900   7908   7911     1  0.0000000  0.6973333  3
   7905   7902   7901   7907     1  0.0000000  0.6508444  3
   7914   7910   7896   7918     1  0.0000000  1.0460000  1
   7914   7910   7896   7918     1  0.0000000  0.0000000  3
   7914   7910   7916   7917     1  0.0000000  0.6973333  3
   7915   7910   7896   7918     1  0.0000000  1.0460000  1
   7915   7910   7896   7918     1  0.0000000  0.0000000  3
   7915   7910   7916   7917     1  0.0000000  0.6973333  3
   7919   7920   7923   7927     1  0.0000000  0.6508444  3
   7919   7920   7932   7935     1  0.0000000  1.0460000  1
   7919   7920   7932   7935     1  0.0000000  0.6694400  3
   7919   7933   7939   7940     1  0.0000000  1.0460000  1
   7919   7933   7939   7940     1  0.0000000  0.6694400  3
   7919   7941   7925   7928     1  0.0000000  1.6038667  3
   7920   7923   7924   7926     1  0.0000000  0.6508444  3
   7920   7923   7931   7934     1  0.0000000  1.0460000  1
   7920   7923   7931   7934     1  0.0000000  0.6694400  3
   7920   7919   7933   7937     1  0.0000000  0.6508444  3
   7920   7919   7933   7938     1  0.0000000  0.6508444  3
   7921   7919   7920   7923     1  0.0000000  0.6508444  3
   7921   7919   7920   7932     1  0.0000000  1.0460000  1
   7921   7919   7920   7932     1  0.0000000  0.0000000  3
   7921   7919   7920   7922     1  0.0000000  0.6508444  3
   7921   7919   7933   7939     1  0.0000000  1.0460000  1
   7921   7919   7933   7939     1  0.0000000  0.0000000  3
   7921   7919   7933   7937     1  0.0000000  0.6508444  3
   7921   7919   7933   7938     1  0.0000000  0.6508444  3
   7921   7919   7941   7925     1  0.0000000  1.6038667  3
   7922   7920   7923   7924     1  0.0000000  0.6508444  3
   7922   7920   7923   7931     1  0.0000000  1.0460000  1
   7922   7920   7923   7931     1  0.0000000  0.0000000  3
   7922   7920   7923   7927     1  0.0000000  0.6508444  3
   7922   7920   7932   7935     1  0.0000000  0.6973333  3
   7922   7920   7919   7933     1  0.0000000  0.6508444  3
   7922   7920   7919   7941     1  0.0000000  1.0460000  1
   7922   7920   7919   7941     1  0.0000000  0.0000000  3
   7923   7924   7925   7928     1  0.0000000  0.6508444  3
   7923   7924   7930   7936     1  0.0000000  1.0460000  1
   7923   7924   7930   7936     1  0.0000000  0.6694400  3
   7923   7920   7932   7935     1  0.0000000  1.0460000  1
   7923   7920   7932   7935     1  0.0000000  0.6694400  3
   7924   7923   7931   7934     1  0.0000000  1.0460000  1
   7924   7923   7931   7934     1  0.0000000  0.6694400  3
   7925   7924   7930   7936     1  0.0000000  1.0460000  1
   7925   7924   7930   7936     1  0.0000000  0.6694400  3
   7925   7924   7923   7927     1  0.0000000  0.6508444  3
   7926   7924   7925   7929     1  0.0000000  1.0460000  1
   7926   7924   7925   7929     1  0.0000000  0.0000000  3
   7926   7924   7925   7941     1  0.0000000  1.0460000  1
   7926   7924   7925   7941     1  0.0000000  0.0000000  3
   7926   7924   7925   7928     1  0.0000000  0.6508444  3
   7926   7924   7930   7936     1  0.0000000  0.6973333  3
   7926   7924   7923   7931     1  0.0000000  1.0460000  1
   7926   7924   7923   7931     1  0.0000000  0.0000000  3
   7926   7924   7923   7927     1  0.0000000  0.6508444  3
   7927   7923   7924   7930     1  0.0000000  1.0460000  1
   7927   7923   7924   7930     1  0.0000000  0.0000000  3
   7927   7923   7931   7934     1  0.0000000  0.6973333  3
   7927   7923   7920   7932     1  0.0000000  1.0460000  1
   7927   7923   7920   7932     1  0.0000000  0.0000000  3
   7928   7925   7924   7930     1  0.0000000  0.6508444  3
   7937   7933   7939   7940     1  0.0000000  0.6973333  3
   7937   7933   7919   7941     1  0.0000000  1.0460000  1
   7937   7933   7919   7941     1  0.0000000  0.0000000  3
   7938   7933   7939   7940     1  0.0000000  0.6973333  3
   7938   7933   7919   7941     1  0.0000000  1.0460000  1
   7938   7933   7919   7941     1  0.0000000  0.0000000  3
   7942   7943   7946   7950     1  0.0000000  0.6508444  3
   7942   7943   7955   7958     1  0.0000000  1.0460000  1
   7942   7943   7955   7958     1  0.0000000  0.6694400  3
   7942   7956   7962   7963     1  0.0000000  1.0460000  1
   7942   7956   7962   7963     1  0.0000000  0.6694400  3
   7942   7964   7948   7951     1  0.0000000  1.6038667  3
   7943   7942   7956   7960     1  0.0000000  0.6508444  3
   7943   7942   7956   7961     1  0.0000000  0.6508444  3
   7943   7946   7947   7949     1  0.0000000  0.6508444  3
   7943   7946   7954   7957     1  0.0000000  1.0460000  1
   7943   7946   7954   7957     1  0.0000000  0.6694400  3
   7944   7942   7943   7946     1  0.0000000  0.6508444  3
   7944   7942   7943   7955     1  0.0000000  1.0460000  1
   7944   7942   7943   7955     1  0.0000000  0.0000000  3
   7944   7942   7943   7945     1  0.0000000  0.6508444  3
   7944   7942   7956   7962     1  0.0000000  1.0460000  1
   7944   7942   7956   7962     1  0.0000000  0.0000000  3
   7944   7942   7956   7960     1  0.0000000  0.6508444  3
   7944   7942   7956   7961     1  0.0000000  0.6508444  3
   7944   7942   7964   7948     1  0.0000000  1.6038667  3
   7945   7943   7942   7956     1  0.0000000  0.6508444  3
   7945   7943   7942   7964     1  0.0000000  1.0460000  1
   7945   7943   7942   7964     1  0.0000000  0.0000000  3
   7945   7943   7946   7947     1  0.0000000  0.6508444  3
   7945   7943   7946   7954     1  0.0000000  1.0460000  1
   7945   7943   7946   7954     1  0.0000000  0.0000000  3
   7945   7943   7946   7950     1  0.0000000  0.6508444  3
   7945   7943   7955   7958     1  0.0000000  0.6973333  3
   7946   7943   7955   7958     1  0.0000000  1.0460000  1
   7946   7943   7955   7958     1  0.0000000  0.6694400  3
   7946   7947   7948   7951     1  0.0000000  0.6508444  3
   7946   7947   7953   7959     1  0.0000000  1.0460000  1
   7946   7947   7953   7959     1  0.0000000  0.6694400  3
   7947   7946   7954   7957     1  0.0000000  1.0460000  1
   7947   7946   7954   7957     1  0.0000000  0.6694400  3
   7948   7947   7946   7950     1  0.0000000  0.6508444  3
   7948   7947   7953   7959     1  0.0000000  1.0460000  1
   7948   7947   7953   7959     1  0.0000000  0.6694400  3
   7949   7947   7946   7954     1  0.0000000  1.0460000  1
   7949   7947   7946   7954     1  0.0000000  0.0000000  3
   7949   7947   7946   7950     1  0.0000000  0.6508444  3
   7949   7947   7948   7952     1  0.0000000  1.0460000  1
   7949   7947   7948   7952     1  0.0000000  0.0000000  3
   7949   7947   7948   7964     1  0.0000000  1.0460000  1
   7949   7947   7948   7964     1  0.0000000  0.0000000  3
   7949   7947   7948   7951     1  0.0000000  0.6508444  3
   7949   7947   7953   7959     1  0.0000000  0.6973333  3
   7950   7946   7943   7955     1  0.0000000  1.0460000  1
   7950   7946   7943   7955     1  0.0000000  0.0000000  3
   7950   7946   7947   7953     1  0.0000000  1.0460000  1
   7950   7946   7947   7953     1  0.0000000  0.0000000  3
   7950   7946   7954   7957     1  0.0000000  0.6973333  3
   7951   7948   7947   7953     1  0.0000000  0.6508444  3
   7960   7956   7942   7964     1  0.0000000  1.0460000  1
   7960   7956   7942   7964     1  0.0000000  0.0000000  3
   7960   7956   7962   7963     1  0.0000000  0.6973333  3
   7961   7956   7942   7964     1  0.0000000  1.0460000  1
   7961   7956   7942   7964     1  0.0000000  0.0000000  3
   7961   7956   7962   7963     1  0.0000000  0.6973333  3
   7965   7966   7969   7973     1  0.0000000  0.6508444  3
   7965   7966   7978   7981     1  0.0000000  1.0460000  1
   7965   7966   7978   7981     1  0.0000000  0.6694400  3
   7965   7979   7985   7986     1  0.0000000  1.0460000  1
   7965   7979   7985   7986     1  0.0000000  0.6694400  3
   7965   7987   7971   7974     1  0.0000000  1.6038667  3
   7966   7969   7970   7972     1  0.0000000  0.6508444  3
   7966   7969   7977   7980     1  0.0000000  1.0460000  1
   7966   7969   7977   7980     1  0.0000000  0.6694400  3
   7966   7965   7979   7983     1  0.0000000  0.6508444  3
   7966   7965   7979   7984     1  0.0000000  0.6508444  3
   7967   7965   7966   7969     1  0.0000000  0.6508444  3
   7967   7965   7966   7978     1  0.0000000  1.0460000  1
   7967   7965   7966   7978     1  0.0000000  0.0000000  3
   7967   7965   7966   7968     1  0.0000000  0.6508444  3
   7967   7965   7979   7985     1  0.0000000  1.0460000  1
   7967   7965   7979   7985     1  0.0000000  0.0000000  3
   7967   7965   7979   7983     1  0.0000000  0.6508444  3
   7967   7965   7979   7984     1  0.0000000  0.6508444  3
   7967   7965   7987   7971     1  0.0000000  1.6038667  3
   7968   7966   7969   7970     1  0.0000000  0.6508444  3
   7968   7966   7969   7977     1  0.0000000  1.0460000  1
   7968   7966   7969   7977     1  0.0000000  0.0000000  3
   7968   7966   7969   7973     1  0.0000000  0.6508444  3
   7968   7966   7978   7981     1  0.0000000  0.6973333  3
   7968   7966   7965   7979     1  0.0000000  0.6508444  3
   7968   7966   7965   7987     1  0.0000000  1.0460000  1
   7968   7966   7965   7987     1  0.0000000  0.0000000  3
   7969   7970   7971   7974     1  0.0000000  0.6508444  3
   7969   7970   7976   7982     1  0.0000000  1.0460000  1
   7969   7970   7976   7982     1  0.0000000  0.6694400  3
   7969   7966   7978   7981     1  0.0000000  1.0460000  1
   7969   7966   7978   7981     1  0.0000000  0.6694400  3
   7970   7969   7977   7980     1  0.0000000  1.0460000  1
   7970   7969   7977   7980     1  0.0000000  0.6694400  3
   7971   7970   7976   7982     1  0.0000000  1.0460000  1
   7971   7970   7976   7982     1  0.0000000  0.6694400  3
   7971   7970   7969   7973     1  0.0000000  0.6508444  3
   7972   7970   7971   7975     1  0.0000000  1.0460000  1
   7972   7970   7971   7975     1  0.0000000  0.0000000  3
   7972   7970   7971   7987     1  0.0000000  1.0460000  1
   7972   7970   7971   7987     1  0.0000000  0.0000000  3
   7972   7970   7971   7974     1  0.0000000  0.6508444  3
   7972   7970   7976   7982     1  0.0000000  0.6973333  3
   7972   7970   7969   7977     1  0.0000000  1.0460000  1
   7972   7970   7969   7977     1  0.0000000  0.0000000  3
   7972   7970   7969   7973     1  0.0000000  0.6508444  3
   7973   7969   7970   7976     1  0.0000000  1.0460000  1
   7973   7969   7970   7976     1  0.0000000  0.0000000  3
   7973   7969   7977   7980     1  0.0000000  0.6973333  3
   7973   7969   7966   7978     1  0.0000000  1.0460000  1
   7973   7969   7966   7978     1  0.0000000  0.0000000  3
   7974   7971   7970   7976     1  0.0000000  0.6508444  3
   7983   7979   7985   7986     1  0.0000000  0.6973333  3
   7983   7979   7965   7987     1  0.0000000  1.0460000  1
   7983   7979   7965   7987     1  0.0000000  0.0000000  3
   7984   7979   7985   7986     1  0.0000000  0.6973333  3
   7984   7979   7965   7987     1  0.0000000  1.0460000  1
   7984   7979   7965   7987     1  0.0000000  0.0000000  3
   7988   7989   7992   7996     1  0.0000000  0.6508444  3
   7988   7989   8001   8004     1  0.0000000  1.0460000  1
   7988   7989   8001   8004     1  0.0000000  0.6694400  3
   7988   8002   8008   8009     1  0.0000000  1.0460000  1
   7988   8002   8008   8009     1  0.0000000  0.6694400  3
   7988   8010   7994   7997     1  0.0000000  1.6038667  3
   7989   7988   8002   8006     1  0.0000000  0.6508444  3
   7989   7988   8002   8007     1  0.0000000  0.6508444  3
   7989   7992   7993   7995     1  0.0000000  0.6508444  3
   7989   7992   8000   8003     1  0.0000000  1.0460000  1
   7989   7992   8000   8003     1  0.0000000  0.6694400  3
   7990   7988   7989   7992     1  0.0000000  0.6508444  3
   7990   7988   7989   8001     1  0.0000000  1.0460000  1
   7990   7988   7989   8001     1  0.0000000  0.0000000  3
   7990   7988   7989   7991     1  0.0000000  0.6508444  3
   7990   7988   8002   8008     1  0.0000000  1.0460000  1
   7990   7988   8002   8008     1  0.0000000  0.0000000  3
   7990   7988   8002   8006     1  0.0000000  0.6508444  3
   7990   7988   8002   8007     1  0.0000000  0.6508444  3
   7990   7988   8010   7994     1  0.0000000  1.6038667  3
   7991   7989   7988   8002     1  0.0000000  0.6508444  3
   7991   7989   7988   8010     1  0.0000000  1.0460000  1
   7991   7989   7988   8010     1  0.0000000  0.0000000  3
   7991   7989   7992   7993     1  0.0000000  0.6508444  3
   7991   7989   7992   8000     1  0.0000000  1.0460000  1
   7991   7989   7992   8000     1  0.0000000  0.0000000  3
   7991   7989   7992   7996     1  0.0000000  0.6508444  3
   7991   7989   8001   8004     1  0.0000000  0.6973333  3
   7992   7989   8001   8004     1  0.0000000  1.0460000  1
   7992   7989   8001   8004     1  0.0000000  0.6694400  3
   7992   7993   7994   7997     1  0.0000000  0.6508444  3
   7992   7993   7999   8005     1  0.0000000  1.0460000  1
   7992   7993   7999   8005     1  0.0000000  0.6694400  3
   7993   7992   8000   8003     1  0.0000000  1.0460000  1
   7993   7992   8000   8003     1  0.0000000  0.6694400  3
   7994   7993   7992   7996     1  0.0000000  0.6508444  3
   7994   7993   7999   8005     1  0.0000000  1.0460000  1
   7994   7993   7999   8005     1  0.0000000  0.6694400  3
   7995   7993   7992   8000     1  0.0000000  1.0460000  1
   7995   7993   7992   8000     1  0.0000000  0.0000000  3
   7995   7993   7992   7996     1  0.0000000  0.6508444  3
   7995   7993   7994   7998     1  0.0000000  1.0460000  1
   7995   7993   7994   7998     1  0.0000000  0.0000000  3
   7995   7993   7994   8010     1  0.0000000  1.0460000  1
   7995   7993   7994   8010     1  0.0000000  0.0000000  3
   7995   7993   7994   7997     1  0.0000000  0.6508444  3
   7995   7993   7999   8005     1  0.0000000  0.6973333  3
   7996   7992   7989   8001     1  0.0000000  1.0460000  1
   7996   7992   7989   8001     1  0.0000000  0.0000000  3
   7996   7992   7993   7999     1  0.0000000  1.0460000  1
   7996   7992   7993   7999     1  0.0000000  0.0000000  3
   7996   7992   8000   8003     1  0.0000000  0.6973333  3
   7997   7994   7993   7999     1  0.0000000  0.6508444  3
   8006   8002   7988   8010     1  0.0000000  1.0460000  1
   8006   8002   7988   8010     1  0.0000000  0.0000000  3
   8006   8002   8008   8009     1  0.0000000  0.6973333  3
   8007   8002   7988   8010     1  0.0000000  1.0460000  1
   8007   8002   7988   8010     1  0.0000000  0.0000000  3
   8007   8002   8008   8009     1  0.0000000  0.6973333  3
   8011   8012   8015   8019     1  0.0000000  0.6508444  3
   8011   8012   8024   8027     1  0.0000000  1.0460000  1
   8011   8012   8024   8027     1  0.0000000  0.6694400  3
   8011   8025   8031   8032     1  0.0000000  1.0460000  1
   8011   8025   8031   8032     1  0.0000000  0.6694400  3
   8011   8033   8017   8020     1  0.0000000  1.6038667  3
   8012   8015   8016   8018     1  0.0000000  0.6508444  3
   8012   8015   8023   8026     1  0.0000000  1.0460000  1
   8012   8015   8023   8026     1  0.0000000  0.6694400  3
   8012   8011   8025   8029     1  0.0000000  0.6508444  3
   8012   8011   8025   8030     1  0.0000000  0.6508444  3
   8013   8011   8012   8015     1  0.0000000  0.6508444  3
   8013   8011   8012   8024     1  0.0000000  1.0460000  1
   8013   8011   8012   8024     1  0.0000000  0.0000000  3
   8013   8011   8012   8014     1  0.0000000  0.6508444  3
   8013   8011   8025   8031     1  0.0000000  1.0460000  1
   8013   8011   8025   8031     1  0.0000000  0.0000000  3
   8013   8011   8025   8029     1  0.0000000  0.6508444  3
   8013   8011   8025   8030     1  0.0000000  0.6508444  3
   8013   8011   8033   8017     1  0.0000000  1.6038667  3
   8014   8012   8015   8016     1  0.0000000  0.6508444  3
   8014   8012   8015   8023     1  0.0000000  1.0460000  1
   8014   8012   8015   8023     1  0.0000000  0.0000000  3
   8014   8012   8015   8019     1  0.0000000  0.6508444  3
   8014   8012   8024   8027     1  0.0000000  0.6973333  3
   8014   8012   8011   8025     1  0.0000000  0.6508444  3
   8014   8012   8011   8033     1  0.0000000  1.0460000  1
   8014   8012   8011   8033     1  0.0000000  0.0000000  3
   8015   8016   8017   8020     1  0.0000000  0.6508444  3
   8015   8016   8022   8028     1  0.0000000  1.0460000  1
   8015   8016   8022   8028     1  0.0000000  0.6694400  3
   8015   8012   8024   8027     1  0.0000000  1.0460000  1
   8015   8012   8024   8027     1  0.0000000  0.6694400  3
   8016   8015   8023   8026     1  0.0000000  1.0460000  1
   8016   8015   8023   8026     1  0.0000000  0.6694400  3
   8017   8016   8022   8028     1  0.0000000  1.0460000  1
   8017   8016   8022   8028     1  0.0000000  0.6694400  3
   8017   8016   8015   8019     1  0.0000000  0.6508444  3
   8018   8016   8017   8021     1  0.0000000  1.0460000  1
   8018   8016   8017   8021     1  0.0000000  0.0000000  3
   8018   8016   8017   8033     1  0.0000000  1.0460000  1
   8018   8016   8017   8033     1  0.0000000  0.0000000  3
   8018   8016   8017   8020     1  0.0000000  0.6508444  3
   8018   8016   8022   8028     1  0.0000000  0.6973333  3
   8018   8016   8015   8023     1  0.0000000  1.0460000  1
   8018   8016   8015   8023     1  0.0000000  0.0000000  3
   8018   8016   8015   8019     1  0.0000000  0.6508444  3
   8019   8015   8016   8022     1  0.0000000  1.0460000  1
   8019   8015   8016   8022     1  0.0000000  0.0000000  3
   8019   8015   8023   8026     1  0.0000000  0.6973333  3
   8019   8015   8012   8024     1  0.0000000  1.0460000  1
   8019   8015   8012   8024     1  0.0000000  0.0000000  3
   8020   8017   8016   8022     1  0.0000000  0.6508444  3
   8029   8025   8031   8032     1  0.0000000  0.6973333  3
   8029   8025   8011   8033     1  0.0000000  1.0460000  1
   8029   8025   8011   8033     1  0.0000000  0.0000000  3
   8030   8025   8031   8032     1  0.0000000  0.6973333  3
   8030   8025   8011   8033     1  0.0000000  1.0460000  1
   8030   8025   8011   8033     1  0.0000000  0.0000000  3
   8034   8035   8038   8042     1  0.0000000  0.6508444  3
   8034   8035   8047   8050     1  0.0000000  1.0460000  1
   8034   8035   8047   8050     1  0.0000000  0.6694400  3
   8034   8048   8054   8055     1  0.0000000  1.0460000  1
   8034   8048   8054   8055     1  0.0000000  0.6694400  3
   8034   8056   8040   8043     1  0.0000000  1.6038667  3
   8035   8034   8048   8052     1  0.0000000  0.6508444  3
   8035   8034   8048   8053     1  0.0000000  0.6508444  3
   8035   8038   8039   8041     1  0.0000000  0.6508444  3
   8035   8038   8046   8049     1  0.0000000  1.0460000  1
   8035   8038   8046   8049     1  0.0000000  0.6694400  3
   8036   8034   8035   8038     1  0.0000000  0.6508444  3
   8036   8034   8035   8047     1  0.0000000  1.0460000  1
   8036   8034   8035   8047     1  0.0000000  0.0000000  3
   8036   8034   8035   8037     1  0.0000000  0.6508444  3
   8036   8034   8048   8054     1  0.0000000  1.0460000  1
   8036   8034   8048   8054     1  0.0000000  0.0000000  3
   8036   8034   8048   8052     1  0.0000000  0.6508444  3
   8036   8034   8048   8053     1  0.0000000  0.6508444  3
   8036   8034   8056   8040     1  0.0000000  1.6038667  3
   8037   8035   8034   8048     1  0.0000000  0.6508444  3
   8037   8035   8034   8056     1  0.0000000  1.0460000  1
   8037   8035   8034   8056     1  0.0000000  0.0000000  3
   8037   8035   8038   8039     1  0.0000000  0.6508444  3
   8037   8035   8038   8046     1  0.0000000  1.0460000  1
   8037   8035   8038   8046     1  0.0000000  0.0000000  3
   8037   8035   8038   8042     1  0.0000000  0.6508444  3
   8037   8035   8047   8050     1  0.0000000  0.6973333  3
   8038   8035   8047   8050     1  0.0000000  1.0460000  1
   8038   8035   8047   8050     1  0.0000000  0.6694400  3
   8038   8039   8040   8043     1  0.0000000  0.6508444  3
   8038   8039   8045   8051     1  0.0000000  1.0460000  1
   8038   8039   8045   8051     1  0.0000000  0.6694400  3
   8039   8038   8046   8049     1  0.0000000  1.0460000  1
   8039   8038   8046   8049     1  0.0000000  0.6694400  3
   8040   8039   8038   8042     1  0.0000000  0.6508444  3
   8040   8039   8045   8051     1  0.0000000  1.0460000  1
   8040   8039   8045   8051     1  0.0000000  0.6694400  3
   8041   8039   8038   8046     1  0.0000000  1.0460000  1
   8041   8039   8038   8046     1  0.0000000  0.0000000  3
   8041   8039   8038   8042     1  0.0000000  0.6508444  3
   8041   8039   8040   8044     1  0.0000000  1.0460000  1
   8041   8039   8040   8044     1  0.0000000  0.0000000  3
   8041   8039   8040   8056     1  0.0000000  1.0460000  1
   8041   8039   8040   8056     1  0.0000000  0.0000000  3
   8041   8039   8040   8043     1  0.0000000  0.6508444  3
   8041   8039   8045   8051     1  0.0000000  0.6973333  3
   8042   8038   8035   8047     1  0.0000000  1.0460000  1
   8042   8038   8035   8047     1  0.0000000  0.0000000  3
   8042   8038   8039   8045     1  0.0000000  1.0460000  1
   8042   8038   8039   8045     1  0.0000000  0.0000000  3
   8042   8038   8046   8049     1  0.0000000  0.6973333  3
   8043   8040   8039   8045     1  0.0000000  0.6508444  3
   8052   8048   8034   8056     1  0.0000000  1.0460000  1
   8052   8048   8034   8056     1  0.0000000  0.0000000  3
   8052   8048   8054   8055     1  0.0000000  0.6973333  3
   8053   8048   8034   8056     1  0.0000000  1.0460000  1
   8053   8048   8034   8056     1  0.0000000  0.0000000  3
   8053   8048   8054   8055     1  0.0000000  0.6973333  3
   8057   8058   8061   8065     1  0.0000000  0.6508444  3
   8057   8058   8070   8073     1  0.0000000  1.0460000  1
   8057   8058   8070   8073     1  0.0000000  0.6694400  3
   8057   8071   8077   8078     1  0.0000000  1.0460000  1
   8057   8071   8077   8078     1  0.0000000  0.6694400  3
   8057   8079   8063   8066     1  0.0000000  1.6038667  3
   8058   8061   8062   8064     1  0.0000000  0.6508444  3
   8058   8061   8069   8072     1  0.0000000  1.0460000  1
   8058   8061   8069   8072     1  0.0000000  0.6694400  3
   8058   8057   8071   8075     1  0.0000000  0.6508444  3
   8058   8057   8071   8076     1  0.0000000  0.6508444  3
   8059   8057   8058   8061     1  0.0000000  0.6508444  3
   8059   8057   8058   8070     1  0.0000000  1.0460000  1
   8059   8057   8058   8070     1  0.0000000  0.0000000  3
   8059   8057   8058   8060     1  0.0000000  0.6508444  3
   8059   8057   8071   8077     1  0.0000000  1.0460000  1
   8059   8057   8071   8077     1  0.0000000  0.0000000  3
   8059   8057   8071   8075     1  0.0000000  0.6508444  3
   8059   8057   8071   8076     1  0.0000000  0.6508444  3
   8059   8057   8079   8063     1  0.0000000  1.6038667  3
   8060   8058   8061   8062     1  0.0000000  0.6508444  3
   8060   8058   8061   8069     1  0.0000000  1.0460000  1
   8060   8058   8061   8069     1  0.0000000  0.0000000  3
   8060   8058   8061   8065     1  0.0000000  0.6508444  3
   8060   8058   8070   8073     1  0.0000000  0.6973333  3
   8060   8058   8057   8071     1  0.0000000  0.6508444  3
   8060   8058   8057   8079     1  0.0000000  1.0460000  1
   8060   8058   8057   8079     1  0.0000000  0.0000000  3
   8061   8062   8063   8066     1  0.0000000  0.6508444  3
   8061   8062   8068   8074     1  0.0000000  1.0460000  1
   8061   8062   8068   8074     1  0.0000000  0.6694400  3
   8061   8058   8070   8073     1  0.0000000  1.0460000  1
   8061   8058   8070   8073     1  0.0000000  0.6694400  3
   8062   8061   8069   8072     1  0.0000000  1.0460000  1
   8062   8061   8069   8072     1  0.0000000  0.6694400  3
   8063   8062   8068   8074     1  0.0000000  1.0460000  1
   8063   8062   8068   8074     1  0.0000000  0.6694400  3
   8063   8062   8061   8065     1  0.0000000  0.6508444  3
   8064   8062   8063   8067     1  0.0000000  1.0460000  1
   8064   8062   8063   8067     1  0.0000000  0.0000000  3
   8064   8062   8063   8079     1  0.0000000  1.0460000  1
   8064   8062   8063   8079     1  0.0000000  0.0000000  3
   8064   8062   8063   8066     1  0.0000000  0.6508444  3
   8064   8062   8068   8074     1  0.0000000  0.6973333  3
   8064   8062   8061   8069     1  0.0000000  1.0460000  1
   8064   8062   8061   8069     1  0.0000000  0.0000000  3
   8064   8062   8061   8065     1  0.0000000  0.6508444  3
   8065   8061   8062   8068     1  0.0000000  1.0460000  1
   8065   8061   8062   8068     1  0.0000000  0.0000000  3
   8065   8061   8069   8072     1  0.0000000  0.6973333  3
   8065   8061   8058   8070     1  0.0000000  1.0460000  1
   8065   8061   8058   8070     1  0.0000000  0.0000000  3
   8066   8063   8062   8068     1  0.0000000  0.6508444  3
   8075   8071   8077   8078     1  0.0000000  0.6973333  3
   8075   8071   8057   8079     1  0.0000000  1.0460000  1
   8075   8071   8057   8079     1  0.0000000  0.0000000  3
   8076   8071   8077   8078     1  0.0000000  0.6973333  3
   8076   8071   8057   8079     1  0.0000000  1.0460000  1
   8076   8071   8057   8079     1  0.0000000  0.0000000  3
   8080   8081   8084   8088     1  0.0000000  0.6508444  3
   8080   8081   8093   8096     1  0.0000000  1.0460000  1
   8080   8081   8093   8096     1  0.0000000  0.6694400  3
   8080   8094   8100   8101     1  0.0000000  1.0460000  1
   8080   8094   8100   8101     1  0.0000000  0.6694400  3
   8080   8102   8086   8089     1  0.0000000  1.6038667  3
   8081   8080   8094   8098     1  0.0000000  0.6508444  3
   8081   8080   8094   8099     1  0.0000000  0.6508444  3
   8081   8084   8085   8087     1  0.0000000  0.6508444  3
   8081   8084   8092   8095     1  0.0000000  1.0460000  1
   8081   8084   8092   8095     1  0.0000000  0.6694400  3
   8082   8080   8081   8084     1  0.0000000  0.6508444  3
   8082   8080   8081   8093     1  0.0000000  1.0460000  1
   8082   8080   8081   8093     1  0.0000000  0.0000000  3
   8082   8080   8081   8083     1  0.0000000  0.6508444  3
   8082   8080   8094   8100     1  0.0000000  1.0460000  1
   8082   8080   8094   8100     1  0.0000000  0.0000000  3
   8082   8080   8094   8098     1  0.0000000  0.6508444  3
   8082   8080   8094   8099     1  0.0000000  0.6508444  3
   8082   8080   8102   8086     1  0.0000000  1.6038667  3
   8083   8081   8080   8094     1  0.0000000  0.6508444  3
   8083   8081   8080   8102     1  0.0000000  1.0460000  1
   8083   8081   8080   8102     1  0.0000000  0.0000000  3
   8083   8081   8084   8085     1  0.0000000  0.6508444  3
   8083   8081   8084   8092     1  0.0000000  1.0460000  1
   8083   8081   8084   8092     1  0.0000000  0.0000000  3
   8083   8081   8084   8088     1  0.0000000  0.6508444  3
   8083   8081   8093   8096     1  0.0000000  0.6973333  3
   8084   8081   8093   8096     1  0.0000000  1.0460000  1
   8084   8081   8093   8096     1  0.0000000  0.6694400  3
   8084   8085   8086   8089     1  0.0000000  0.6508444  3
   8084   8085   8091   8097     1  0.0000000  1.0460000  1
   8084   8085   8091   8097     1  0.0000000  0.6694400  3
   8085   8084   8092   8095     1  0.0000000  1.0460000  1
   8085   8084   8092   8095     1  0.0000000  0.6694400  3
   8086   8085   8084   8088     1  0.0000000  0.6508444  3
   8086   8085   8091   8097     1  0.0000000  1.0460000  1
   8086   8085   8091   8097     1  0.0000000  0.6694400  3
   8087   8085   8084   8092     1  0.0000000  1.0460000  1
   8087   8085   8084   8092     1  0.0000000  0.0000000  3
   8087   8085   8084   8088     1  0.0000000  0.6508444  3
   8087   8085   8086   8090     1  0.0000000  1.0460000  1
   8087   8085   8086   8090     1  0.0000000  0.0000000  3
   8087   8085   8086   8102     1  0.0000000  1.0460000  1
   8087   8085   8086   8102     1  0.0000000  0.0000000  3
   8087   8085   8086   8089     1  0.0000000  0.6508444  3
   8087   8085   8091   8097     1  0.0000000  0.6973333  3
   8088   8084   8081   8093     1  0.0000000  1.0460000  1
   8088   8084   8081   8093     1  0.0000000  0.0000000  3
   8088   8084   8085   8091     1  0.0000000  1.0460000  1
   8088   8084   8085   8091     1  0.0000000  0.0000000  3
   8088   8084   8092   8095     1  0.0000000  0.6973333  3
   8089   8086   8085   8091     1  0.0000000  0.6508444  3
   8098   8094   8080   8102     1  0.0000000  1.0460000  1
   8098   8094   8080   8102     1  0.0000000  0.0000000  3
   8098   8094   8100   8101     1  0.0000000  0.6973333  3
   8099   8094   8080   8102     1  0.0000000  1.0460000  1
   8099   8094   8080   8102     1  0.0000000  0.0000000  3
   8099   8094   8100   8101     1  0.0000000  0.6973333  3
   8103   8104   8107   8111     1  0.0000000  0.6508444  3
   8103   8104   8116   8119     1  0.0000000  1.0460000  1
   8103   8104   8116   8119     1  0.0000000  0.6694400  3
   8103   8117   8123   8124     1  0.0000000  1.0460000  1
   8103   8117   8123   8124     1  0.0000000  0.6694400  3
   8103   8125   8109   8112     1  0.0000000  1.6038667  3
   8104   8107   8108   8110     1  0.0000000  0.6508444  3
   8104   8107   8115   8118     1  0.0000000  1.0460000  1
   8104   8107   8115   8118     1  0.0000000  0.6694400  3
   8104   8103   8117   8121     1  0.0000000  0.6508444  3
   8104   8103   8117   8122     1  0.0000000  0.6508444  3
   8105   8103   8104   8107     1  0.0000000  0.6508444  3
   8105   8103   8104   8116     1  0.0000000  1.0460000  1
   8105   8103   8104   8116     1  0.0000000  0.0000000  3
   8105   8103   8104   8106     1  0.0000000  0.6508444  3
   8105   8103   8117   8123     1  0.0000000  1.0460000  1
   8105   8103   8117   8123     1  0.0000000  0.0000000  3
   8105   8103   8117   8121     1  0.0000000  0.6508444  3
   8105   8103   8117   8122     1  0.0000000  0.6508444  3
   8105   8103   8125   8109     1  0.0000000  1.6038667  3
   8106   8104   8107   8108     1  0.0000000  0.6508444  3
   8106   8104   8107   8115     1  0.0000000  1.0460000  1
   8106   8104   8107   8115     1  0.0000000  0.0000000  3
   8106   8104   8107   8111     1  0.0000000  0.6508444  3
   8106   8104   8116   8119     1  0.0000000  0.6973333  3
   8106   8104   8103   8117     1  0.0000000  0.6508444  3
   8106   8104   8103   8125     1  0.0000000  1.0460000  1
   8106   8104   8103   8125     1  0.0000000  0.0000000  3
   8107   8108   8109   8112     1  0.0000000  0.6508444  3
   8107   8108   8114   8120     1  0.0000000  1.0460000  1
   8107   8108   8114   8120     1  0.0000000  0.6694400  3
   8107   8104   8116   8119     1  0.0000000  1.0460000  1
   8107   8104   8116   8119     1  0.0000000  0.6694400  3
   8108   8107   8115   8118     1  0.0000000  1.0460000  1
   8108   8107   8115   8118     1  0.0000000  0.6694400  3
   8109   8108   8114   8120     1  0.0000000  1.0460000  1
   8109   8108   8114   8120     1  0.0000000  0.6694400  3
   8109   8108   8107   8111     1  0.0000000  0.6508444  3
   8110   8108   8109   8113     1  0.0000000  1.0460000  1
   8110   8108   8109   8113     1  0.0000000  0.0000000  3
   8110   8108   8109   8125     1  0.0000000  1.0460000  1
   8110   8108   8109   8125     1  0.0000000  0.0000000  3
   8110   8108   8109   8112     1  0.0000000  0.6508444  3
   8110   8108   8114   8120     1  0.0000000  0.6973333  3
   8110   8108   8107   8115     1  0.0000000  1.0460000  1
   8110   8108   8107   8115     1  0.0000000  0.0000000  3
   8110   8108   8107   8111     1  0.0000000  0.6508444  3
   8111   8107   8108   8114     1  0.0000000  1.0460000  1
   8111   8107   8108   8114     1  0.0000000  0.0000000  3
   8111   8107   8115   8118     1  0.0000000  0.6973333  3
   8111   8107   8104   8116     1  0.0000000  1.0460000  1
   8111   8107   8104   8116     1  0.0000000  0.0000000  3
   8112   8109   8108   8114     1  0.0000000  0.6508444  3
   8121   8117   8123   8124     1  0.0000000  0.6973333  3
   8121   8117   8103   8125     1  0.0000000  1.0460000  1
   8121   8117   8103   8125     1  0.0000000  0.0000000  3
   8122   8117   8123   8124     1  0.0000000  0.6973333  3
   8122   8117   8103   8125     1  0.0000000  1.0460000  1
   8122   8117   8103   8125     1  0.0000000  0.0000000  3
   8126   8127   8130   8134     1  0.0000000  0.6508444  3
   8126   8127   8139   8142     1  0.0000000  1.0460000  1
   8126   8127   8139   8142     1  0.0000000  0.6694400  3
   8126   8140   8146   8147     1  0.0000000  1.0460000  1
   8126   8140   8146   8147     1  0.0000000  0.6694400  3
   8126   8148   8132   8135     1  0.0000000  1.6038667  3
   8127   8126   8140   8144     1  0.0000000  0.6508444  3
   8127   8126   8140   8145     1  0.0000000  0.6508444  3
   8127   8130   8131   8133     1  0.0000000  0.6508444  3
   8127   8130   8138   8141     1  0.0000000  1.0460000  1
   8127   8130   8138   8141     1  0.0000000  0.6694400  3
   8128   8126   8127   8130     1  0.0000000  0.6508444  3
   8128   8126   8127   8139     1  0.0000000  1.0460000  1
   8128   8126   8127   8139     1  0.0000000  0.0000000  3
   8128   8126   8127   8129     1  0.0000000  0.6508444  3
   8128   8126   8140   8146     1  0.0000000  1.0460000  1
   8128   8126   8140   8146     1  0.0000000  0.0000000  3
   8128   8126   8140   8144     1  0.0000000  0.6508444  3
   8128   8126   8140   8145     1  0.0000000  0.6508444  3
   8128   8126   8148   8132     1  0.0000000  1.6038667  3
   8129   8127   8126   8140     1  0.0000000  0.6508444  3
   8129   8127   8126   8148     1  0.0000000  1.0460000  1
   8129   8127   8126   8148     1  0.0000000  0.0000000  3
   8129   8127   8130   8131     1  0.0000000  0.6508444  3
   8129   8127   8130   8138     1  0.0000000  1.0460000  1
   8129   8127   8130   8138     1  0.0000000  0.0000000  3
   8129   8127   8130   8134     1  0.0000000  0.6508444  3
   8129   8127   8139   8142     1  0.0000000  0.6973333  3
   8130   8127   8139   8142     1  0.0000000  1.0460000  1
   8130   8127   8139   8142     1  0.0000000  0.6694400  3
   8130   8131   8132   8135     1  0.0000000  0.6508444  3
   8130   8131   8137   8143     1  0.0000000  1.0460000  1
   8130   8131   8137   8143     1  0.0000000  0.6694400  3
   8131   8130   8138   8141     1  0.0000000  1.0460000  1
   8131   8130   8138   8141     1  0.0000000  0.6694400  3
   8132   8131   8130   8134     1  0.0000000  0.6508444  3
   8132   8131   8137   8143     1  0.0000000  1.0460000  1
   8132   8131   8137   8143     1  0.0000000  0.6694400  3
   8133   8131   8130   8138     1  0.0000000  1.0460000  1
   8133   8131   8130   8138     1  0.0000000  0.0000000  3
   8133   8131   8130   8134     1  0.0000000  0.6508444  3
   8133   8131   8132   8136     1  0.0000000  1.0460000  1
   8133   8131   8132   8136     1  0.0000000  0.0000000  3
   8133   8131   8132   8148     1  0.0000000  1.0460000  1
   8133   8131   8132   8148     1  0.0000000  0.0000000  3
   8133   8131   8132   8135     1  0.0000000  0.6508444  3
   8133   8131   8137   8143     1  0.0000000  0.6973333  3
   8134   8130   8127   8139     1  0.0000000  1.0460000  1
   8134   8130   8127   8139     1  0.0000000  0.0000000  3
   8134   8130   8131   8137     1  0.0000000  1.0460000  1
   8134   8130   8131   8137     1  0.0000000  0.0000000  3
   8134   8130   8138   8141     1  0.0000000  0.6973333  3
   8135   8132   8131   8137     1  0.0000000  0.6508444  3
   8144   8140   8126   8148     1  0.0000000  1.0460000  1
   8144   8140   8126   8148     1  0.0000000  0.0000000  3
   8144   8140   8146   8147     1  0.0000000  0.6973333  3
   8145   8140   8126   8148     1  0.0000000  1.0460000  1
   8145   8140   8126   8148     1  0.0000000  0.0000000  3
   8145   8140   8146   8147     1  0.0000000  0.6973333  3
   8149   8150   8153   8157     1  0.0000000  0.6508444  3
   8149   8150   8162   8165     1  0.0000000  1.0460000  1
   8149   8150   8162   8165     1  0.0000000  0.6694400  3
   8149   8163   8169   8170     1  0.0000000  1.0460000  1
   8149   8163   8169   8170     1  0.0000000  0.6694400  3
   8149   8171   8155   8158     1  0.0000000  1.6038667  3
   8150   8153   8154   8156     1  0.0000000  0.6508444  3
   8150   8153   8161   8164     1  0.0000000  1.0460000  1
   8150   8153   8161   8164     1  0.0000000  0.6694400  3
   8150   8149   8163   8167     1  0.0000000  0.6508444  3
   8150   8149   8163   8168     1  0.0000000  0.6508444  3
   8151   8149   8150   8153     1  0.0000000  0.6508444  3
   8151   8149   8150   8162     1  0.0000000  1.0460000  1
   8151   8149   8150   8162     1  0.0000000  0.0000000  3
   8151   8149   8150   8152     1  0.0000000  0.6508444  3
   8151   8149   8163   8169     1  0.0000000  1.0460000  1
   8151   8149   8163   8169     1  0.0000000  0.0000000  3
   8151   8149   8163   8167     1  0.0000000  0.6508444  3
   8151   8149   8163   8168     1  0.0000000  0.6508444  3
   8151   8149   8171   8155     1  0.0000000  1.6038667  3
   8152   8150   8153   8154     1  0.0000000  0.6508444  3
   8152   8150   8153   8161     1  0.0000000  1.0460000  1
   8152   8150   8153   8161     1  0.0000000  0.0000000  3
   8152   8150   8153   8157     1  0.0000000  0.6508444  3
   8152   8150   8162   8165     1  0.0000000  0.6973333  3
   8152   8150   8149   8163     1  0.0000000  0.6508444  3
   8152   8150   8149   8171     1  0.0000000  1.0460000  1
   8152   8150   8149   8171     1  0.0000000  0.0000000  3
   8153   8154   8155   8158     1  0.0000000  0.6508444  3
   8153   8154   8160   8166     1  0.0000000  1.0460000  1
   8153   8154   8160   8166     1  0.0000000  0.6694400  3
   8153   8150   8162   8165     1  0.0000000  1.0460000  1
   8153   8150   8162   8165     1  0.0000000  0.6694400  3
   8154   8153   8161   8164     1  0.0000000  1.0460000  1
   8154   8153   8161   8164     1  0.0000000  0.6694400  3
   8155   8154   8160   8166     1  0.0000000  1.0460000  1
   8155   8154   8160   8166     1  0.0000000  0.6694400  3
   8155   8154   8153   8157     1  0.0000000  0.6508444  3
   8156   8154   8155   8159     1  0.0000000  1.0460000  1
   8156   8154   8155   8159     1  0.0000000  0.0000000  3
   8156   8154   8155   8171     1  0.0000000  1.0460000  1
   8156   8154   8155   8171     1  0.0000000  0.0000000  3
   8156   8154   8155   8158     1  0.0000000  0.6508444  3
   8156   8154   8160   8166     1  0.0000000  0.6973333  3
   8156   8154   8153   8161     1  0.0000000  1.0460000  1
   8156   8154   8153   8161     1  0.0000000  0.0000000  3
   8156   8154   8153   8157     1  0.0000000  0.6508444  3
   8157   8153   8154   8160     1  0.0000000  1.0460000  1
   8157   8153   8154   8160     1  0.0000000  0.0000000  3
   8157   8153   8161   8164     1  0.0000000  0.6973333  3
   8157   8153   8150   8162     1  0.0000000  1.0460000  1
   8157   8153   8150   8162     1  0.0000000  0.0000000  3
   8158   8155   8154   8160     1  0.0000000  0.6508444  3
   8167   8163   8169   8170     1  0.0000000  0.6973333  3
   8167   8163   8149   8171     1  0.0000000  1.0460000  1
   8167   8163   8149   8171     1  0.0000000  0.0000000  3
   8168   8163   8169   8170     1  0.0000000  0.6973333  3
   8168   8163   8149   8171     1  0.0000000  1.0460000  1
   8168   8163   8149   8171     1  0.0000000  0.0000000  3
   8172   8173   8176   8180     1  0.0000000  0.6508444  3
   8172   8173   8185   8188     1  0.0000000  1.0460000  1
   8172   8173   8185   8188     1  0.0000000  0.6694400  3
   8172   8186   8192   8193     1  0.0000000  1.0460000  1
   8172   8186   8192   8193     1  0.0000000  0.6694400  3
   8172   8194   8178   8181     1  0.0000000  1.6038667  3
   8173   8172   8186   8190     1  0.0000000  0.6508444  3
   8173   8172   8186   8191     1  0.0000000  0.6508444  3
   8173   8176   8177   8179     1  0.0000000  0.6508444  3
   8173   8176   8184   8187     1  0.0000000  1.0460000  1
   8173   8176   8184   8187     1  0.0000000  0.6694400  3
   8174   8172   8173   8176     1  0.0000000  0.6508444  3
   8174   8172   8173   8185     1  0.0000000  1.0460000  1
   8174   8172   8173   8185     1  0.0000000  0.0000000  3
   8174   8172   8173   8175     1  0.0000000  0.6508444  3
   8174   8172   8186   8192     1  0.0000000  1.0460000  1
   8174   8172   8186   8192     1  0.0000000  0.0000000  3
   8174   8172   8186   8190     1  0.0000000  0.6508444  3
   8174   8172   8186   8191     1  0.0000000  0.6508444  3
   8174   8172   8194   8178     1  0.0000000  1.6038667  3
   8175   8173   8172   8186     1  0.0000000  0.6508444  3
   8175   8173   8172   8194     1  0.0000000  1.0460000  1
   8175   8173   8172   8194     1  0.0000000  0.0000000  3
   8175   8173   8176   8177     1  0.0000000  0.6508444  3
   8175   8173   8176   8184     1  0.0000000  1.0460000  1
   8175   8173   8176   8184     1  0.0000000  0.0000000  3
   8175   8173   8176   8180     1  0.0000000  0.6508444  3
   8175   8173   8185   8188     1  0.0000000  0.6973333  3
   8176   8173   8185   8188     1  0.0000000  1.0460000  1
   8176   8173   8185   8188     1  0.0000000  0.6694400  3
   8176   8177   8178   8181     1  0.0000000  0.6508444  3
   8176   8177   8183   8189     1  0.0000000  1.0460000  1
   8176   8177   8183   8189     1  0.0000000  0.6694400  3
   8177   8176   8184   8187     1  0.0000000  1.0460000  1
   8177   8176   8184   8187     1  0.0000000  0.6694400  3
   8178   8177   8176   8180     1  0.0000000  0.6508444  3
   8178   8177   8183   8189     1  0.0000000  1.0460000  1
   8178   8177   8183   8189     1  0.0000000  0.6694400  3
   8179   8177   8176   8184     1  0.0000000  1.0460000  1
   8179   8177   8176   8184     1  0.0000000  0.0000000  3
   8179   8177   8176   8180     1  0.0000000  0.6508444  3
   8179   8177   8178   8182     1  0.0000000  1.0460000  1
   8179   8177   8178   8182     1  0.0000000  0.0000000  3
   8179   8177   8178   8194     1  0.0000000  1.0460000  1
   8179   8177   8178   8194     1  0.0000000  0.0000000  3
   8179   8177   8178   8181     1  0.0000000  0.6508444  3
   8179   8177   8183   8189     1  0.0000000  0.6973333  3
   8180   8176   8173   8185     1  0.0000000  1.0460000  1
   8180   8176   8173   8185     1  0.0000000  0.0000000  3
   8180   8176   8177   8183     1  0.0000000  1.0460000  1
   8180   8176   8177   8183     1  0.0000000  0.0000000  3
   8180   8176   8184   8187     1  0.0000000  0.6973333  3
   8181   8178   8177   8183     1  0.0000000  0.6508444  3
   8190   8186   8172   8194     1  0.0000000  1.0460000  1
   8190   8186   8172   8194     1  0.0000000  0.0000000  3
   8190   8186   8192   8193     1  0.0000000  0.6973333  3
   8191   8186   8172   8194     1  0.0000000  1.0460000  1
   8191   8186   8172   8194     1  0.0000000  0.0000000  3
   8191   8186   8192   8193     1  0.0000000  0.6973333  3
   8195   8196   8199   8203     1  0.0000000  0.6508444  3
   8195   8196   8208   8211     1  0.0000000  1.0460000  1
   8195   8196   8208   8211     1  0.0000000  0.6694400  3
   8195   8209   8215   8216     1  0.0000000  1.0460000  1
   8195   8209   8215   8216     1  0.0000000  0.6694400  3
   8195   8217   8201   8204     1  0.0000000  1.6038667  3
   8196   8199   8200   8202     1  0.0000000  0.6508444  3
   8196   8199   8207   8210     1  0.0000000  1.0460000  1
   8196   8199   8207   8210     1  0.0000000  0.6694400  3
   8196   8195   8209   8213     1  0.0000000  0.6508444  3
   8196   8195   8209   8214     1  0.0000000  0.6508444  3
   8197   8195   8196   8199     1  0.0000000  0.6508444  3
   8197   8195   8196   8208     1  0.0000000  1.0460000  1
   8197   8195   8196   8208     1  0.0000000  0.0000000  3
   8197   8195   8196   8198     1  0.0000000  0.6508444  3
   8197   8195   8209   8215     1  0.0000000  1.0460000  1
   8197   8195   8209   8215     1  0.0000000  0.0000000  3
   8197   8195   8209   8213     1  0.0000000  0.6508444  3
   8197   8195   8209   8214     1  0.0000000  0.6508444  3
   8197   8195   8217   8201     1  0.0000000  1.6038667  3
   8198   8196   8199   8200     1  0.0000000  0.6508444  3
   8198   8196   8199   8207     1  0.0000000  1.0460000  1
   8198   8196   8199   8207     1  0.0000000  0.0000000  3
   8198   8196   8199   8203     1  0.0000000  0.6508444  3
   8198   8196   8208   8211     1  0.0000000  0.6973333  3
   8198   8196   8195   8209     1  0.0000000  0.6508444  3
   8198   8196   8195   8217     1  0.0000000  1.0460000  1
   8198   8196   8195   8217     1  0.0000000  0.0000000  3
   8199   8200   8201   8204     1  0.0000000  0.6508444  3
   8199   8200   8206   8212     1  0.0000000  1.0460000  1
   8199   8200   8206   8212     1  0.0000000  0.6694400  3
   8199   8196   8208   8211     1  0.0000000  1.0460000  1
   8199   8196   8208   8211     1  0.0000000  0.6694400  3
   8200   8199   8207   8210     1  0.0000000  1.0460000  1
   8200   8199   8207   8210     1  0.0000000  0.6694400  3
   8201   8200   8206   8212     1  0.0000000  1.0460000  1
   8201   8200   8206   8212     1  0.0000000  0.6694400  3
   8201   8200   8199   8203     1  0.0000000  0.6508444  3
   8202   8200   8201   8205     1  0.0000000  1.0460000  1
   8202   8200   8201   8205     1  0.0000000  0.0000000  3
   8202   8200   8201   8217     1  0.0000000  1.0460000  1
   8202   8200   8201   8217     1  0.0000000  0.0000000  3
   8202   8200   8201   8204     1  0.0000000  0.6508444  3
   8202   8200   8206   8212     1  0.0000000  0.6973333  3
   8202   8200   8199   8207     1  0.0000000  1.0460000  1
   8202   8200   8199   8207     1  0.0000000  0.0000000  3
   8202   8200   8199   8203     1  0.0000000  0.6508444  3
   8203   8199   8200   8206     1  0.0000000  1.0460000  1
   8203   8199   8200   8206     1  0.0000000  0.0000000  3
   8203   8199   8207   8210     1  0.0000000  0.6973333  3
   8203   8199   8196   8208     1  0.0000000  1.0460000  1
   8203   8199   8196   8208     1  0.0000000  0.0000000  3
   8204   8201   8200   8206     1  0.0000000  0.6508444  3
   8213   8209   8215   8216     1  0.0000000  0.6973333  3
   8213   8209   8195   8217     1  0.0000000  1.0460000  1
   8213   8209   8195   8217     1  0.0000000  0.0000000  3
   8214   8209   8215   8216     1  0.0000000  0.6973333  3
   8214   8209   8195   8217     1  0.0000000  1.0460000  1
   8214   8209   8195   8217     1  0.0000000  0.0000000  3
   8218   8219   8222   8226     1  0.0000000  0.6508444  3
   8218   8219   8231   8234     1  0.0000000  1.0460000  1
   8218   8219   8231   8234     1  0.0000000  0.6694400  3
   8218   8232   8238   8239     1  0.0000000  1.0460000  1
   8218   8232   8238   8239     1  0.0000000  0.6694400  3
   8218   8240   8224   8227     1  0.0000000  1.6038667  3
   8219   8218   8232   8236     1  0.0000000  0.6508444  3
   8219   8218   8232   8237     1  0.0000000  0.6508444  3
   8219   8222   8223   8225     1  0.0000000  0.6508444  3
   8219   8222   8230   8233     1  0.0000000  1.0460000  1
   8219   8222   8230   8233     1  0.0000000  0.6694400  3
   8220   8218   8219   8222     1  0.0000000  0.6508444  3
   8220   8218   8219   8231     1  0.0000000  1.0460000  1
   8220   8218   8219   8231     1  0.0000000  0.0000000  3
   8220   8218   8219   8221     1  0.0000000  0.6508444  3
   8220   8218   8232   8238     1  0.0000000  1.0460000  1
   8220   8218   8232   8238     1  0.0000000  0.0000000  3
   8220   8218   8232   8236     1  0.0000000  0.6508444  3
   8220   8218   8232   8237     1  0.0000000  0.6508444  3
   8220   8218   8240   8224     1  0.0000000  1.6038667  3
   8221   8219   8218   8232     1  0.0000000  0.6508444  3
   8221   8219   8218   8240     1  0.0000000  1.0460000  1
   8221   8219   8218   8240     1  0.0000000  0.0000000  3
   8221   8219   8222   8223     1  0.0000000  0.6508444  3
   8221   8219   8222   8230     1  0.0000000  1.0460000  1
   8221   8219   8222   8230     1  0.0000000  0.0000000  3
   8221   8219   8222   8226     1  0.0000000  0.6508444  3
   8221   8219   8231   8234     1  0.0000000  0.6973333  3
   8222   8219   8231   8234     1  0.0000000  1.0460000  1
   8222   8219   8231   8234     1  0.0000000  0.6694400  3
   8222   8223   8224   8227     1  0.0000000  0.6508444  3
   8222   8223   8229   8235     1  0.0000000  1.0460000  1
   8222   8223   8229   8235     1  0.0000000  0.6694400  3
   8223   8222   8230   8233     1  0.0000000  1.0460000  1
   8223   8222   8230   8233     1  0.0000000  0.6694400  3
   8224   8223   8222   8226     1  0.0000000  0.6508444  3
   8224   8223   8229   8235     1  0.0000000  1.0460000  1
   8224   8223   8229   8235     1  0.0000000  0.6694400  3
   8225   8223   8222   8230     1  0.0000000  1.0460000  1
   8225   8223   8222   8230     1  0.0000000  0.0000000  3
   8225   8223   8222   8226     1  0.0000000  0.6508444  3
   8225   8223   8224   8228     1  0.0000000  1.0460000  1
   8225   8223   8224   8228     1  0.0000000  0.0000000  3
   8225   8223   8224   8240     1  0.0000000  1.0460000  1
   8225   8223   8224   8240     1  0.0000000  0.0000000  3
   8225   8223   8224   8227     1  0.0000000  0.6508444  3
   8225   8223   8229   8235     1  0.0000000  0.6973333  3
   8226   8222   8219   8231     1  0.0000000  1.0460000  1
   8226   8222   8219   8231     1  0.0000000  0.0000000  3
   8226   8222   8223   8229     1  0.0000000  1.0460000  1
   8226   8222   8223   8229     1  0.0000000  0.0000000  3
   8226   8222   8230   8233     1  0.0000000  0.6973333  3
   8227   8224   8223   8229     1  0.0000000  0.6508444  3
   8236   8232   8218   8240     1  0.0000000  1.0460000  1
   8236   8232   8218   8240     1  0.0000000  0.0000000  3
   8236   8232   8238   8239     1  0.0000000  0.6973333  3
   8237   8232   8218   8240     1  0.0000000  1.0460000  1
   8237   8232   8218   8240     1  0.0000000  0.0000000  3
   8237   8232   8238   8239     1  0.0000000  0.6973333  3
   8241   8242   8245   8249     1  0.0000000  0.6508444  3
   8241   8242   8254   8257     1  0.0000000  1.0460000  1
   8241   8242   8254   8257     1  0.0000000  0.6694400  3
   8241   8255   8261   8262     1  0.0000000  1.0460000  1
   8241   8255   8261   8262     1  0.0000000  0.6694400  3
   8241   8263   8247   8250     1  0.0000000  1.6038667  3
   8242   8245   8246   8248     1  0.0000000  0.6508444  3
   8242   8245   8253   8256     1  0.0000000  1.0460000  1
   8242   8245   8253   8256     1  0.0000000  0.6694400  3
   8242   8241   8255   8259     1  0.0000000  0.6508444  3
   8242   8241   8255   8260     1  0.0000000  0.6508444  3
   8243   8241   8242   8245     1  0.0000000  0.6508444  3
   8243   8241   8242   8254     1  0.0000000  1.0460000  1
   8243   8241   8242   8254     1  0.0000000  0.0000000  3
   8243   8241   8242   8244     1  0.0000000  0.6508444  3
   8243   8241   8255   8261     1  0.0000000  1.0460000  1
   8243   8241   8255   8261     1  0.0000000  0.0000000  3
   8243   8241   8255   8259     1  0.0000000  0.6508444  3
   8243   8241   8255   8260     1  0.0000000  0.6508444  3
   8243   8241   8263   8247     1  0.0000000  1.6038667  3
   8244   8242   8245   8246     1  0.0000000  0.6508444  3
   8244   8242   8245   8253     1  0.0000000  1.0460000  1
   8244   8242   8245   8253     1  0.0000000  0.0000000  3
   8244   8242   8245   8249     1  0.0000000  0.6508444  3
   8244   8242   8254   8257     1  0.0000000  0.6973333  3
   8244   8242   8241   8255     1  0.0000000  0.6508444  3
   8244   8242   8241   8263     1  0.0000000  1.0460000  1
   8244   8242   8241   8263     1  0.0000000  0.0000000  3
   8245   8246   8247   8250     1  0.0000000  0.6508444  3
   8245   8246   8252   8258     1  0.0000000  1.0460000  1
   8245   8246   8252   8258     1  0.0000000  0.6694400  3
   8245   8242   8254   8257     1  0.0000000  1.0460000  1
   8245   8242   8254   8257     1  0.0000000  0.6694400  3
   8246   8245   8253   8256     1  0.0000000  1.0460000  1
   8246   8245   8253   8256     1  0.0000000  0.6694400  3
   8247   8246   8252   8258     1  0.0000000  1.0460000  1
   8247   8246   8252   8258     1  0.0000000  0.6694400  3
   8247   8246   8245   8249     1  0.0000000  0.6508444  3
   8248   8246   8247   8251     1  0.0000000  1.0460000  1
   8248   8246   8247   8251     1  0.0000000  0.0000000  3
   8248   8246   8247   8263     1  0.0000000  1.0460000  1
   8248   8246   8247   8263     1  0.0000000  0.0000000  3
   8248   8246   8247   8250     1  0.0000000  0.6508444  3
   8248   8246   8252   8258     1  0.0000000  0.6973333  3
   8248   8246   8245   8253     1  0.0000000  1.0460000  1
   8248   8246   8245   8253     1  0.0000000  0.0000000  3
   8248   8246   8245   8249     1  0.0000000  0.6508444  3
   8249   8245   8246   8252     1  0.0000000  1.0460000  1
   8249   8245   8246   8252     1  0.0000000  0.0000000  3
   8249   8245   8253   8256     1  0.0000000  0.6973333  3
   8249   8245   8242   8254     1  0.0000000  1.0460000  1
   8249   8245   8242   8254     1  0.0000000  0.0000000  3
   8250   8247   8246   8252     1  0.0000000  0.6508444  3
   8259   8255   8261   8262     1  0.0000000  0.6973333  3
   8259   8255   8241   8263     1  0.0000000  1.0460000  1
   8259   8255   8241   8263     1  0.0000000  0.0000000  3
   8260   8255   8261   8262     1  0.0000000  0.6973333  3
   8260   8255   8241   8263     1  0.0000000  1.0460000  1
   8260   8255   8241   8263     1  0.0000000  0.0000000  3
   8264   8265   8268   8272     1  0.0000000  0.6508444  3
   8264   8265   8277   8280     1  0.0000000  1.0460000  1
   8264   8265   8277   8280     1  0.0000000  0.6694400  3
   8264   8278   8284   8285     1  0.0000000  1.0460000  1
   8264   8278   8284   8285     1  0.0000000  0.6694400  3
   8264   8286   8270   8273     1  0.0000000  1.6038667  3
   8265   8264   8278   8282     1  0.0000000  0.6508444  3
   8265   8264   8278   8283     1  0.0000000  0.6508444  3
   8265   8268   8269   8271     1  0.0000000  0.6508444  3
   8265   8268   8276   8279     1  0.0000000  1.0460000  1
   8265   8268   8276   8279     1  0.0000000  0.6694400  3
   8266   8264   8265   8268     1  0.0000000  0.6508444  3
   8266   8264   8265   8277     1  0.0000000  1.0460000  1
   8266   8264   8265   8277     1  0.0000000  0.0000000  3
   8266   8264   8265   8267     1  0.0000000  0.6508444  3
   8266   8264   8278   8284     1  0.0000000  1.0460000  1
   8266   8264   8278   8284     1  0.0000000  0.0000000  3
   8266   8264   8278   8282     1  0.0000000  0.6508444  3
   8266   8264   8278   8283     1  0.0000000  0.6508444  3
   8266   8264   8286   8270     1  0.0000000  1.6038667  3
   8267   8265   8264   8278     1  0.0000000  0.6508444  3
   8267   8265   8264   8286     1  0.0000000  1.0460000  1
   8267   8265   8264   8286     1  0.0000000  0.0000000  3
   8267   8265   8268   8269     1  0.0000000  0.6508444  3
   8267   8265   8268   8276     1  0.0000000  1.0460000  1
   8267   8265   8268   8276     1  0.0000000  0.0000000  3
   8267   8265   8268   8272     1  0.0000000  0.6508444  3
   8267   8265   8277   8280     1  0.0000000  0.6973333  3
   8268   8265   8277   8280     1  0.0000000  1.0460000  1
   8268   8265   8277   8280     1  0.0000000  0.6694400  3
   8268   8269   8270   8273     1  0.0000000  0.6508444  3
   8268   8269   8275   8281     1  0.0000000  1.0460000  1
   8268   8269   8275   8281     1  0.0000000  0.6694400  3
   8269   8268   8276   8279     1  0.0000000  1.0460000  1
   8269   8268   8276   8279     1  0.0000000  0.6694400  3
   8270   8269   8268   8272     1  0.0000000  0.6508444  3
   8270   8269   8275   8281     1  0.0000000  1.0460000  1
   8270   8269   8275   8281     1  0.0000000  0.6694400  3
   8271   8269   8268   8276     1  0.0000000  1.0460000  1
   8271   8269   8268   8276     1  0.0000000  0.0000000  3
   8271   8269   8268   8272     1  0.0000000  0.6508444  3
   8271   8269   8270   8274     1  0.0000000  1.0460000  1
   8271   8269   8270   8274     1  0.0000000  0.0000000  3
   8271   8269   8270   8286     1  0.0000000  1.0460000  1
   8271   8269   8270   8286     1  0.0000000  0.0000000  3
   8271   8269   8270   8273     1  0.0000000  0.6508444  3
   8271   8269   8275   8281     1  0.0000000  0.6973333  3
   8272   8268   8265   8277     1  0.0000000  1.0460000  1
   8272   8268   8265   8277     1  0.0000000  0.0000000  3
   8272   8268   8269   8275     1  0.0000000  1.0460000  1
   8272   8268   8269   8275     1  0.0000000  0.0000000  3
   8272   8268   8276   8279     1  0.0000000  0.6973333  3
   8273   8270   8269   8275     1  0.0000000  0.6508444  3
   8282   8278   8264   8286     1  0.0000000  1.0460000  1
   8282   8278   8264   8286     1  0.0000000  0.0000000  3
   8282   8278   8284   8285     1  0.0000000  0.6973333  3
   8283   8278   8264   8286     1  0.0000000  1.0460000  1
   8283   8278   8264   8286     1  0.0000000  0.0000000  3
   8283   8278   8284   8285     1  0.0000000  0.6973333  3
   8287   8288   8291   8295     1  0.0000000  0.6508444  3
   8287   8288   8300   8303     1  0.0000000  1.0460000  1
   8287   8288   8300   8303     1  0.0000000  0.6694400  3
   8287   8301   8307   8308     1  0.0000000  1.0460000  1
   8287   8301   8307   8308     1  0.0000000  0.6694400  3
   8287   8309   8293   8296     1  0.0000000  1.6038667  3
   8288   8291   8292   8294     1  0.0000000  0.6508444  3
   8288   8291   8299   8302     1  0.0000000  1.0460000  1
   8288   8291   8299   8302     1  0.0000000  0.6694400  3
   8288   8287   8301   8305     1  0.0000000  0.6508444  3
   8288   8287   8301   8306     1  0.0000000  0.6508444  3
   8289   8287   8288   8291     1  0.0000000  0.6508444  3
   8289   8287   8288   8300     1  0.0000000  1.0460000  1
   8289   8287   8288   8300     1  0.0000000  0.0000000  3
   8289   8287   8288   8290     1  0.0000000  0.6508444  3
   8289   8287   8301   8307     1  0.0000000  1.0460000  1
   8289   8287   8301   8307     1  0.0000000  0.0000000  3
   8289   8287   8301   8305     1  0.0000000  0.6508444  3
   8289   8287   8301   8306     1  0.0000000  0.6508444  3
   8289   8287   8309   8293     1  0.0000000  1.6038667  3
   8290   8288   8291   8292     1  0.0000000  0.6508444  3
   8290   8288   8291   8299     1  0.0000000  1.0460000  1
   8290   8288   8291   8299     1  0.0000000  0.0000000  3
   8290   8288   8291   8295     1  0.0000000  0.6508444  3
   8290   8288   8300   8303     1  0.0000000  0.6973333  3
   8290   8288   8287   8301     1  0.0000000  0.6508444  3
   8290   8288   8287   8309     1  0.0000000  1.0460000  1
   8290   8288   8287   8309     1  0.0000000  0.0000000  3
   8291   8292   8293   8296     1  0.0000000  0.6508444  3
   8291   8292   8298   8304     1  0.0000000  1.0460000  1
   8291   8292   8298   8304     1  0.0000000  0.6694400  3
   8291   8288   8300   8303     1  0.0000000  1.0460000  1
   8291   8288   8300   8303     1  0.0000000  0.6694400  3
   8292   8291   8299   8302     1  0.0000000  1.0460000  1
   8292   8291   8299   8302     1  0.0000000  0.6694400  3
   8293   8292   8298   8304     1  0.0000000  1.0460000  1
   8293   8292   8298   8304     1  0.0000000  0.6694400  3
   8293   8292   8291   8295     1  0.0000000  0.6508444  3
   8294   8292   8293   8297     1  0.0000000  1.0460000  1
   8294   8292   8293   8297     1  0.0000000  0.0000000  3
   8294   8292   8293   8309     1  0.0000000  1.0460000  1
   8294   8292   8293   8309     1  0.0000000  0.0000000  3
   8294   8292   8293   8296     1  0.0000000  0.6508444  3
   8294   8292   8298   8304     1  0.0000000  0.6973333  3
   8294   8292   8291   8299     1  0.0000000  1.0460000  1
   8294   8292   8291   8299     1  0.0000000  0.0000000  3
   8294   8292   8291   8295     1  0.0000000  0.6508444  3
   8295   8291   8292   8298     1  0.0000000  1.0460000  1
   8295   8291   8292   8298     1  0.0000000  0.0000000  3
   8295   8291   8299   8302     1  0.0000000  0.6973333  3
   8295   8291   8288   8300     1  0.0000000  1.0460000  1
   8295   8291   8288   8300     1  0.0000000  0.0000000  3
   8296   8293   8292   8298     1  0.0000000  0.6508444  3
   8305   8301   8307   8308     1  0.0000000  0.6973333  3
   8305   8301   8287   8309     1  0.0000000  1.0460000  1
   8305   8301   8287   8309     1  0.0000000  0.0000000  3
   8306   8301   8307   8308     1  0.0000000  0.6973333  3
   8306   8301   8287   8309     1  0.0000000  1.0460000  1
   8306   8301   8287   8309     1  0.0000000  0.0000000  3
   8310   8311   8314   8318     1  0.0000000  0.6508444  3
   8310   8311   8323   8326     1  0.0000000  1.0460000  1
   8310   8311   8323   8326     1  0.0000000  0.6694400  3
   8310   8324   8330   8331     1  0.0000000  1.0460000  1
   8310   8324   8330   8331     1  0.0000000  0.6694400  3
   8310   8332   8316   8319     1  0.0000000  1.6038667  3
   8311   8310   8324   8328     1  0.0000000  0.6508444  3
   8311   8310   8324   8329     1  0.0000000  0.6508444  3
   8311   8314   8315   8317     1  0.0000000  0.6508444  3
   8311   8314   8322   8325     1  0.0000000  1.0460000  1
   8311   8314   8322   8325     1  0.0000000  0.6694400  3
   8312   8310   8311   8314     1  0.0000000  0.6508444  3
   8312   8310   8311   8323     1  0.0000000  1.0460000  1
   8312   8310   8311   8323     1  0.0000000  0.0000000  3
   8312   8310   8311   8313     1  0.0000000  0.6508444  3
   8312   8310   8324   8330     1  0.0000000  1.0460000  1
   8312   8310   8324   8330     1  0.0000000  0.0000000  3
   8312   8310   8324   8328     1  0.0000000  0.6508444  3
   8312   8310   8324   8329     1  0.0000000  0.6508444  3
   8312   8310   8332   8316     1  0.0000000  1.6038667  3
   8313   8311   8310   8324     1  0.0000000  0.6508444  3
   8313   8311   8310   8332     1  0.0000000  1.0460000  1
   8313   8311   8310   8332     1  0.0000000  0.0000000  3
   8313   8311   8314   8315     1  0.0000000  0.6508444  3
   8313   8311   8314   8322     1  0.0000000  1.0460000  1
   8313   8311   8314   8322     1  0.0000000  0.0000000  3
   8313   8311   8314   8318     1  0.0000000  0.6508444  3
   8313   8311   8323   8326     1  0.0000000  0.6973333  3
   8314   8311   8323   8326     1  0.0000000  1.0460000  1
   8314   8311   8323   8326     1  0.0000000  0.6694400  3
   8314   8315   8316   8319     1  0.0000000  0.6508444  3
   8314   8315   8321   8327     1  0.0000000  1.0460000  1
   8314   8315   8321   8327     1  0.0000000  0.6694400  3
   8315   8314   8322   8325     1  0.0000000  1.0460000  1
   8315   8314   8322   8325     1  0.0000000  0.6694400  3
   8316   8315   8314   8318     1  0.0000000  0.6508444  3
   8316   8315   8321   8327     1  0.0000000  1.0460000  1
   8316   8315   8321   8327     1  0.0000000  0.6694400  3
   8317   8315   8314   8322     1  0.0000000  1.0460000  1
   8317   8315   8314   8322     1  0.0000000  0.0000000  3
   8317   8315   8314   8318     1  0.0000000  0.6508444  3
   8317   8315   8316   8320     1  0.0000000  1.0460000  1
   8317   8315   8316   8320     1  0.0000000  0.0000000  3
   8317   8315   8316   8332     1  0.0000000  1.0460000  1
   8317   8315   8316   8332     1  0.0000000  0.0000000  3
   8317   8315   8316   8319     1  0.0000000  0.6508444  3
   8317   8315   8321   8327     1  0.0000000  0.6973333  3
   8318   8314   8311   8323     1  0.0000000  1.0460000  1
   8318   8314   8311   8323     1  0.0000000  0.0000000  3
   8318   8314   8315   8321     1  0.0000000  1.0460000  1
   8318   8314   8315   8321     1  0.0000000  0.0000000  3
   8318   8314   8322   8325     1  0.0000000  0.6973333  3
   8319   8316   8315   8321     1  0.0000000  0.6508444  3
   8328   8324   8310   8332     1  0.0000000  1.0460000  1
   8328   8324   8310   8332     1  0.0000000  0.0000000  3
   8328   8324   8330   8331     1  0.0000000  0.6973333  3
   8329   8324   8310   8332     1  0.0000000  1.0460000  1
   8329   8324   8310   8332     1  0.0000000  0.0000000  3
   8329   8324   8330   8331     1  0.0000000  0.6973333  3
   8333   8334   8337   8341     1  0.0000000  0.6508444  3
   8333   8334   8346   8349     1  0.0000000  1.0460000  1
   8333   8334   8346   8349     1  0.0000000  0.6694400  3
   8333   8347   8353   8354     1  0.0000000  1.0460000  1
   8333   8347   8353   8354     1  0.0000000  0.6694400  3
   8333   8355   8339   8342     1  0.0000000  1.6038667  3
   8334   8337   8338   8340     1  0.0000000  0.6508444  3
   8334   8337   8345   8348     1  0.0000000  1.0460000  1
   8334   8337   8345   8348     1  0.0000000  0.6694400  3
   8334   8333   8347   8351     1  0.0000000  0.6508444  3
   8334   8333   8347   8352     1  0.0000000  0.6508444  3
   8335   8333   8334   8337     1  0.0000000  0.6508444  3
   8335   8333   8334   8346     1  0.0000000  1.0460000  1
   8335   8333   8334   8346     1  0.0000000  0.0000000  3
   8335   8333   8334   8336     1  0.0000000  0.6508444  3
   8335   8333   8347   8353     1  0.0000000  1.0460000  1
   8335   8333   8347   8353     1  0.0000000  0.0000000  3
   8335   8333   8347   8351     1  0.0000000  0.6508444  3
   8335   8333   8347   8352     1  0.0000000  0.6508444  3
   8335   8333   8355   8339     1  0.0000000  1.6038667  3
   8336   8334   8337   8338     1  0.0000000  0.6508444  3
   8336   8334   8337   8345     1  0.0000000  1.0460000  1
   8336   8334   8337   8345     1  0.0000000  0.0000000  3
   8336   8334   8337   8341     1  0.0000000  0.6508444  3
   8336   8334   8346   8349     1  0.0000000  0.6973333  3
   8336   8334   8333   8347     1  0.0000000  0.6508444  3
   8336   8334   8333   8355     1  0.0000000  1.0460000  1
   8336   8334   8333   8355     1  0.0000000  0.0000000  3
   8337   8338   8339   8342     1  0.0000000  0.6508444  3
   8337   8338   8344   8350     1  0.0000000  1.0460000  1
   8337   8338   8344   8350     1  0.0000000  0.6694400  3
   8337   8334   8346   8349     1  0.0000000  1.0460000  1
   8337   8334   8346   8349     1  0.0000000  0.6694400  3
   8338   8337   8345   8348     1  0.0000000  1.0460000  1
   8338   8337   8345   8348     1  0.0000000  0.6694400  3
   8339   8338   8344   8350     1  0.0000000  1.0460000  1
   8339   8338   8344   8350     1  0.0000000  0.6694400  3
   8339   8338   8337   8341     1  0.0000000  0.6508444  3
   8340   8338   8339   8343     1  0.0000000  1.0460000  1
   8340   8338   8339   8343     1  0.0000000  0.0000000  3
   8340   8338   8339   8355     1  0.0000000  1.0460000  1
   8340   8338   8339   8355     1  0.0000000  0.0000000  3
   8340   8338   8339   8342     1  0.0000000  0.6508444  3
   8340   8338   8344   8350     1  0.0000000  0.6973333  3
   8340   8338   8337   8345     1  0.0000000  1.0460000  1
   8340   8338   8337   8345     1  0.0000000  0.0000000  3
   8340   8338   8337   8341     1  0.0000000  0.6508444  3
   8341   8337   8338   8344     1  0.0000000  1.0460000  1
   8341   8337   8338   8344     1  0.0000000  0.0000000  3
   8341   8337   8345   8348     1  0.0000000  0.6973333  3
   8341   8337   8334   8346     1  0.0000000  1.0460000  1
   8341   8337   8334   8346     1  0.0000000  0.0000000  3
   8342   8339   8338   8344     1  0.0000000  0.6508444  3
   8351   8347   8353   8354     1  0.0000000  0.6973333  3
   8351   8347   8333   8355     1  0.0000000  1.0460000  1
   8351   8347   8333   8355     1  0.0000000  0.0000000  3
   8352   8347   8353   8354     1  0.0000000  0.6973333  3
   8352   8347   8333   8355     1  0.0000000  1.0460000  1
   8352   8347   8333   8355     1  0.0000000  0.0000000  3
   8356   8357   8360   8364     1  0.0000000  0.6508444  3
   8356   8357   8369   8372     1  0.0000000  1.0460000  1
   8356   8357   8369   8372     1  0.0000000  0.6694400  3
   8356   8370   8376   8377     1  0.0000000  1.0460000  1
   8356   8370   8376   8377     1  0.0000000  0.6694400  3
   8356   8378   8362   8365     1  0.0000000  1.6038667  3
   8357   8356   8370   8374     1  0.0000000  0.6508444  3
   8357   8356   8370   8375     1  0.0000000  0.6508444  3
   8357   8360   8361   8363     1  0.0000000  0.6508444  3
   8357   8360   8368   8371     1  0.0000000  1.0460000  1
   8357   8360   8368   8371     1  0.0000000  0.6694400  3
   8358   8356   8357   8360     1  0.0000000  0.6508444  3
   8358   8356   8357   8369     1  0.0000000  1.0460000  1
   8358   8356   8357   8369     1  0.0000000  0.0000000  3
   8358   8356   8357   8359     1  0.0000000  0.6508444  3
   8358   8356   8370   8376     1  0.0000000  1.0460000  1
   8358   8356   8370   8376     1  0.0000000  0.0000000  3
   8358   8356   8370   8374     1  0.0000000  0.6508444  3
   8358   8356   8370   8375     1  0.0000000  0.6508444  3
   8358   8356   8378   8362     1  0.0000000  1.6038667  3
   8359   8357   8356   8370     1  0.0000000  0.6508444  3
   8359   8357   8356   8378     1  0.0000000  1.0460000  1
   8359   8357   8356   8378     1  0.0000000  0.0000000  3
   8359   8357   8360   8361     1  0.0000000  0.6508444  3
   8359   8357   8360   8368     1  0.0000000  1.0460000  1
   8359   8357   8360   8368     1  0.0000000  0.0000000  3
   8359   8357   8360   8364     1  0.0000000  0.6508444  3
   8359   8357   8369   8372     1  0.0000000  0.6973333  3
   8360   8357   8369   8372     1  0.0000000  1.0460000  1
   8360   8357   8369   8372     1  0.0000000  0.6694400  3
   8360   8361   8362   8365     1  0.0000000  0.6508444  3
   8360   8361   8367   8373     1  0.0000000  1.0460000  1
   8360   8361   8367   8373     1  0.0000000  0.6694400  3
   8361   8360   8368   8371     1  0.0000000  1.0460000  1
   8361   8360   8368   8371     1  0.0000000  0.6694400  3
   8362   8361   8360   8364     1  0.0000000  0.6508444  3
   8362   8361   8367   8373     1  0.0000000  1.0460000  1
   8362   8361   8367   8373     1  0.0000000  0.6694400  3
   8363   8361   8360   8368     1  0.0000000  1.0460000  1
   8363   8361   8360   8368     1  0.0000000  0.0000000  3
   8363   8361   8360   8364     1  0.0000000  0.6508444  3
   8363   8361   8362   8366     1  0.0000000  1.0460000  1
   8363   8361   8362   8366     1  0.0000000  0.0000000  3
   8363   8361   8362   8378     1  0.0000000  1.0460000  1
   8363   8361   8362   8378     1  0.0000000  0.0000000  3
   8363   8361   8362   8365     1  0.0000000  0.6508444  3
   8363   8361   8367   8373     1  0.0000000  0.6973333  3
   8364   8360   8357   8369     1  0.0000000  1.0460000  1
   8364   8360   8357   8369     1  0.0000000  0.0000000  3
   8364   8360   8361   8367     1  0.0000000  1.0460000  1
   8364   8360   8361   8367     1  0.0000000  0.0000000  3
   8364   8360   8368   8371     1  0.0000000  0.6973333  3
   8365   8362   8361   8367     1  0.0000000  0.6508444  3
   8374   8370   8356   8378     1  0.0000000  1.0460000  1
   8374   8370   8356   8378     1  0.0000000  0.0000000  3
   8374   8370   8376   8377     1  0.0000000  0.6973333  3
   8375   8370   8356   8378     1  0.0000000  1.0460000  1
   8375   8370   8356   8378     1  0.0000000  0.0000000  3
   8375   8370   8376   8377     1  0.0000000  0.6973333  3
   8379   8380   8383   8387     1  0.0000000  0.6508444  3
   8379   8380   8392   8395     1  0.0000000  1.0460000  1
   8379   8380   8392   8395     1  0.0000000  0.6694400  3
   8379   8393   8399   8400     1  0.0000000  1.0460000  1
   8379   8393   8399   8400     1  0.0000000  0.6694400  3
   8379   8401   8385   8388     1  0.0000000  1.6038667  3
   8380   8383   8384   8386     1  0.0000000  0.6508444  3
   8380   8383   8391   8394     1  0.0000000  1.0460000  1
   8380   8383   8391   8394     1  0.0000000  0.6694400  3
   8380   8379   8393   8397     1  0.0000000  0.6508444  3
   8380   8379   8393   8398     1  0.0000000  0.6508444  3
   8381   8379   8380   8383     1  0.0000000  0.6508444  3
   8381   8379   8380   8392     1  0.0000000  1.0460000  1
   8381   8379   8380   8392     1  0.0000000  0.0000000  3
   8381   8379   8380   8382     1  0.0000000  0.6508444  3
   8381   8379   8393   8399     1  0.0000000  1.0460000  1
   8381   8379   8393   8399     1  0.0000000  0.0000000  3
   8381   8379   8393   8397     1  0.0000000  0.6508444  3
   8381   8379   8393   8398     1  0.0000000  0.6508444  3
   8381   8379   8401   8385     1  0.0000000  1.6038667  3
   8382   8380   8383   8384     1  0.0000000  0.6508444  3
   8382   8380   8383   8391     1  0.0000000  1.0460000  1
   8382   8380   8383   8391     1  0.0000000  0.0000000  3
   8382   8380   8383   8387     1  0.0000000  0.6508444  3
   8382   8380   8392   8395     1  0.0000000  0.6973333  3
   8382   8380   8379   8393     1  0.0000000  0.6508444  3
   8382   8380   8379   8401     1  0.0000000  1.0460000  1
   8382   8380   8379   8401     1  0.0000000  0.0000000  3
   8383   8384   8385   8388     1  0.0000000  0.6508444  3
   8383   8384   8390   8396     1  0.0000000  1.0460000  1
   8383   8384   8390   8396     1  0.0000000  0.6694400  3
   8383   8380   8392   8395     1  0.0000000  1.0460000  1
   8383   8380   8392   8395     1  0.0000000  0.6694400  3
   8384   8383   8391   8394     1  0.0000000  1.0460000  1
   8384   8383   8391   8394     1  0.0000000  0.6694400  3
   8385   8384   8390   8396     1  0.0000000  1.0460000  1
   8385   8384   8390   8396     1  0.0000000  0.6694400  3
   8385   8384   8383   8387     1  0.0000000  0.6508444  3
   8386   8384   8385   8389     1  0.0000000  1.0460000  1
   8386   8384   8385   8389     1  0.0000000  0.0000000  3
   8386   8384   8385   8401     1  0.0000000  1.0460000  1
   8386   8384   8385   8401     1  0.0000000  0.0000000  3
   8386   8384   8385   8388     1  0.0000000  0.6508444  3
   8386   8384   8390   8396     1  0.0000000  0.6973333  3
   8386   8384   8383   8391     1  0.0000000  1.0460000  1
   8386   8384   8383   8391     1  0.0000000  0.0000000  3
   8386   8384   8383   8387     1  0.0000000  0.6508444  3
   8387   8383   8384   8390     1  0.0000000  1.0460000  1
   8387   8383   8384   8390     1  0.0000000  0.0000000  3
   8387   8383   8391   8394     1  0.0000000  0.6973333  3
   8387   8383   8380   8392     1  0.0000000  1.0460000  1
   8387   8383   8380   8392     1  0.0000000  0.0000000  3
   8388   8385   8384   8390     1  0.0000000  0.6508444  3
   8397   8393   8399   8400     1  0.0000000  0.6973333  3
   8397   8393   8379   8401     1  0.0000000  1.0460000  1
   8397   8393   8379   8401     1  0.0000000  0.0000000  3
   8398   8393   8399   8400     1  0.0000000  0.6973333  3
   8398   8393   8379   8401     1  0.0000000  1.0460000  1
   8398   8393   8379   8401     1  0.0000000  0.0000000  3
   8402   8403   8406   8410     1  0.0000000  0.6508444  3
   8402   8403   8415   8418     1  0.0000000  1.0460000  1
   8402   8403   8415   8418     1  0.0000000  0.6694400  3
   8402   8416   8422   8423     1  0.0000000  1.0460000  1
   8402   8416   8422   8423     1  0.0000000  0.6694400  3
   8402   8424   8408   8411     1  0.0000000  1.6038667  3
   8403   8402   8416   8420     1  0.0000000  0.6508444  3
   8403   8402   8416   8421     1  0.0000000  0.6508444  3
   8403   8406   8407   8409     1  0.0000000  0.6508444  3
   8403   8406   8414   8417     1  0.0000000  1.0460000  1
   8403   8406   8414   8417     1  0.0000000  0.6694400  3
   8404   8402   8403   8406     1  0.0000000  0.6508444  3
   8404   8402   8403   8415     1  0.0000000  1.0460000  1
   8404   8402   8403   8415     1  0.0000000  0.0000000  3
   8404   8402   8403   8405     1  0.0000000  0.6508444  3
   8404   8402   8416   8422     1  0.0000000  1.0460000  1
   8404   8402   8416   8422     1  0.0000000  0.0000000  3
   8404   8402   8416   8420     1  0.0000000  0.6508444  3
   8404   8402   8416   8421     1  0.0000000  0.6508444  3
   8404   8402   8424   8408     1  0.0000000  1.6038667  3
   8405   8403   8402   8416     1  0.0000000  0.6508444  3
   8405   8403   8402   8424     1  0.0000000  1.0460000  1
   8405   8403   8402   8424     1  0.0000000  0.0000000  3
   8405   8403   8406   8407     1  0.0000000  0.6508444  3
   8405   8403   8406   8414     1  0.0000000  1.0460000  1
   8405   8403   8406   8414     1  0.0000000  0.0000000  3
   8405   8403   8406   8410     1  0.0000000  0.6508444  3
   8405   8403   8415   8418     1  0.0000000  0.6973333  3
   8406   8403   8415   8418     1  0.0000000  1.0460000  1
   8406   8403   8415   8418     1  0.0000000  0.6694400  3
   8406   8407   8408   8411     1  0.0000000  0.6508444  3
   8406   8407   8413   8419     1  0.0000000  1.0460000  1
   8406   8407   8413   8419     1  0.0000000  0.6694400  3
   8407   8406   8414   8417     1  0.0000000  1.0460000  1
   8407   8406   8414   8417     1  0.0000000  0.6694400  3
   8408   8407   8406   8410     1  0.0000000  0.6508444  3
   8408   8407   8413   8419     1  0.0000000  1.0460000  1
   8408   8407   8413   8419     1  0.0000000  0.6694400  3
   8409   8407   8406   8414     1  0.0000000  1.0460000  1
   8409   8407   8406   8414     1  0.0000000  0.0000000  3
   8409   8407   8406   8410     1  0.0000000  0.6508444  3
   8409   8407   8408   8412     1  0.0000000  1.0460000  1
   8409   8407   8408   8412     1  0.0000000  0.0000000  3
   8409   8407   8408   8424     1  0.0000000  1.0460000  1
   8409   8407   8408   8424     1  0.0000000  0.0000000  3
   8409   8407   8408   8411     1  0.0000000  0.6508444  3
   8409   8407   8413   8419     1  0.0000000  0.6973333  3
   8410   8406   8403   8415     1  0.0000000  1.0460000  1
   8410   8406   8403   8415     1  0.0000000  0.0000000  3
   8410   8406   8407   8413     1  0.0000000  1.0460000  1
   8410   8406   8407   8413     1  0.0000000  0.0000000  3
   8410   8406   8414   8417     1  0.0000000  0.6973333  3
   8411   8408   8407   8413     1  0.0000000  0.6508444  3
   8420   8416   8402   8424     1  0.0000000  1.0460000  1
   8420   8416   8402   8424     1  0.0000000  0.0000000  3
   8420   8416   8422   8423     1  0.0000000  0.6973333  3
   8421   8416   8402   8424     1  0.0000000  1.0460000  1
   8421   8416   8402   8424     1  0.0000000  0.0000000  3
   8421   8416   8422   8423     1  0.0000000  0.6973333  3
   8425   8426   8429   8433     1  0.0000000  0.6508444  3
   8425   8426   8438   8441     1  0.0000000  1.0460000  1
   8425   8426   8438   8441     1  0.0000000  0.6694400  3
   8425   8439   8445   8446     1  0.0000000  1.0460000  1
   8425   8439   8445   8446     1  0.0000000  0.6694400  3
   8425   8447   8431   8434     1  0.0000000  1.6038667  3
   8426   8429   8430   8432     1  0.0000000  0.6508444  3
   8426   8429   8437   8440     1  0.0000000  1.0460000  1
   8426   8429   8437   8440     1  0.0000000  0.6694400  3
   8426   8425   8439   8443     1  0.0000000  0.6508444  3
   8426   8425   8439   8444     1  0.0000000  0.6508444  3
   8427   8425   8426   8429     1  0.0000000  0.6508444  3
   8427   8425   8426   8438     1  0.0000000  1.0460000  1
   8427   8425   8426   8438     1  0.0000000  0.0000000  3
   8427   8425   8426   8428     1  0.0000000  0.6508444  3
   8427   8425   8439   8445     1  0.0000000  1.0460000  1
   8427   8425   8439   8445     1  0.0000000  0.0000000  3
   8427   8425   8439   8443     1  0.0000000  0.6508444  3
   8427   8425   8439   8444     1  0.0000000  0.6508444  3
   8427   8425   8447   8431     1  0.0000000  1.6038667  3
   8428   8426   8429   8430     1  0.0000000  0.6508444  3
   8428   8426   8429   8437     1  0.0000000  1.0460000  1
   8428   8426   8429   8437     1  0.0000000  0.0000000  3
   8428   8426   8429   8433     1  0.0000000  0.6508444  3
   8428   8426   8438   8441     1  0.0000000  0.6973333  3
   8428   8426   8425   8439     1  0.0000000  0.6508444  3
   8428   8426   8425   8447     1  0.0000000  1.0460000  1
   8428   8426   8425   8447     1  0.0000000  0.0000000  3
   8429   8430   8431   8434     1  0.0000000  0.6508444  3
   8429   8430   8436   8442     1  0.0000000  1.0460000  1
   8429   8430   8436   8442     1  0.0000000  0.6694400  3
   8429   8426   8438   8441     1  0.0000000  1.0460000  1
   8429   8426   8438   8441     1  0.0000000  0.6694400  3
   8430   8429   8437   8440     1  0.0000000  1.0460000  1
   8430   8429   8437   8440     1  0.0000000  0.6694400  3
   8431   8430   8436   8442     1  0.0000000  1.0460000  1
   8431   8430   8436   8442     1  0.0000000  0.6694400  3
   8431   8430   8429   8433     1  0.0000000  0.6508444  3
   8432   8430   8431   8435     1  0.0000000  1.0460000  1
   8432   8430   8431   8435     1  0.0000000  0.0000000  3
   8432   8430   8431   8447     1  0.0000000  1.0460000  1
   8432   8430   8431   8447     1  0.0000000  0.0000000  3
   8432   8430   8431   8434     1  0.0000000  0.6508444  3
   8432   8430   8436   8442     1  0.0000000  0.6973333  3
   8432   8430   8429   8437     1  0.0000000  1.0460000  1
   8432   8430   8429   8437     1  0.0000000  0.0000000  3
   8432   8430   8429   8433     1  0.0000000  0.6508444  3
   8433   8429   8430   8436     1  0.0000000  1.0460000  1
   8433   8429   8430   8436     1  0.0000000  0.0000000  3
   8433   8429   8437   8440     1  0.0000000  0.6973333  3
   8433   8429   8426   8438     1  0.0000000  1.0460000  1
   8433   8429   8426   8438     1  0.0000000  0.0000000  3
   8434   8431   8430   8436     1  0.0000000  0.6508444  3
   8443   8439   8445   8446     1  0.0000000  0.6973333  3
   8443   8439   8425   8447     1  0.0000000  1.0460000  1
   8443   8439   8425   8447     1  0.0000000  0.0000000  3
   8444   8439   8445   8446     1  0.0000000  0.6973333  3
   8444   8439   8425   8447     1  0.0000000  1.0460000  1
   8444   8439   8425   8447     1  0.0000000  0.0000000  3
   8448   8449   8452   8456     1  0.0000000  0.6508444  3
   8448   8449   8461   8464     1  0.0000000  1.0460000  1
   8448   8449   8461   8464     1  0.0000000  0.6694400  3
   8448   8462   8468   8469     1  0.0000000  1.0460000  1
   8448   8462   8468   8469     1  0.0000000  0.6694400  3
   8448   8470   8454   8457     1  0.0000000  1.6038667  3
   8449   8448   8462   8466     1  0.0000000  0.6508444  3
   8449   8448   8462   8467     1  0.0000000  0.6508444  3
   8449   8452   8453   8455     1  0.0000000  0.6508444  3
   8449   8452   8460   8463     1  0.0000000  1.0460000  1
   8449   8452   8460   8463     1  0.0000000  0.6694400  3
   8450   8448   8449   8452     1  0.0000000  0.6508444  3
   8450   8448   8449   8461     1  0.0000000  1.0460000  1
   8450   8448   8449   8461     1  0.0000000  0.0000000  3
   8450   8448   8449   8451     1  0.0000000  0.6508444  3
   8450   8448   8462   8468     1  0.0000000  1.0460000  1
   8450   8448   8462   8468     1  0.0000000  0.0000000  3
   8450   8448   8462   8466     1  0.0000000  0.6508444  3
   8450   8448   8462   8467     1  0.0000000  0.6508444  3
   8450   8448   8470   8454     1  0.0000000  1.6038667  3
   8451   8449   8448   8462     1  0.0000000  0.6508444  3
   8451   8449   8448   8470     1  0.0000000  1.0460000  1
   8451   8449   8448   8470     1  0.0000000  0.0000000  3
   8451   8449   8452   8453     1  0.0000000  0.6508444  3
   8451   8449   8452   8460     1  0.0000000  1.0460000  1
   8451   8449   8452   8460     1  0.0000000  0.0000000  3
   8451   8449   8452   8456     1  0.0000000  0.6508444  3
   8451   8449   8461   8464     1  0.0000000  0.6973333  3
   8452   8449   8461   8464     1  0.0000000  1.0460000  1
   8452   8449   8461   8464     1  0.0000000  0.6694400  3
   8452   8453   8454   8457     1  0.0000000  0.6508444  3
   8452   8453   8459   8465     1  0.0000000  1.0460000  1
   8452   8453   8459   8465     1  0.0000000  0.6694400  3
   8453   8452   8460   8463     1  0.0000000  1.0460000  1
   8453   8452   8460   8463     1  0.0000000  0.6694400  3
   8454   8453   8452   8456     1  0.0000000  0.6508444  3
   8454   8453   8459   8465     1  0.0000000  1.0460000  1
   8454   8453   8459   8465     1  0.0000000  0.6694400  3
   8455   8453   8452   8460     1  0.0000000  1.0460000  1
   8455   8453   8452   8460     1  0.0000000  0.0000000  3
   8455   8453   8452   8456     1  0.0000000  0.6508444  3
   8455   8453   8454   8458     1  0.0000000  1.0460000  1
   8455   8453   8454   8458     1  0.0000000  0.0000000  3
   8455   8453   8454   8470     1  0.0000000  1.0460000  1
   8455   8453   8454   8470     1  0.0000000  0.0000000  3
   8455   8453   8454   8457     1  0.0000000  0.6508444  3
   8455   8453   8459   8465     1  0.0000000  0.6973333  3
   8456   8452   8449   8461     1  0.0000000  1.0460000  1
   8456   8452   8449   8461     1  0.0000000  0.0000000  3
   8456   8452   8453   8459     1  0.0000000  1.0460000  1
   8456   8452   8453   8459     1  0.0000000  0.0000000  3
   8456   8452   8460   8463     1  0.0000000  0.6973333  3
   8457   8454   8453   8459     1  0.0000000  0.6508444  3
   8466   8462   8448   8470     1  0.0000000  1.0460000  1
   8466   8462   8448   8470     1  0.0000000  0.0000000  3
   8466   8462   8468   8469     1  0.0000000  0.6973333  3
   8467   8462   8448   8470     1  0.0000000  1.0460000  1
   8467   8462   8448   8470     1  0.0000000  0.0000000  3
   8467   8462   8468   8469     1  0.0000000  0.6973333  3
   8471   8472   8475   8479     1  0.0000000  0.6508444  3
   8471   8472   8484   8487     1  0.0000000  1.0460000  1
   8471   8472   8484   8487     1  0.0000000  0.6694400  3
   8471   8485   8491   8492     1  0.0000000  1.0460000  1
   8471   8485   8491   8492     1  0.0000000  0.6694400  3
   8471   8493   8477   8480     1  0.0000000  1.6038667  3
   8472   8475   8476   8478     1  0.0000000  0.6508444  3
   8472   8475   8483   8486     1  0.0000000  1.0460000  1
   8472   8475   8483   8486     1  0.0000000  0.6694400  3
   8472   8471   8485   8489     1  0.0000000  0.6508444  3
   8472   8471   8485   8490     1  0.0000000  0.6508444  3
   8473   8471   8472   8475     1  0.0000000  0.6508444  3
   8473   8471   8472   8484     1  0.0000000  1.0460000  1
   8473   8471   8472   8484     1  0.0000000  0.0000000  3
   8473   8471   8472   8474     1  0.0000000  0.6508444  3
   8473   8471   8485   8491     1  0.0000000  1.0460000  1
   8473   8471   8485   8491     1  0.0000000  0.0000000  3
   8473   8471   8485   8489     1  0.0000000  0.6508444  3
   8473   8471   8485   8490     1  0.0000000  0.6508444  3
   8473   8471   8493   8477     1  0.0000000  1.6038667  3
   8474   8472   8475   8476     1  0.0000000  0.6508444  3
   8474   8472   8475   8483     1  0.0000000  1.0460000  1
   8474   8472   8475   8483     1  0.0000000  0.0000000  3
   8474   8472   8475   8479     1  0.0000000  0.6508444  3
   8474   8472   8484   8487     1  0.0000000  0.6973333  3
   8474   8472   8471   8485     1  0.0000000  0.6508444  3
   8474   8472   8471   8493     1  0.0000000  1.0460000  1
   8474   8472   8471   8493     1  0.0000000  0.0000000  3
   8475   8476   8477   8480     1  0.0000000  0.6508444  3
   8475   8476   8482   8488     1  0.0000000  1.0460000  1
   8475   8476   8482   8488     1  0.0000000  0.6694400  3
   8475   8472   8484   8487     1  0.0000000  1.0460000  1
   8475   8472   8484   8487     1  0.0000000  0.6694400  3
   8476   8475   8483   8486     1  0.0000000  1.0460000  1
   8476   8475   8483   8486     1  0.0000000  0.6694400  3
   8477   8476   8482   8488     1  0.0000000  1.0460000  1
   8477   8476   8482   8488     1  0.0000000  0.6694400  3
   8477   8476   8475   8479     1  0.0000000  0.6508444  3
   8478   8476   8477   8481     1  0.0000000  1.0460000  1
   8478   8476   8477   8481     1  0.0000000  0.0000000  3
   8478   8476   8477   8493     1  0.0000000  1.0460000  1
   8478   8476   8477   8493     1  0.0000000  0.0000000  3
   8478   8476   8477   8480     1  0.0000000  0.6508444  3
   8478   8476   8482   8488     1  0.0000000  0.6973333  3
   8478   8476   8475   8483     1  0.0000000  1.0460000  1
   8478   8476   8475   8483     1  0.0000000  0.0000000  3
   8478   8476   8475   8479     1  0.0000000  0.6508444  3
   8479   8475   8476   8482     1  0.0000000  1.0460000  1
   8479   8475   8476   8482     1  0.0000000  0.0000000  3
   8479   8475   8483   8486     1  0.0000000  0.6973333  3
   8479   8475   8472   8484     1  0.0000000  1.0460000  1
   8479   8475   8472   8484     1  0.0000000  0.0000000  3
   8480   8477   8476   8482     1  0.0000000  0.6508444  3
   8489   8485   8491   8492     1  0.0000000  0.6973333  3
   8489   8485   8471   8493     1  0.0000000  1.0460000  1
   8489   8485   8471   8493     1  0.0000000  0.0000000  3
   8490   8485   8491   8492     1  0.0000000  0.6973333  3
   8490   8485   8471   8493     1  0.0000000  1.0460000  1
   8490   8485   8471   8493     1  0.0000000  0.0000000  3
   8494   8495   8498   8502     1  0.0000000  0.6508444  3
   8494   8495   8507   8510     1  0.0000000  1.0460000  1
   8494   8495   8507   8510     1  0.0000000  0.6694400  3
   8494   8508   8514   8515     1  0.0000000  1.0460000  1
   8494   8508   8514   8515     1  0.0000000  0.6694400  3
   8494   8516   8500   8503     1  0.0000000  1.6038667  3
   8495   8494   8508   8512     1  0.0000000  0.6508444  3
   8495   8494   8508   8513     1  0.0000000  0.6508444  3
   8495   8498   8499   8501     1  0.0000000  0.6508444  3
   8495   8498   8506   8509     1  0.0000000  1.0460000  1
   8495   8498   8506   8509     1  0.0000000  0.6694400  3
   8496   8494   8495   8498     1  0.0000000  0.6508444  3
   8496   8494   8495   8507     1  0.0000000  1.0460000  1
   8496   8494   8495   8507     1  0.0000000  0.0000000  3
   8496   8494   8495   8497     1  0.0000000  0.6508444  3
   8496   8494   8508   8514     1  0.0000000  1.0460000  1
   8496   8494   8508   8514     1  0.0000000  0.0000000  3
   8496   8494   8508   8512     1  0.0000000  0.6508444  3
   8496   8494   8508   8513     1  0.0000000  0.6508444  3
   8496   8494   8516   8500     1  0.0000000  1.6038667  3
   8497   8495   8494   8508     1  0.0000000  0.6508444  3
   8497   8495   8494   8516     1  0.0000000  1.0460000  1
   8497   8495   8494   8516     1  0.0000000  0.0000000  3
   8497   8495   8498   8499     1  0.0000000  0.6508444  3
   8497   8495   8498   8506     1  0.0000000  1.0460000  1
   8497   8495   8498   8506     1  0.0000000  0.0000000  3
   8497   8495   8498   8502     1  0.0000000  0.6508444  3
   8497   8495   8507   8510     1  0.0000000  0.6973333  3
   8498   8495   8507   8510     1  0.0000000  1.0460000  1
   8498   8495   8507   8510     1  0.0000000  0.6694400  3
   8498   8499   8500   8503     1  0.0000000  0.6508444  3
   8498   8499   8505   8511     1  0.0000000  1.0460000  1
   8498   8499   8505   8511     1  0.0000000  0.6694400  3
   8499   8498   8506   8509     1  0.0000000  1.0460000  1
   8499   8498   8506   8509     1  0.0000000  0.6694400  3
   8500   8499   8498   8502     1  0.0000000  0.6508444  3
   8500   8499   8505   8511     1  0.0000000  1.0460000  1
   8500   8499   8505   8511     1  0.0000000  0.6694400  3
   8501   8499   8498   8506     1  0.0000000  1.0460000  1
   8501   8499   8498   8506     1  0.0000000  0.0000000  3
   8501   8499   8498   8502     1  0.0000000  0.6508444  3
   8501   8499   8500   8504     1  0.0000000  1.0460000  1
   8501   8499   8500   8504     1  0.0000000  0.0000000  3
   8501   8499   8500   8516     1  0.0000000  1.0460000  1
   8501   8499   8500   8516     1  0.0000000  0.0000000  3
   8501   8499   8500   8503     1  0.0000000  0.6508444  3
   8501   8499   8505   8511     1  0.0000000  0.6973333  3
   8502   8498   8495   8507     1  0.0000000  1.0460000  1
   8502   8498   8495   8507     1  0.0000000  0.0000000  3
   8502   8498   8499   8505     1  0.0000000  1.0460000  1
   8502   8498   8499   8505     1  0.0000000  0.0000000  3
   8502   8498   8506   8509     1  0.0000000  0.6973333  3
   8503   8500   8499   8505     1  0.0000000  0.6508444  3
   8512   8508   8494   8516     1  0.0000000  1.0460000  1
   8512   8508   8494   8516     1  0.0000000  0.0000000  3
   8512   8508   8514   8515     1  0.0000000  0.6973333  3
   8513   8508   8494   8516     1  0.0000000  1.0460000  1
   8513   8508   8494   8516     1  0.0000000  0.0000000  3
   8513   8508   8514   8515     1  0.0000000  0.6973333  3
   8517   8518   8521   8525     1  0.0000000  0.6508444  3
   8517   8518   8530   8533     1  0.0000000  1.0460000  1
   8517   8518   8530   8533     1  0.0000000  0.6694400  3
   8517   8531   8537   8538     1  0.0000000  1.0460000  1
   8517   8531   8537   8538     1  0.0000000  0.6694400  3
   8517   8539   8523   8526     1  0.0000000  1.6038667  3
   8518   8521   8522   8524     1  0.0000000  0.6508444  3
   8518   8521   8529   8532     1  0.0000000  1.0460000  1
   8518   8521   8529   8532     1  0.0000000  0.6694400  3
   8518   8517   8531   8535     1  0.0000000  0.6508444  3
   8518   8517   8531   8536     1  0.0000000  0.6508444  3
   8519   8517   8518   8521     1  0.0000000  0.6508444  3
   8519   8517   8518   8530     1  0.0000000  1.0460000  1
   8519   8517   8518   8530     1  0.0000000  0.0000000  3
   8519   8517   8518   8520     1  0.0000000  0.6508444  3
   8519   8517   8531   8537     1  0.0000000  1.0460000  1
   8519   8517   8531   8537     1  0.0000000  0.0000000  3
   8519   8517   8531   8535     1  0.0000000  0.6508444  3
   8519   8517   8531   8536     1  0.0000000  0.6508444  3
   8519   8517   8539   8523     1  0.0000000  1.6038667  3
   8520   8518   8521   8522     1  0.0000000  0.6508444  3
   8520   8518   8521   8529     1  0.0000000  1.0460000  1
   8520   8518   8521   8529     1  0.0000000  0.0000000  3
   8520   8518   8521   8525     1  0.0000000  0.6508444  3
   8520   8518   8530   8533     1  0.0000000  0.6973333  3
   8520   8518   8517   8531     1  0.0000000  0.6508444  3
   8520   8518   8517   8539     1  0.0000000  1.0460000  1
   8520   8518   8517   8539     1  0.0000000  0.0000000  3
   8521   8522   8523   8526     1  0.0000000  0.6508444  3
   8521   8522   8528   8534     1  0.0000000  1.0460000  1
   8521   8522   8528   8534     1  0.0000000  0.6694400  3
   8521   8518   8530   8533     1  0.0000000  1.0460000  1
   8521   8518   8530   8533     1  0.0000000  0.6694400  3
   8522   8521   8529   8532     1  0.0000000  1.0460000  1
   8522   8521   8529   8532     1  0.0000000  0.6694400  3
   8523   8522   8528   8534     1  0.0000000  1.0460000  1
   8523   8522   8528   8534     1  0.0000000  0.6694400  3
   8523   8522   8521   8525     1  0.0000000  0.6508444  3
   8524   8522   8523   8527     1  0.0000000  1.0460000  1
   8524   8522   8523   8527     1  0.0000000  0.0000000  3
   8524   8522   8523   8539     1  0.0000000  1.0460000  1
   8524   8522   8523   8539     1  0.0000000  0.0000000  3
   8524   8522   8523   8526     1  0.0000000  0.6508444  3
   8524   8522   8528   8534     1  0.0000000  0.6973333  3
   8524   8522   8521   8529     1  0.0000000  1.0460000  1
   8524   8522   8521   8529     1  0.0000000  0.0000000  3
   8524   8522   8521   8525     1  0.0000000  0.6508444  3
   8525   8521   8522   8528     1  0.0000000  1.0460000  1
   8525   8521   8522   8528     1  0.0000000  0.0000000  3
   8525   8521   8529   8532     1  0.0000000  0.6973333  3
   8525   8521   8518   8530     1  0.0000000  1.0460000  1
   8525   8521   8518   8530     1  0.0000000  0.0000000  3
   8526   8523   8522   8528     1  0.0000000  0.6508444  3
   8535   8531   8537   8538     1  0.0000000  0.6973333  3
   8535   8531   8517   8539     1  0.0000000  1.0460000  1
   8535   8531   8517   8539     1  0.0000000  0.0000000  3
   8536   8531   8537   8538     1  0.0000000  0.6973333  3
   8536   8531   8517   8539     1  0.0000000  1.0460000  1
   8536   8531   8517   8539     1  0.0000000  0.0000000  3
   8540   8541   8544   8548     1  0.0000000  0.6508444  3
   8540   8541   8553   8556     1  0.0000000  1.0460000  1
   8540   8541   8553   8556     1  0.0000000  0.6694400  3
   8540   8554   8560   8561     1  0.0000000  1.0460000  1
   8540   8554   8560   8561     1  0.0000000  0.6694400  3
   8540   8562   8546   8549     1  0.0000000  1.6038667  3
   8541   8540   8554   8558     1  0.0000000  0.6508444  3
   8541   8540   8554   8559     1  0.0000000  0.6508444  3
   8541   8544   8545   8547     1  0.0000000  0.6508444  3
   8541   8544   8552   8555     1  0.0000000  1.0460000  1
   8541   8544   8552   8555     1  0.0000000  0.6694400  3
   8542   8540   8541   8544     1  0.0000000  0.6508444  3
   8542   8540   8541   8553     1  0.0000000  1.0460000  1
   8542   8540   8541   8553     1  0.0000000  0.0000000  3
   8542   8540   8541   8543     1  0.0000000  0.6508444  3
   8542   8540   8554   8560     1  0.0000000  1.0460000  1
   8542   8540   8554   8560     1  0.0000000  0.0000000  3
   8542   8540   8554   8558     1  0.0000000  0.6508444  3
   8542   8540   8554   8559     1  0.0000000  0.6508444  3
   8542   8540   8562   8546     1  0.0000000  1.6038667  3
   8543   8541   8540   8554     1  0.0000000  0.6508444  3
   8543   8541   8540   8562     1  0.0000000  1.0460000  1
   8543   8541   8540   8562     1  0.0000000  0.0000000  3
   8543   8541   8544   8545     1  0.0000000  0.6508444  3
   8543   8541   8544   8552     1  0.0000000  1.0460000  1
   8543   8541   8544   8552     1  0.0000000  0.0000000  3
   8543   8541   8544   8548     1  0.0000000  0.6508444  3
   8543   8541   8553   8556     1  0.0000000  0.6973333  3
   8544   8541   8553   8556     1  0.0000000  1.0460000  1
   8544   8541   8553   8556     1  0.0000000  0.6694400  3
   8544   8545   8546   8549     1  0.0000000  0.6508444  3
   8544   8545   8551   8557     1  0.0000000  1.0460000  1
   8544   8545   8551   8557     1  0.0000000  0.6694400  3
   8545   8544   8552   8555     1  0.0000000  1.0460000  1
   8545   8544   8552   8555     1  0.0000000  0.6694400  3
   8546   8545   8544   8548     1  0.0000000  0.6508444  3
   8546   8545   8551   8557     1  0.0000000  1.0460000  1
   8546   8545   8551   8557     1  0.0000000  0.6694400  3
   8547   8545   8544   8552     1  0.0000000  1.0460000  1
   8547   8545   8544   8552     1  0.0000000  0.0000000  3
   8547   8545   8544   8548     1  0.0000000  0.6508444  3
   8547   8545   8546   8550     1  0.0000000  1.0460000  1
   8547   8545   8546   8550     1  0.0000000  0.0000000  3
   8547   8545   8546   8562     1  0.0000000  1.0460000  1
   8547   8545   8546   8562     1  0.0000000  0.0000000  3
   8547   8545   8546   8549     1  0.0000000  0.6508444  3
   8547   8545   8551   8557     1  0.0000000  0.6973333  3
   8548   8544   8541   8553     1  0.0000000  1.0460000  1
   8548   8544   8541   8553     1  0.0000000  0.0000000  3
   8548   8544   8545   8551     1  0.0000000  1.0460000  1
   8548   8544   8545   8551     1  0.0000000  0.0000000  3
   8548   8544   8552   8555     1  0.0000000  0.6973333  3
   8549   8546   8545   8551     1  0.0000000  0.6508444  3
   8558   8554   8540   8562     1  0.0000000  1.0460000  1
   8558   8554   8540   8562     1  0.0000000  0.0000000  3
   8558   8554   8560   8561     1  0.0000000  0.6973333  3
   8559   8554   8540   8562     1  0.0000000  1.0460000  1
   8559   8554   8540   8562     1  0.0000000  0.0000000  3
   8559   8554   8560   8561     1  0.0000000  0.6973333  3
   8563   8564   8567   8571     1  0.0000000  0.6508444  3
   8563   8564   8576   8579     1  0.0000000  1.0460000  1
   8563   8564   8576   8579     1  0.0000000  0.6694400  3
   8563   8577   8583   8584     1  0.0000000  1.0460000  1
   8563   8577   8583   8584     1  0.0000000  0.6694400  3
   8563   8585   8569   8572     1  0.0000000  1.6038667  3
   8564   8567   8568   8570     1  0.0000000  0.6508444  3
   8564   8567   8575   8578     1  0.0000000  1.0460000  1
   8564   8567   8575   8578     1  0.0000000  0.6694400  3
   8564   8563   8577   8581     1  0.0000000  0.6508444  3
   8564   8563   8577   8582     1  0.0000000  0.6508444  3
   8565   8563   8564   8567     1  0.0000000  0.6508444  3
   8565   8563   8564   8576     1  0.0000000  1.0460000  1
   8565   8563   8564   8576     1  0.0000000  0.0000000  3
   8565   8563   8564   8566     1  0.0000000  0.6508444  3
   8565   8563   8577   8583     1  0.0000000  1.0460000  1
   8565   8563   8577   8583     1  0.0000000  0.0000000  3
   8565   8563   8577   8581     1  0.0000000  0.6508444  3
   8565   8563   8577   8582     1  0.0000000  0.6508444  3
   8565   8563   8585   8569     1  0.0000000  1.6038667  3
   8566   8564   8567   8568     1  0.0000000  0.6508444  3
   8566   8564   8567   8575     1  0.0000000  1.0460000  1
   8566   8564   8567   8575     1  0.0000000  0.0000000  3
   8566   8564   8567   8571     1  0.0000000  0.6508444  3
   8566   8564   8576   8579     1  0.0000000  0.6973333  3
   8566   8564   8563   8577     1  0.0000000  0.6508444  3
   8566   8564   8563   8585     1  0.0000000  1.0460000  1
   8566   8564   8563   8585     1  0.0000000  0.0000000  3
   8567   8568   8569   8572     1  0.0000000  0.6508444  3
   8567   8568   8574   8580     1  0.0000000  1.0460000  1
   8567   8568   8574   8580     1  0.0000000  0.6694400  3
   8567   8564   8576   8579     1  0.0000000  1.0460000  1
   8567   8564   8576   8579     1  0.0000000  0.6694400  3
   8568   8567   8575   8578     1  0.0000000  1.0460000  1
   8568   8567   8575   8578     1  0.0000000  0.6694400  3
   8569   8568   8574   8580     1  0.0000000  1.0460000  1
   8569   8568   8574   8580     1  0.0000000  0.6694400  3
   8569   8568   8567   8571     1  0.0000000  0.6508444  3
   8570   8568   8569   8573     1  0.0000000  1.0460000  1
   8570   8568   8569   8573     1  0.0000000  0.0000000  3
   8570   8568   8569   8585     1  0.0000000  1.0460000  1
   8570   8568   8569   8585     1  0.0000000  0.0000000  3
   8570   8568   8569   8572     1  0.0000000  0.6508444  3
   8570   8568   8574   8580     1  0.0000000  0.6973333  3
   8570   8568   8567   8575     1  0.0000000  1.0460000  1
   8570   8568   8567   8575     1  0.0000000  0.0000000  3
   8570   8568   8567   8571     1  0.0000000  0.6508444  3
   8571   8567   8568   8574     1  0.0000000  1.0460000  1
   8571   8567   8568   8574     1  0.0000000  0.0000000  3
   8571   8567   8575   8578     1  0.0000000  0.6973333  3
   8571   8567   8564   8576     1  0.0000000  1.0460000  1
   8571   8567   8564   8576     1  0.0000000  0.0000000  3
   8572   8569   8568   8574     1  0.0000000  0.6508444  3
   8581   8577   8583   8584     1  0.0000000  0.6973333  3
   8581   8577   8563   8585     1  0.0000000  1.0460000  1
   8581   8577   8563   8585     1  0.0000000  0.0000000  3
   8582   8577   8583   8584     1  0.0000000  0.6973333  3
   8582   8577   8563   8585     1  0.0000000  1.0460000  1
   8582   8577   8563   8585     1  0.0000000  0.0000000  3
   8586   8587   8590   8594     1  0.0000000  0.6508444  3
   8586   8587   8599   8602     1  0.0000000  1.0460000  1
   8586   8587   8599   8602     1  0.0000000  0.6694400  3
   8586   8600   8606   8607     1  0.0000000  1.0460000  1
   8586   8600   8606   8607     1  0.0000000  0.6694400  3
   8586   8608   8592   8595     1  0.0000000  1.6038667  3
   8587   8586   8600   8604     1  0.0000000  0.6508444  3
   8587   8586   8600   8605     1  0.0000000  0.6508444  3
   8587   8590   8591   8593     1  0.0000000  0.6508444  3
   8587   8590   8598   8601     1  0.0000000  1.0460000  1
   8587   8590   8598   8601     1  0.0000000  0.6694400  3
   8588   8586   8587   8590     1  0.0000000  0.6508444  3
   8588   8586   8587   8599     1  0.0000000  1.0460000  1
   8588   8586   8587   8599     1  0.0000000  0.0000000  3
   8588   8586   8587   8589     1  0.0000000  0.6508444  3
   8588   8586   8600   8606     1  0.0000000  1.0460000  1
   8588   8586   8600   8606     1  0.0000000  0.0000000  3
   8588   8586   8600   8604     1  0.0000000  0.6508444  3
   8588   8586   8600   8605     1  0.0000000  0.6508444  3
   8588   8586   8608   8592     1  0.0000000  1.6038667  3
   8589   8587   8586   8600     1  0.0000000  0.6508444  3
   8589   8587   8586   8608     1  0.0000000  1.0460000  1
   8589   8587   8586   8608     1  0.0000000  0.0000000  3
   8589   8587   8590   8591     1  0.0000000  0.6508444  3
   8589   8587   8590   8598     1  0.0000000  1.0460000  1
   8589   8587   8590   8598     1  0.0000000  0.0000000  3
   8589   8587   8590   8594     1  0.0000000  0.6508444  3
   8589   8587   8599   8602     1  0.0000000  0.6973333  3
   8590   8587   8599   8602     1  0.0000000  1.0460000  1
   8590   8587   8599   8602     1  0.0000000  0.6694400  3
   8590   8591   8592   8595     1  0.0000000  0.6508444  3
   8590   8591   8597   8603     1  0.0000000  1.0460000  1
   8590   8591   8597   8603     1  0.0000000  0.6694400  3
   8591   8590   8598   8601     1  0.0000000  1.0460000  1
   8591   8590   8598   8601     1  0.0000000  0.6694400  3
   8592   8591   8590   8594     1  0.0000000  0.6508444  3
   8592   8591   8597   8603     1  0.0000000  1.0460000  1
   8592   8591   8597   8603     1  0.0000000  0.6694400  3
   8593   8591   8590   8598     1  0.0000000  1.0460000  1
   8593   8591   8590   8598     1  0.0000000  0.0000000  3
   8593   8591   8590   8594     1  0.0000000  0.6508444  3
   8593   8591   8592   8596     1  0.0000000  1.0460000  1
   8593   8591   8592   8596     1  0.0000000  0.0000000  3
   8593   8591   8592   8608     1  0.0000000  1.0460000  1
   8593   8591   8592   8608     1  0.0000000  0.0000000  3
   8593   8591   8592   8595     1  0.0000000  0.6508444  3
   8593   8591   8597   8603     1  0.0000000  0.6973333  3
   8594   8590   8587   8599     1  0.0000000  1.0460000  1
   8594   8590   8587   8599     1  0.0000000  0.0000000  3
   8594   8590   8591   8597     1  0.0000000  1.0460000  1
   8594   8590   8591   8597     1  0.0000000  0.0000000  3
   8594   8590   8598   8601     1  0.0000000  0.6973333  3
   8595   8592   8591   8597     1  0.0000000  0.6508444  3
   8604   8600   8586   8608     1  0.0000000  1.0460000  1
   8604   8600   8586   8608     1  0.0000000  0.0000000  3
   8604   8600   8606   8607     1  0.0000000  0.6973333  3
   8605   8600   8586   8608     1  0.0000000  1.0460000  1
   8605   8600   8586   8608     1  0.0000000  0.0000000  3
   8605   8600   8606   8607     1  0.0000000  0.6973333  3
   8609   8610   8613   8617     1  0.0000000  0.6508444  3
   8609   8610   8622   8625     1  0.0000000  1.0460000  1
   8609   8610   8622   8625     1  0.0000000  0.6694400  3
   8609   8623   8629   8630     1  0.0000000  1.0460000  1
   8609   8623   8629   8630     1  0.0000000  0.6694400  3
   8609   8631   8615   8618     1  0.0000000  1.6038667  3
   8610   8613   8614   8616     1  0.0000000  0.6508444  3
   8610   8613   8621   8624     1  0.0000000  1.0460000  1
   8610   8613   8621   8624     1  0.0000000  0.6694400  3
   8610   8609   8623   8627     1  0.0000000  0.6508444  3
   8610   8609   8623   8628     1  0.0000000  0.6508444  3
   8611   8609   8610   8613     1  0.0000000  0.6508444  3
   8611   8609   8610   8622     1  0.0000000  1.0460000  1
   8611   8609   8610   8622     1  0.0000000  0.0000000  3
   8611   8609   8610   8612     1  0.0000000  0.6508444  3
   8611   8609   8623   8629     1  0.0000000  1.0460000  1
   8611   8609   8623   8629     1  0.0000000  0.0000000  3
   8611   8609   8623   8627     1  0.0000000  0.6508444  3
   8611   8609   8623   8628     1  0.0000000  0.6508444  3
   8611   8609   8631   8615     1  0.0000000  1.6038667  3
   8612   8610   8613   8614     1  0.0000000  0.6508444  3
   8612   8610   8613   8621     1  0.0000000  1.0460000  1
   8612   8610   8613   8621     1  0.0000000  0.0000000  3
   8612   8610   8613   8617     1  0.0000000  0.6508444  3
   8612   8610   8622   8625     1  0.0000000  0.6973333  3
   8612   8610   8609   8623     1  0.0000000  0.6508444  3
   8612   8610   8609   8631     1  0.0000000  1.0460000  1
   8612   8610   8609   8631     1  0.0000000  0.0000000  3
   8613   8614   8615   8618     1  0.0000000  0.6508444  3
   8613   8614   8620   8626     1  0.0000000  1.0460000  1
   8613   8614   8620   8626     1  0.0000000  0.6694400  3
   8613   8610   8622   8625     1  0.0000000  1.0460000  1
   8613   8610   8622   8625     1  0.0000000  0.6694400  3
   8614   8613   8621   8624     1  0.0000000  1.0460000  1
   8614   8613   8621   8624     1  0.0000000  0.6694400  3
   8615   8614   8620   8626     1  0.0000000  1.0460000  1
   8615   8614   8620   8626     1  0.0000000  0.6694400  3
   8615   8614   8613   8617     1  0.0000000  0.6508444  3
   8616   8614   8615   8619     1  0.0000000  1.0460000  1
   8616   8614   8615   8619     1  0.0000000  0.0000000  3
   8616   8614   8615   8631     1  0.0000000  1.0460000  1
   8616   8614   8615   8631     1  0.0000000  0.0000000  3
   8616   8614   8615   8618     1  0.0000000  0.6508444  3
   8616   8614   8620   8626     1  0.0000000  0.6973333  3
   8616   8614   8613   8621     1  0.0000000  1.0460000  1
   8616   8614   8613   8621     1  0.0000000  0.0000000  3
   8616   8614   8613   8617     1  0.0000000  0.6508444  3
   8617   8613   8614   8620     1  0.0000000  1.0460000  1
   8617   8613   8614   8620     1  0.0000000  0.0000000  3
   8617   8613   8621   8624     1  0.0000000  0.6973333  3
   8617   8613   8610   8622     1  0.0000000  1.0460000  1
   8617   8613   8610   8622     1  0.0000000  0.0000000  3
   8618   8615   8614   8620     1  0.0000000  0.6508444  3
   8627   8623   8629   8630     1  0.0000000  0.6973333  3
   8627   8623   8609   8631     1  0.0000000  1.0460000  1
   8627   8623   8609   8631     1  0.0000000  0.0000000  3
   8628   8623   8629   8630     1  0.0000000  0.6973333  3
   8628   8623   8609   8631     1  0.0000000  1.0460000  1
   8628   8623   8609   8631     1  0.0000000  0.0000000  3
   8632   8633   8636   8640     1  0.0000000  0.6508444  3
   8632   8633   8645   8648     1  0.0000000  1.0460000  1
   8632   8633   8645   8648     1  0.0000000  0.6694400  3
   8632   8646   8652   8653     1  0.0000000  1.0460000  1
   8632   8646   8652   8653     1  0.0000000  0.6694400  3
   8632   8654   8638   8641     1  0.0000000  1.6038667  3
   8633   8632   8646   8650     1  0.0000000  0.6508444  3
   8633   8632   8646   8651     1  0.0000000  0.6508444  3
   8633   8636   8637   8639     1  0.0000000  0.6508444  3
   8633   8636   8644   8647     1  0.0000000  1.0460000  1
   8633   8636   8644   8647     1  0.0000000  0.6694400  3
   8634   8632   8633   8636     1  0.0000000  0.6508444  3
   8634   8632   8633   8645     1  0.0000000  1.0460000  1
   8634   8632   8633   8645     1  0.0000000  0.0000000  3
   8634   8632   8633   8635     1  0.0000000  0.6508444  3
   8634   8632   8646   8652     1  0.0000000  1.0460000  1
   8634   8632   8646   8652     1  0.0000000  0.0000000  3
   8634   8632   8646   8650     1  0.0000000  0.6508444  3
   8634   8632   8646   8651     1  0.0000000  0.6508444  3
   8634   8632   8654   8638     1  0.0000000  1.6038667  3
   8635   8633   8632   8646     1  0.0000000  0.6508444  3
   8635   8633   8632   8654     1  0.0000000  1.0460000  1
   8635   8633   8632   8654     1  0.0000000  0.0000000  3
   8635   8633   8636   8637     1  0.0000000  0.6508444  3
   8635   8633   8636   8644     1  0.0000000  1.0460000  1
   8635   8633   8636   8644     1  0.0000000  0.0000000  3
   8635   8633   8636   8640     1  0.0000000  0.6508444  3
   8635   8633   8645   8648     1  0.0000000  0.6973333  3
   8636   8633   8645   8648     1  0.0000000  1.0460000  1
   8636   8633   8645   8648     1  0.0000000  0.6694400  3
   8636   8637   8638   8641     1  0.0000000  0.6508444  3
   8636   8637   8643   8649     1  0.0000000  1.0460000  1
   8636   8637   8643   8649     1  0.0000000  0.6694400  3
   8637   8636   8644   8647     1  0.0000000  1.0460000  1
   8637   8636   8644   8647     1  0.0000000  0.6694400  3
   8638   8637   8636   8640     1  0.0000000  0.6508444  3
   8638   8637   8643   8649     1  0.0000000  1.0460000  1
   8638   8637   8643   8649     1  0.0000000  0.6694400  3
   8639   8637   8636   8644     1  0.0000000  1.0460000  1
   8639   8637   8636   8644     1  0.0000000  0.0000000  3
   8639   8637   8636   8640     1  0.0000000  0.6508444  3
   8639   8637   8638   8642     1  0.0000000  1.0460000  1
   8639   8637   8638   8642     1  0.0000000  0.0000000  3
   8639   8637   8638   8654     1  0.0000000  1.0460000  1
   8639   8637   8638   8654     1  0.0000000  0.0000000  3
   8639   8637   8638   8641     1  0.0000000  0.6508444  3
   8639   8637   8643   8649     1  0.0000000  0.6973333  3
   8640   8636   8633   8645     1  0.0000000  1.0460000  1
   8640   8636   8633   8645     1  0.0000000  0.0000000  3
   8640   8636   8637   8643     1  0.0000000  1.0460000  1
   8640   8636   8637   8643     1  0.0000000  0.0000000  3
   8640   8636   8644   8647     1  0.0000000  0.6973333  3
   8641   8638   8637   8643     1  0.0000000  0.6508444  3
   8650   8646   8632   8654     1  0.0000000  1.0460000  1
   8650   8646   8632   8654     1  0.0000000  0.0000000  3
   8650   8646   8652   8653     1  0.0000000  0.6973333  3
   8651   8646   8632   8654     1  0.0000000  1.0460000  1
   8651   8646   8632   8654     1  0.0000000  0.0000000  3
   8651   8646   8652   8653     1  0.0000000  0.6973333  3
   8655   8656   8659   8663     1  0.0000000  0.6508444  3
   8655   8656   8668   8671     1  0.0000000  1.0460000  1
   8655   8656   8668   8671     1  0.0000000  0.6694400  3
   8655   8669   8675   8676     1  0.0000000  1.0460000  1
   8655   8669   8675   8676     1  0.0000000  0.6694400  3
   8655   8677   8661   8664     1  0.0000000  1.6038667  3
   8656   8659   8660   8662     1  0.0000000  0.6508444  3
   8656   8659   8667   8670     1  0.0000000  1.0460000  1
   8656   8659   8667   8670     1  0.0000000  0.6694400  3
   8656   8655   8669   8673     1  0.0000000  0.6508444  3
   8656   8655   8669   8674     1  0.0000000  0.6508444  3
   8657   8655   8656   8659     1  0.0000000  0.6508444  3
   8657   8655   8656   8668     1  0.0000000  1.0460000  1
   8657   8655   8656   8668     1  0.0000000  0.0000000  3
   8657   8655   8656   8658     1  0.0000000  0.6508444  3
   8657   8655   8669   8675     1  0.0000000  1.0460000  1
   8657   8655   8669   8675     1  0.0000000  0.0000000  3
   8657   8655   8669   8673     1  0.0000000  0.6508444  3
   8657   8655   8669   8674     1  0.0000000  0.6508444  3
   8657   8655   8677   8661     1  0.0000000  1.6038667  3
   8658   8656   8659   8660     1  0.0000000  0.6508444  3
   8658   8656   8659   8667     1  0.0000000  1.0460000  1
   8658   8656   8659   8667     1  0.0000000  0.0000000  3
   8658   8656   8659   8663     1  0.0000000  0.6508444  3
   8658   8656   8668   8671     1  0.0000000  0.6973333  3
   8658   8656   8655   8669     1  0.0000000  0.6508444  3
   8658   8656   8655   8677     1  0.0000000  1.0460000  1
   8658   8656   8655   8677     1  0.0000000  0.0000000  3
   8659   8660   8661   8664     1  0.0000000  0.6508444  3
   8659   8660   8666   8672     1  0.0000000  1.0460000  1
   8659   8660   8666   8672     1  0.0000000  0.6694400  3
   8659   8656   8668   8671     1  0.0000000  1.0460000  1
   8659   8656   8668   8671     1  0.0000000  0.6694400  3
   8660   8659   8667   8670     1  0.0000000  1.0460000  1
   8660   8659   8667   8670     1  0.0000000  0.6694400  3
   8661   8660   8666   8672     1  0.0000000  1.0460000  1
   8661   8660   8666   8672     1  0.0000000  0.6694400  3
   8661   8660   8659   8663     1  0.0000000  0.6508444  3
   8662   8660   8661   8665     1  0.0000000  1.0460000  1
   8662   8660   8661   8665     1  0.0000000  0.0000000  3
   8662   8660   8661   8677     1  0.0000000  1.0460000  1
   8662   8660   8661   8677     1  0.0000000  0.0000000  3
   8662   8660   8661   8664     1  0.0000000  0.6508444  3
   8662   8660   8666   8672     1  0.0000000  0.6973333  3
   8662   8660   8659   8667     1  0.0000000  1.0460000  1
   8662   8660   8659   8667     1  0.0000000  0.0000000  3
   8662   8660   8659   8663     1  0.0000000  0.6508444  3
   8663   8659   8660   8666     1  0.0000000  1.0460000  1
   8663   8659   8660   8666     1  0.0000000  0.0000000  3
   8663   8659   8667   8670     1  0.0000000  0.6973333  3
   8663   8659   8656   8668     1  0.0000000  1.0460000  1
   8663   8659   8656   8668     1  0.0000000  0.0000000  3
   8664   8661   8660   8666     1  0.0000000  0.6508444  3
   8673   8669   8675   8676     1  0.0000000  0.6973333  3
   8673   8669   8655   8677     1  0.0000000  1.0460000  1
   8673   8669   8655   8677     1  0.0000000  0.0000000  3
   8674   8669   8675   8676     1  0.0000000  0.6973333  3
   8674   8669   8655   8677     1  0.0000000  1.0460000  1
   8674   8669   8655   8677     1  0.0000000  0.0000000  3
   8678   8679   8682   8686     1  0.0000000  0.6508444  3
   8678   8679   8691   8694     1  0.0000000  1.0460000  1
   8678   8679   8691   8694     1  0.0000000  0.6694400  3
   8678   8692   8698   8699     1  0.0000000  1.0460000  1
   8678   8692   8698   8699     1  0.0000000  0.6694400  3
   8678   8700   8684   8687     1  0.0000000  1.6038667  3
   8679   8678   8692   8696     1  0.0000000  0.6508444  3
   8679   8678   8692   8697     1  0.0000000  0.6508444  3
   8679   8682   8683   8685     1  0.0000000  0.6508444  3
   8679   8682   8690   8693     1  0.0000000  1.0460000  1
   8679   8682   8690   8693     1  0.0000000  0.6694400  3
   8680   8678   8679   8682     1  0.0000000  0.6508444  3
   8680   8678   8679   8691     1  0.0000000  1.0460000  1
   8680   8678   8679   8691     1  0.0000000  0.0000000  3
   8680   8678   8679   8681     1  0.0000000  0.6508444  3
   8680   8678   8692   8698     1  0.0000000  1.0460000  1
   8680   8678   8692   8698     1  0.0000000  0.0000000  3
   8680   8678   8692   8696     1  0.0000000  0.6508444  3
   8680   8678   8692   8697     1  0.0000000  0.6508444  3
   8680   8678   8700   8684     1  0.0000000  1.6038667  3
   8681   8679   8678   8692     1  0.0000000  0.6508444  3
   8681   8679   8678   8700     1  0.0000000  1.0460000  1
   8681   8679   8678   8700     1  0.0000000  0.0000000  3
   8681   8679   8682   8683     1  0.0000000  0.6508444  3
   8681   8679   8682   8690     1  0.0000000  1.0460000  1
   8681   8679   8682   8690     1  0.0000000  0.0000000  3
   8681   8679   8682   8686     1  0.0000000  0.6508444  3
   8681   8679   8691   8694     1  0.0000000  0.6973333  3
   8682   8679   8691   8694     1  0.0000000  1.0460000  1
   8682   8679   8691   8694     1  0.0000000  0.6694400  3
   8682   8683   8684   8687     1  0.0000000  0.6508444  3
   8682   8683   8689   8695     1  0.0000000  1.0460000  1
   8682   8683   8689   8695     1  0.0000000  0.6694400  3
   8683   8682   8690   8693     1  0.0000000  1.0460000  1
   8683   8682   8690   8693     1  0.0000000  0.6694400  3
   8684   8683   8682   8686     1  0.0000000  0.6508444  3
   8684   8683   8689   8695     1  0.0000000  1.0460000  1
   8684   8683   8689   8695     1  0.0000000  0.6694400  3
   8685   8683   8682   8690     1  0.0000000  1.0460000  1
   8685   8683   8682   8690     1  0.0000000  0.0000000  3
   8685   8683   8682   8686     1  0.0000000  0.6508444  3
   8685   8683   8684   8688     1  0.0000000  1.0460000  1
   8685   8683   8684   8688     1  0.0000000  0.0000000  3
   8685   8683   8684   8700     1  0.0000000  1.0460000  1
   8685   8683   8684   8700     1  0.0000000  0.0000000  3
   8685   8683   8684   8687     1  0.0000000  0.6508444  3
   8685   8683   8689   8695     1  0.0000000  0.6973333  3
   8686   8682   8679   8691     1  0.0000000  1.0460000  1
   8686   8682   8679   8691     1  0.0000000  0.0000000  3
   8686   8682   8683   8689     1  0.0000000  1.0460000  1
   8686   8682   8683   8689     1  0.0000000  0.0000000  3
   8686   8682   8690   8693     1  0.0000000  0.6973333  3
   8687   8684   8683   8689     1  0.0000000  0.6508444  3
   8696   8692   8678   8700     1  0.0000000  1.0460000  1
   8696   8692   8678   8700     1  0.0000000  0.0000000  3
   8696   8692   8698   8699     1  0.0000000  0.6973333  3
   8697   8692   8678   8700     1  0.0000000  1.0460000  1
   8697   8692   8678   8700     1  0.0000000  0.0000000  3
   8697   8692   8698   8699     1  0.0000000  0.6973333  3
   8701   8702   8705   8709     1  0.0000000  0.6508444  3
   8701   8702   8714   8717     1  0.0000000  1.0460000  1
   8701   8702   8714   8717     1  0.0000000  0.6694400  3
   8701   8715   8721   8722     1  0.0000000  1.0460000  1
   8701   8715   8721   8722     1  0.0000000  0.6694400  3
   8701   8723   8707   8710     1  0.0000000  1.6038667  3
   8702   8705   8706   8708     1  0.0000000  0.6508444  3
   8702   8705   8713   8716     1  0.0000000  1.0460000  1
   8702   8705   8713   8716     1  0.0000000  0.6694400  3
   8702   8701   8715   8719     1  0.0000000  0.6508444  3
   8702   8701   8715   8720     1  0.0000000  0.6508444  3
   8703   8701   8702   8705     1  0.0000000  0.6508444  3
   8703   8701   8702   8714     1  0.0000000  1.0460000  1
   8703   8701   8702   8714     1  0.0000000  0.0000000  3
   8703   8701   8702   8704     1  0.0000000  0.6508444  3
   8703   8701   8715   8721     1  0.0000000  1.0460000  1
   8703   8701   8715   8721     1  0.0000000  0.0000000  3
   8703   8701   8715   8719     1  0.0000000  0.6508444  3
   8703   8701   8715   8720     1  0.0000000  0.6508444  3
   8703   8701   8723   8707     1  0.0000000  1.6038667  3
   8704   8702   8705   8706     1  0.0000000  0.6508444  3
   8704   8702   8705   8713     1  0.0000000  1.0460000  1
   8704   8702   8705   8713     1  0.0000000  0.0000000  3
   8704   8702   8705   8709     1  0.0000000  0.6508444  3
   8704   8702   8714   8717     1  0.0000000  0.6973333  3
   8704   8702   8701   8715     1  0.0000000  0.6508444  3
   8704   8702   8701   8723     1  0.0000000  1.0460000  1
   8704   8702   8701   8723     1  0.0000000  0.0000000  3
   8705   8706   8707   8710     1  0.0000000  0.6508444  3
   8705   8706   8712   8718     1  0.0000000  1.0460000  1
   8705   8706   8712   8718     1  0.0000000  0.6694400  3
   8705   8702   8714   8717     1  0.0000000  1.0460000  1
   8705   8702   8714   8717     1  0.0000000  0.6694400  3
   8706   8705   8713   8716     1  0.0000000  1.0460000  1
   8706   8705   8713   8716     1  0.0000000  0.6694400  3
   8707   8706   8712   8718     1  0.0000000  1.0460000  1
   8707   8706   8712   8718     1  0.0000000  0.6694400  3
   8707   8706   8705   8709     1  0.0000000  0.6508444  3
   8708   8706   8707   8711     1  0.0000000  1.0460000  1
   8708   8706   8707   8711     1  0.0000000  0.0000000  3
   8708   8706   8707   8723     1  0.0000000  1.0460000  1
   8708   8706   8707   8723     1  0.0000000  0.0000000  3
   8708   8706   8707   8710     1  0.0000000  0.6508444  3
   8708   8706   8712   8718     1  0.0000000  0.6973333  3
   8708   8706   8705   8713     1  0.0000000  1.0460000  1
   8708   8706   8705   8713     1  0.0000000  0.0000000  3
   8708   8706   8705   8709     1  0.0000000  0.6508444  3
   8709   8705   8706   8712     1  0.0000000  1.0460000  1
   8709   8705   8706   8712     1  0.0000000  0.0000000  3
   8709   8705   8713   8716     1  0.0000000  0.6973333  3
   8709   8705   8702   8714     1  0.0000000  1.0460000  1
   8709   8705   8702   8714     1  0.0000000  0.0000000  3
   8710   8707   8706   8712     1  0.0000000  0.6508444  3
   8719   8715   8721   8722     1  0.0000000  0.6973333  3
   8719   8715   8701   8723     1  0.0000000  1.0460000  1
   8719   8715   8701   8723     1  0.0000000  0.0000000  3
   8720   8715   8721   8722     1  0.0000000  0.6973333  3
   8720   8715   8701   8723     1  0.0000000  1.0460000  1
   8720   8715   8701   8723     1  0.0000000  0.0000000  3
   8724   8725   8728   8732     1  0.0000000  0.6508444  3
   8724   8725   8737   8740     1  0.0000000  1.0460000  1
   8724   8725   8737   8740     1  0.0000000  0.6694400  3
   8724   8738   8744   8745     1  0.0000000  1.0460000  1
   8724   8738   8744   8745     1  0.0000000  0.6694400  3
   8724   8746   8730   8733     1  0.0000000  1.6038667  3
   8725   8724   8738   8742     1  0.0000000  0.6508444  3
   8725   8724   8738   8743     1  0.0000000  0.6508444  3
   8725   8728   8729   8731     1  0.0000000  0.6508444  3
   8725   8728   8736   8739     1  0.0000000  1.0460000  1
   8725   8728   8736   8739     1  0.0000000  0.6694400  3
   8726   8724   8725   8728     1  0.0000000  0.6508444  3
   8726   8724   8725   8737     1  0.0000000  1.0460000  1
   8726   8724   8725   8737     1  0.0000000  0.0000000  3
   8726   8724   8725   8727     1  0.0000000  0.6508444  3
   8726   8724   8738   8744     1  0.0000000  1.0460000  1
   8726   8724   8738   8744     1  0.0000000  0.0000000  3
   8726   8724   8738   8742     1  0.0000000  0.6508444  3
   8726   8724   8738   8743     1  0.0000000  0.6508444  3
   8726   8724   8746   8730     1  0.0000000  1.6038667  3
   8727   8725   8724   8738     1  0.0000000  0.6508444  3
   8727   8725   8724   8746     1  0.0000000  1.0460000  1
   8727   8725   8724   8746     1  0.0000000  0.0000000  3
   8727   8725   8728   8729     1  0.0000000  0.6508444  3
   8727   8725   8728   8736     1  0.0000000  1.0460000  1
   8727   8725   8728   8736     1  0.0000000  0.0000000  3
   8727   8725   8728   8732     1  0.0000000  0.6508444  3
   8727   8725   8737   8740     1  0.0000000  0.6973333  3
   8728   8725   8737   8740     1  0.0000000  1.0460000  1
   8728   8725   8737   8740     1  0.0000000  0.6694400  3
   8728   8729   8730   8733     1  0.0000000  0.6508444  3
   8728   8729   8735   8741     1  0.0000000  1.0460000  1
   8728   8729   8735   8741     1  0.0000000  0.6694400  3
   8729   8728   8736   8739     1  0.0000000  1.0460000  1
   8729   8728   8736   8739     1  0.0000000  0.6694400  3
   8730   8729   8728   8732     1  0.0000000  0.6508444  3
   8730   8729   8735   8741     1  0.0000000  1.0460000  1
   8730   8729   8735   8741     1  0.0000000  0.6694400  3
   8731   8729   8728   8736     1  0.0000000  1.0460000  1
   8731   8729   8728   8736     1  0.0000000  0.0000000  3
   8731   8729   8728   8732     1  0.0000000  0.6508444  3
   8731   8729   8730   8734     1  0.0000000  1.0460000  1
   8731   8729   8730   8734     1  0.0000000  0.0000000  3
   8731   8729   8730   8746     1  0.0000000  1.0460000  1
   8731   8729   8730   8746     1  0.0000000  0.0000000  3
   8731   8729   8730   8733     1  0.0000000  0.6508444  3
   8731   8729   8735   8741     1  0.0000000  0.6973333  3
   8732   8728   8725   8737     1  0.0000000  1.0460000  1
   8732   8728   8725   8737     1  0.0000000  0.0000000  3
   8732   8728   8729   8735     1  0.0000000  1.0460000  1
   8732   8728   8729   8735     1  0.0000000  0.0000000  3
   8732   8728   8736   8739     1  0.0000000  0.6973333  3
   8733   8730   8729   8735     1  0.0000000  0.6508444  3
   8742   8738   8724   8746     1  0.0000000  1.0460000  1
   8742   8738   8724   8746     1  0.0000000  0.0000000  3
   8742   8738   8744   8745     1  0.0000000  0.6973333  3
   8743   8738   8724   8746     1  0.0000000  1.0460000  1
   8743   8738   8724   8746     1  0.0000000  0.0000000  3
   8743   8738   8744   8745     1  0.0000000  0.6973333  3
   8747   8748   8751   8755     1  0.0000000  0.6508444  3
   8747   8748   8760   8763     1  0.0000000  1.0460000  1
   8747   8748   8760   8763     1  0.0000000  0.6694400  3
   8747   8761   8767   8768     1  0.0000000  1.0460000  1
   8747   8761   8767   8768     1  0.0000000  0.6694400  3
   8747   8769   8753   8756     1  0.0000000  1.6038667  3
   8748   8751   8752   8754     1  0.0000000  0.6508444  3
   8748   8751   8759   8762     1  0.0000000  1.0460000  1
   8748   8751   8759   8762     1  0.0000000  0.6694400  3
   8748   8747   8761   8765     1  0.0000000  0.6508444  3
   8748   8747   8761   8766     1  0.0000000  0.6508444  3
   8749   8747   8748   8751     1  0.0000000  0.6508444  3
   8749   8747   8748   8760     1  0.0000000  1.0460000  1
   8749   8747   8748   8760     1  0.0000000  0.0000000  3
   8749   8747   8748   8750     1  0.0000000  0.6508444  3
   8749   8747   8761   8767     1  0.0000000  1.0460000  1
   8749   8747   8761   8767     1  0.0000000  0.0000000  3
   8749   8747   8761   8765     1  0.0000000  0.6508444  3
   8749   8747   8761   8766     1  0.0000000  0.6508444  3
   8749   8747   8769   8753     1  0.0000000  1.6038667  3
   8750   8748   8751   8752     1  0.0000000  0.6508444  3
   8750   8748   8751   8759     1  0.0000000  1.0460000  1
   8750   8748   8751   8759     1  0.0000000  0.0000000  3
   8750   8748   8751   8755     1  0.0000000  0.6508444  3
   8750   8748   8760   8763     1  0.0000000  0.6973333  3
   8750   8748   8747   8761     1  0.0000000  0.6508444  3
   8750   8748   8747   8769     1  0.0000000  1.0460000  1
   8750   8748   8747   8769     1  0.0000000  0.0000000  3
   8751   8752   8753   8756     1  0.0000000  0.6508444  3
   8751   8752   8758   8764     1  0.0000000  1.0460000  1
   8751   8752   8758   8764     1  0.0000000  0.6694400  3
   8751   8748   8760   8763     1  0.0000000  1.0460000  1
   8751   8748   8760   8763     1  0.0000000  0.6694400  3
   8752   8751   8759   8762     1  0.0000000  1.0460000  1
   8752   8751   8759   8762     1  0.0000000  0.6694400  3
   8753   8752   8758   8764     1  0.0000000  1.0460000  1
   8753   8752   8758   8764     1  0.0000000  0.6694400  3
   8753   8752   8751   8755     1  0.0000000  0.6508444  3
   8754   8752   8753   8757     1  0.0000000  1.0460000  1
   8754   8752   8753   8757     1  0.0000000  0.0000000  3
   8754   8752   8753   8769     1  0.0000000  1.0460000  1
   8754   8752   8753   8769     1  0.0000000  0.0000000  3
   8754   8752   8753   8756     1  0.0000000  0.6508444  3
   8754   8752   8758   8764     1  0.0000000  0.6973333  3
   8754   8752   8751   8759     1  0.0000000  1.0460000  1
   8754   8752   8751   8759     1  0.0000000  0.0000000  3
   8754   8752   8751   8755     1  0.0000000  0.6508444  3
   8755   8751   8752   8758     1  0.0000000  1.0460000  1
   8755   8751   8752   8758     1  0.0000000  0.0000000  3
   8755   8751   8759   8762     1  0.0000000  0.6973333  3
   8755   8751   8748   8760     1  0.0000000  1.0460000  1
   8755   8751   8748   8760     1  0.0000000  0.0000000  3
   8756   8753   8752   8758     1  0.0000000  0.6508444  3
   8765   8761   8767   8768     1  0.0000000  0.6973333  3
   8765   8761   8747   8769     1  0.0000000  1.0460000  1
   8765   8761   8747   8769     1  0.0000000  0.0000000  3
   8766   8761   8767   8768     1  0.0000000  0.6973333  3
   8766   8761   8747   8769     1  0.0000000  1.0460000  1
   8766   8761   8747   8769     1  0.0000000  0.0000000  3
   8770   8771   8774   8778     1  0.0000000  0.6508444  3
   8770   8771   8783   8786     1  0.0000000  1.0460000  1
   8770   8771   8783   8786     1  0.0000000  0.6694400  3
   8770   8784   8790   8791     1  0.0000000  1.0460000  1
   8770   8784   8790   8791     1  0.0000000  0.6694400  3
   8770   8792   8776   8779     1  0.0000000  1.6038667  3
   8771   8770   8784   8788     1  0.0000000  0.6508444  3
   8771   8770   8784   8789     1  0.0000000  0.6508444  3
   8771   8774   8775   8777     1  0.0000000  0.6508444  3
   8771   8774   8782   8785     1  0.0000000  1.0460000  1
   8771   8774   8782   8785     1  0.0000000  0.6694400  3
   8772   8770   8771   8774     1  0.0000000  0.6508444  3
   8772   8770   8771   8783     1  0.0000000  1.0460000  1
   8772   8770   8771   8783     1  0.0000000  0.0000000  3
   8772   8770   8771   8773     1  0.0000000  0.6508444  3
   8772   8770   8784   8790     1  0.0000000  1.0460000  1
   8772   8770   8784   8790     1  0.0000000  0.0000000  3
   8772   8770   8784   8788     1  0.0000000  0.6508444  3
   8772   8770   8784   8789     1  0.0000000  0.6508444  3
   8772   8770   8792   8776     1  0.0000000  1.6038667  3
   8773   8771   8770   8784     1  0.0000000  0.6508444  3
   8773   8771   8770   8792     1  0.0000000  1.0460000  1
   8773   8771   8770   8792     1  0.0000000  0.0000000  3
   8773   8771   8774   8775     1  0.0000000  0.6508444  3
   8773   8771   8774   8782     1  0.0000000  1.0460000  1
   8773   8771   8774   8782     1  0.0000000  0.0000000  3
   8773   8771   8774   8778     1  0.0000000  0.6508444  3
   8773   8771   8783   8786     1  0.0000000  0.6973333  3
   8774   8771   8783   8786     1  0.0000000  1.0460000  1
   8774   8771   8783   8786     1  0.0000000  0.6694400  3
   8774   8775   8776   8779     1  0.0000000  0.6508444  3
   8774   8775   8781   8787     1  0.0000000  1.0460000  1
   8774   8775   8781   8787     1  0.0000000  0.6694400  3
   8775   8774   8782   8785     1  0.0000000  1.0460000  1
   8775   8774   8782   8785     1  0.0000000  0.6694400  3
   8776   8775   8774   8778     1  0.0000000  0.6508444  3
   8776   8775   8781   8787     1  0.0000000  1.0460000  1
   8776   8775   8781   8787     1  0.0000000  0.6694400  3
   8777   8775   8774   8782     1  0.0000000  1.0460000  1
   8777   8775   8774   8782     1  0.0000000  0.0000000  3
   8777   8775   8774   8778     1  0.0000000  0.6508444  3
   8777   8775   8776   8780     1  0.0000000  1.0460000  1
   8777   8775   8776   8780     1  0.0000000  0.0000000  3
   8777   8775   8776   8792     1  0.0000000  1.0460000  1
   8777   8775   8776   8792     1  0.0000000  0.0000000  3
   8777   8775   8776   8779     1  0.0000000  0.6508444  3
   8777   8775   8781   8787     1  0.0000000  0.6973333  3
   8778   8774   8771   8783     1  0.0000000  1.0460000  1
   8778   8774   8771   8783     1  0.0000000  0.0000000  3
   8778   8774   8775   8781     1  0.0000000  1.0460000  1
   8778   8774   8775   8781     1  0.0000000  0.0000000  3
   8778   8774   8782   8785     1  0.0000000  0.6973333  3
   8779   8776   8775   8781     1  0.0000000  0.6508444  3
   8788   8784   8770   8792     1  0.0000000  1.0460000  1
   8788   8784   8770   8792     1  0.0000000  0.0000000  3
   8788   8784   8790   8791     1  0.0000000  0.6973333  3
   8789   8784   8770   8792     1  0.0000000  1.0460000  1
   8789   8784   8770   8792     1  0.0000000  0.0000000  3
   8789   8784   8790   8791     1  0.0000000  0.6973333  3
   8793   8794   8797   8801     1  0.0000000  0.6508444  3
   8793   8794   8806   8809     1  0.0000000  1.0460000  1
   8793   8794   8806   8809     1  0.0000000  0.6694400  3
   8793   8807   8813   8814     1  0.0000000  1.0460000  1
   8793   8807   8813   8814     1  0.0000000  0.6694400  3
   8793   8815   8799   8802     1  0.0000000  1.6038667  3
   8794   8797   8798   8800     1  0.0000000  0.6508444  3
   8794   8797   8805   8808     1  0.0000000  1.0460000  1
   8794   8797   8805   8808     1  0.0000000  0.6694400  3
   8794   8793   8807   8811     1  0.0000000  0.6508444  3
   8794   8793   8807   8812     1  0.0000000  0.6508444  3
   8795   8793   8794   8797     1  0.0000000  0.6508444  3
   8795   8793   8794   8806     1  0.0000000  1.0460000  1
   8795   8793   8794   8806     1  0.0000000  0.0000000  3
   8795   8793   8794   8796     1  0.0000000  0.6508444  3
   8795   8793   8807   8813     1  0.0000000  1.0460000  1
   8795   8793   8807   8813     1  0.0000000  0.0000000  3
   8795   8793   8807   8811     1  0.0000000  0.6508444  3
   8795   8793   8807   8812     1  0.0000000  0.6508444  3
   8795   8793   8815   8799     1  0.0000000  1.6038667  3
   8796   8794   8797   8798     1  0.0000000  0.6508444  3
   8796   8794   8797   8805     1  0.0000000  1.0460000  1
   8796   8794   8797   8805     1  0.0000000  0.0000000  3
   8796   8794   8797   8801     1  0.0000000  0.6508444  3
   8796   8794   8806   8809     1  0.0000000  0.6973333  3
   8796   8794   8793   8807     1  0.0000000  0.6508444  3
   8796   8794   8793   8815     1  0.0000000  1.0460000  1
   8796   8794   8793   8815     1  0.0000000  0.0000000  3
   8797   8798   8799   8802     1  0.0000000  0.6508444  3
   8797   8798   8804   8810     1  0.0000000  1.0460000  1
   8797   8798   8804   8810     1  0.0000000  0.6694400  3
   8797   8794   8806   8809     1  0.0000000  1.0460000  1
   8797   8794   8806   8809     1  0.0000000  0.6694400  3
   8798   8797   8805   8808     1  0.0000000  1.0460000  1
   8798   8797   8805   8808     1  0.0000000  0.6694400  3
   8799   8798   8804   8810     1  0.0000000  1.0460000  1
   8799   8798   8804   8810     1  0.0000000  0.6694400  3
   8799   8798   8797   8801     1  0.0000000  0.6508444  3
   8800   8798   8799   8803     1  0.0000000  1.0460000  1
   8800   8798   8799   8803     1  0.0000000  0.0000000  3
   8800   8798   8799   8815     1  0.0000000  1.0460000  1
   8800   8798   8799   8815     1  0.0000000  0.0000000  3
   8800   8798   8799   8802     1  0.0000000  0.6508444  3
   8800   8798   8804   8810     1  0.0000000  0.6973333  3
   8800   8798   8797   8805     1  0.0000000  1.0460000  1
   8800   8798   8797   8805     1  0.0000000  0.0000000  3
   8800   8798   8797   8801     1  0.0000000  0.6508444  3
   8801   8797   8798   8804     1  0.0000000  1.0460000  1
   8801   8797   8798   8804     1  0.0000000  0.0000000  3
   8801   8797   8805   8808     1  0.0000000  0.6973333  3
   8801   8797   8794   8806     1  0.0000000  1.0460000  1
   8801   8797   8794   8806     1  0.0000000  0.0000000  3
   8802   8799   8798   8804     1  0.0000000  0.6508444  3
   8811   8807   8813   8814     1  0.0000000  0.6973333  3
   8811   8807   8793   8815     1  0.0000000  1.0460000  1
   8811   8807   8793   8815     1  0.0000000  0.0000000  3
   8812   8807   8813   8814     1  0.0000000  0.6973333  3
   8812   8807   8793   8815     1  0.0000000  1.0460000  1
   8812   8807   8793   8815     1  0.0000000  0.0000000  3
   8816   8817   8820   8824     1  0.0000000  0.6508444  3
   8816   8817   8829   8832     1  0.0000000  1.0460000  1
   8816   8817   8829   8832     1  0.0000000  0.6694400  3
   8816   8830   8836   8837     1  0.0000000  1.0460000  1
   8816   8830   8836   8837     1  0.0000000  0.6694400  3
   8816   8838   8822   8825     1  0.0000000  1.6038667  3
   8817   8816   8830   8834     1  0.0000000  0.6508444  3
   8817   8816   8830   8835     1  0.0000000  0.6508444  3
   8817   8820   8821   8823     1  0.0000000  0.6508444  3
   8817   8820   8828   8831     1  0.0000000  1.0460000  1
   8817   8820   8828   8831     1  0.0000000  0.6694400  3
   8818   8816   8817   8820     1  0.0000000  0.6508444  3
   8818   8816   8817   8829     1  0.0000000  1.0460000  1
   8818   8816   8817   8829     1  0.0000000  0.0000000  3
   8818   8816   8817   8819     1  0.0000000  0.6508444  3
   8818   8816   8830   8836     1  0.0000000  1.0460000  1
   8818   8816   8830   8836     1  0.0000000  0.0000000  3
   8818   8816   8830   8834     1  0.0000000  0.6508444  3
   8818   8816   8830   8835     1  0.0000000  0.6508444  3
   8818   8816   8838   8822     1  0.0000000  1.6038667  3
   8819   8817   8816   8830     1  0.0000000  0.6508444  3
   8819   8817   8816   8838     1  0.0000000  1.0460000  1
   8819   8817   8816   8838     1  0.0000000  0.0000000  3
   8819   8817   8820   8821     1  0.0000000  0.6508444  3
   8819   8817   8820   8828     1  0.0000000  1.0460000  1
   8819   8817   8820   8828     1  0.0000000  0.0000000  3
   8819   8817   8820   8824     1  0.0000000  0.6508444  3
   8819   8817   8829   8832     1  0.0000000  0.6973333  3
   8820   8817   8829   8832     1  0.0000000  1.0460000  1
   8820   8817   8829   8832     1  0.0000000  0.6694400  3
   8820   8821   8822   8825     1  0.0000000  0.6508444  3
   8820   8821   8827   8833     1  0.0000000  1.0460000  1
   8820   8821   8827   8833     1  0.0000000  0.6694400  3
   8821   8820   8828   8831     1  0.0000000  1.0460000  1
   8821   8820   8828   8831     1  0.0000000  0.6694400  3
   8822   8821   8820   8824     1  0.0000000  0.6508444  3
   8822   8821   8827   8833     1  0.0000000  1.0460000  1
   8822   8821   8827   8833     1  0.0000000  0.6694400  3
   8823   8821   8820   8828     1  0.0000000  1.0460000  1
   8823   8821   8820   8828     1  0.0000000  0.0000000  3
   8823   8821   8820   8824     1  0.0000000  0.6508444  3
   8823   8821   8822   8826     1  0.0000000  1.0460000  1
   8823   8821   8822   8826     1  0.0000000  0.0000000  3
   8823   8821   8822   8838     1  0.0000000  1.0460000  1
   8823   8821   8822   8838     1  0.0000000  0.0000000  3
   8823   8821   8822   8825     1  0.0000000  0.6508444  3
   8823   8821   8827   8833     1  0.0000000  0.6973333  3
   8824   8820   8817   8829     1  0.0000000  1.0460000  1
   8824   8820   8817   8829     1  0.0000000  0.0000000  3
   8824   8820   8821   8827     1  0.0000000  1.0460000  1
   8824   8820   8821   8827     1  0.0000000  0.0000000  3
   8824   8820   8828   8831     1  0.0000000  0.6973333  3
   8825   8822   8821   8827     1  0.0000000  0.6508444  3
   8834   8830   8816   8838     1  0.0000000  1.0460000  1
   8834   8830   8816   8838     1  0.0000000  0.0000000  3
   8834   8830   8836   8837     1  0.0000000  0.6973333  3
   8835   8830   8816   8838     1  0.0000000  1.0460000  1
   8835   8830   8816   8838     1  0.0000000  0.0000000  3
   8835   8830   8836   8837     1  0.0000000  0.6973333  3
   8839   8840   8843   8847     1  0.0000000  0.6508444  3
   8839   8840   8852   8855     1  0.0000000  1.0460000  1
   8839   8840   8852   8855     1  0.0000000  0.6694400  3
   8839   8853   8859   8860     1  0.0000000  1.0460000  1
   8839   8853   8859   8860     1  0.0000000  0.6694400  3
   8839   8861   8845   8848     1  0.0000000  1.6038667  3
   8840   8843   8844   8846     1  0.0000000  0.6508444  3
   8840   8843   8851   8854     1  0.0000000  1.0460000  1
   8840   8843   8851   8854     1  0.0000000  0.6694400  3
   8840   8839   8853   8857     1  0.0000000  0.6508444  3
   8840   8839   8853   8858     1  0.0000000  0.6508444  3
   8841   8839   8840   8843     1  0.0000000  0.6508444  3
   8841   8839   8840   8852     1  0.0000000  1.0460000  1
   8841   8839   8840   8852     1  0.0000000  0.0000000  3
   8841   8839   8840   8842     1  0.0000000  0.6508444  3
   8841   8839   8853   8859     1  0.0000000  1.0460000  1
   8841   8839   8853   8859     1  0.0000000  0.0000000  3
   8841   8839   8853   8857     1  0.0000000  0.6508444  3
   8841   8839   8853   8858     1  0.0000000  0.6508444  3
   8841   8839   8861   8845     1  0.0000000  1.6038667  3
   8842   8840   8843   8844     1  0.0000000  0.6508444  3
   8842   8840   8843   8851     1  0.0000000  1.0460000  1
   8842   8840   8843   8851     1  0.0000000  0.0000000  3
   8842   8840   8843   8847     1  0.0000000  0.6508444  3
   8842   8840   8852   8855     1  0.0000000  0.6973333  3
   8842   8840   8839   8853     1  0.0000000  0.6508444  3
   8842   8840   8839   8861     1  0.0000000  1.0460000  1
   8842   8840   8839   8861     1  0.0000000  0.0000000  3
   8843   8844   8845   8848     1  0.0000000  0.6508444  3
   8843   8844   8850   8856     1  0.0000000  1.0460000  1
   8843   8844   8850   8856     1  0.0000000  0.6694400  3
   8843   8840   8852   8855     1  0.0000000  1.0460000  1
   8843   8840   8852   8855     1  0.0000000  0.6694400  3
   8844   8843   8851   8854     1  0.0000000  1.0460000  1
   8844   8843   8851   8854     1  0.0000000  0.6694400  3
   8845   8844   8850   8856     1  0.0000000  1.0460000  1
   8845   8844   8850   8856     1  0.0000000  0.6694400  3
   8845   8844   8843   8847     1  0.0000000  0.6508444  3
   8846   8844   8845   8849     1  0.0000000  1.0460000  1
   8846   8844   8845   8849     1  0.0000000  0.0000000  3
   8846   8844   8845   8861     1  0.0000000  1.0460000  1
   8846   8844   8845   8861     1  0.0000000  0.0000000  3
   8846   8844   8845   8848     1  0.0000000  0.6508444  3
   8846   8844   8850   8856     1  0.0000000  0.6973333  3
   8846   8844   8843   8851     1  0.0000000  1.0460000  1
   8846   8844   8843   8851     1  0.0000000  0.0000000  3
   8846   8844   8843   8847     1  0.0000000  0.6508444  3
   8847   8843   8844   8850     1  0.0000000  1.0460000  1
   8847   8843   8844   8850     1  0.0000000  0.0000000  3
   8847   8843   8851   8854     1  0.0000000  0.6973333  3
   8847   8843   8840   8852     1  0.0000000  1.0460000  1
   8847   8843   8840   8852     1  0.0000000  0.0000000  3
   8848   8845   8844   8850     1  0.0000000  0.6508444  3
   8857   8853   8859   8860     1  0.0000000  0.6973333  3
   8857   8853   8839   8861     1  0.0000000  1.0460000  1
   8857   8853   8839   8861     1  0.0000000  0.0000000  3
   8858   8853   8859   8860     1  0.0000000  0.6973333  3
   8858   8853   8839   8861     1  0.0000000  1.0460000  1
   8858   8853   8839   8861     1  0.0000000  0.0000000  3
   8862   8863   8866   8870     1  0.0000000  0.6508444  3
   8862   8863   8875   8878     1  0.0000000  1.0460000  1
   8862   8863   8875   8878     1  0.0000000  0.6694400  3
   8862   8876   8882   8883     1  0.0000000  1.0460000  1
   8862   8876   8882   8883     1  0.0000000  0.6694400  3
   8862   8884   8868   8871     1  0.0000000  1.6038667  3
   8863   8862   8876   8880     1  0.0000000  0.6508444  3
   8863   8862   8876   8881     1  0.0000000  0.6508444  3
   8863   8866   8867   8869     1  0.0000000  0.6508444  3
   8863   8866   8874   8877     1  0.0000000  1.0460000  1
   8863   8866   8874   8877     1  0.0000000  0.6694400  3
   8864   8862   8863   8866     1  0.0000000  0.6508444  3
   8864   8862   8863   8875     1  0.0000000  1.0460000  1
   8864   8862   8863   8875     1  0.0000000  0.0000000  3
   8864   8862   8863   8865     1  0.0000000  0.6508444  3
   8864   8862   8876   8882     1  0.0000000  1.0460000  1
   8864   8862   8876   8882     1  0.0000000  0.0000000  3
   8864   8862   8876   8880     1  0.0000000  0.6508444  3
   8864   8862   8876   8881     1  0.0000000  0.6508444  3
   8864   8862   8884   8868     1  0.0000000  1.6038667  3
   8865   8863   8862   8876     1  0.0000000  0.6508444  3
   8865   8863   8862   8884     1  0.0000000  1.0460000  1
   8865   8863   8862   8884     1  0.0000000  0.0000000  3
   8865   8863   8866   8867     1  0.0000000  0.6508444  3
   8865   8863   8866   8874     1  0.0000000  1.0460000  1
   8865   8863   8866   8874     1  0.0000000  0.0000000  3
   8865   8863   8866   8870     1  0.0000000  0.6508444  3
   8865   8863   8875   8878     1  0.0000000  0.6973333  3
   8866   8863   8875   8878     1  0.0000000  1.0460000  1
   8866   8863   8875   8878     1  0.0000000  0.6694400  3
   8866   8867   8868   8871     1  0.0000000  0.6508444  3
   8866   8867   8873   8879     1  0.0000000  1.0460000  1
   8866   8867   8873   8879     1  0.0000000  0.6694400  3
   8867   8866   8874   8877     1  0.0000000  1.0460000  1
   8867   8866   8874   8877     1  0.0000000  0.6694400  3
   8868   8867   8866   8870     1  0.0000000  0.6508444  3
   8868   8867   8873   8879     1  0.0000000  1.0460000  1
   8868   8867   8873   8879     1  0.0000000  0.6694400  3
   8869   8867   8866   8874     1  0.0000000  1.0460000  1
   8869   8867   8866   8874     1  0.0000000  0.0000000  3
   8869   8867   8866   8870     1  0.0000000  0.6508444  3
   8869   8867   8868   8872     1  0.0000000  1.0460000  1
   8869   8867   8868   8872     1  0.0000000  0.0000000  3
   8869   8867   8868   8884     1  0.0000000  1.0460000  1
   8869   8867   8868   8884     1  0.0000000  0.0000000  3
   8869   8867   8868   8871     1  0.0000000  0.6508444  3
   8869   8867   8873   8879     1  0.0000000  0.6973333  3
   8870   8866   8863   8875     1  0.0000000  1.0460000  1
   8870   8866   8863   8875     1  0.0000000  0.0000000  3
   8870   8866   8867   8873     1  0.0000000  1.0460000  1
   8870   8866   8867   8873     1  0.0000000  0.0000000  3
   8870   8866   8874   8877     1  0.0000000  0.6973333  3
   8871   8868   8867   8873     1  0.0000000  0.6508444  3
   8880   8876   8862   8884     1  0.0000000  1.0460000  1
   8880   8876   8862   8884     1  0.0000000  0.0000000  3
   8880   8876   8882   8883     1  0.0000000  0.6973333  3
   8881   8876   8862   8884     1  0.0000000  1.0460000  1
   8881   8876   8862   8884     1  0.0000000  0.0000000  3
   8881   8876   8882   8883     1  0.0000000  0.6973333  3
   8885   8886   8889   8893     1  0.0000000  0.6508444  3
   8885   8886   8898   8901     1  0.0000000  1.0460000  1
   8885   8886   8898   8901     1  0.0000000  0.6694400  3
   8885   8899   8905   8906     1  0.0000000  1.0460000  1
   8885   8899   8905   8906     1  0.0000000  0.6694400  3
   8885   8907   8891   8894     1  0.0000000  1.6038667  3
   8886   8889   8890   8892     1  0.0000000  0.6508444  3
   8886   8889   8897   8900     1  0.0000000  1.0460000  1
   8886   8889   8897   8900     1  0.0000000  0.6694400  3
   8886   8885   8899   8903     1  0.0000000  0.6508444  3
   8886   8885   8899   8904     1  0.0000000  0.6508444  3
   8887   8885   8886   8889     1  0.0000000  0.6508444  3
   8887   8885   8886   8898     1  0.0000000  1.0460000  1
   8887   8885   8886   8898     1  0.0000000  0.0000000  3
   8887   8885   8886   8888     1  0.0000000  0.6508444  3
   8887   8885   8899   8905     1  0.0000000  1.0460000  1
   8887   8885   8899   8905     1  0.0000000  0.0000000  3
   8887   8885   8899   8903     1  0.0000000  0.6508444  3
   8887   8885   8899   8904     1  0.0000000  0.6508444  3
   8887   8885   8907   8891     1  0.0000000  1.6038667  3
   8888   8886   8889   8890     1  0.0000000  0.6508444  3
   8888   8886   8889   8897     1  0.0000000  1.0460000  1
   8888   8886   8889   8897     1  0.0000000  0.0000000  3
   8888   8886   8889   8893     1  0.0000000  0.6508444  3
   8888   8886   8898   8901     1  0.0000000  0.6973333  3
   8888   8886   8885   8899     1  0.0000000  0.6508444  3
   8888   8886   8885   8907     1  0.0000000  1.0460000  1
   8888   8886   8885   8907     1  0.0000000  0.0000000  3
   8889   8890   8891   8894     1  0.0000000  0.6508444  3
   8889   8890   8896   8902     1  0.0000000  1.0460000  1
   8889   8890   8896   8902     1  0.0000000  0.6694400  3
   8889   8886   8898   8901     1  0.0000000  1.0460000  1
   8889   8886   8898   8901     1  0.0000000  0.6694400  3
   8890   8889   8897   8900     1  0.0000000  1.0460000  1
   8890   8889   8897   8900     1  0.0000000  0.6694400  3
   8891   8890   8896   8902     1  0.0000000  1.0460000  1
   8891   8890   8896   8902     1  0.0000000  0.6694400  3
   8891   8890   8889   8893     1  0.0000000  0.6508444  3
   8892   8890   8891   8895     1  0.0000000  1.0460000  1
   8892   8890   8891   8895     1  0.0000000  0.0000000  3
   8892   8890   8891   8907     1  0.0000000  1.0460000  1
   8892   8890   8891   8907     1  0.0000000  0.0000000  3
   8892   8890   8891   8894     1  0.0000000  0.6508444  3
   8892   8890   8896   8902     1  0.0000000  0.6973333  3
   8892   8890   8889   8897     1  0.0000000  1.0460000  1
   8892   8890   8889   8897     1  0.0000000  0.0000000  3
   8892   8890   8889   8893     1  0.0000000  0.6508444  3
   8893   8889   8890   8896     1  0.0000000  1.0460000  1
   8893   8889   8890   8896     1  0.0000000  0.0000000  3
   8893   8889   8897   8900     1  0.0000000  0.6973333  3
   8893   8889   8886   8898     1  0.0000000  1.0460000  1
   8893   8889   8886   8898     1  0.0000000  0.0000000  3
   8894   8891   8890   8896     1  0.0000000  0.6508444  3
   8903   8899   8905   8906     1  0.0000000  0.6973333  3
   8903   8899   8885   8907     1  0.0000000  1.0460000  1
   8903   8899   8885   8907     1  0.0000000  0.0000000  3
   8904   8899   8905   8906     1  0.0000000  0.6973333  3
   8904   8899   8885   8907     1  0.0000000  1.0460000  1
   8904   8899   8885   8907     1  0.0000000  0.0000000  3
   8908   8909   8912   8916     1  0.0000000  0.6508444  3
   8908   8909   8921   8924     1  0.0000000  1.0460000  1
   8908   8909   8921   8924     1  0.0000000  0.6694400  3
   8908   8922   8928   8929     1  0.0000000  1.0460000  1
   8908   8922   8928   8929     1  0.0000000  0.6694400  3
   8908   8930   8914   8917     1  0.0000000  1.6038667  3
   8909   8908   8922   8926     1  0.0000000  0.6508444  3
   8909   8908   8922   8927     1  0.0000000  0.6508444  3
   8909   8912   8913   8915     1  0.0000000  0.6508444  3
   8909   8912   8920   8923     1  0.0000000  1.0460000  1
   8909   8912   8920   8923     1  0.0000000  0.6694400  3
   8910   8908   8909   8912     1  0.0000000  0.6508444  3
   8910   8908   8909   8921     1  0.0000000  1.0460000  1
   8910   8908   8909   8921     1  0.0000000  0.0000000  3
   8910   8908   8909   8911     1  0.0000000  0.6508444  3
   8910   8908   8922   8928     1  0.0000000  1.0460000  1
   8910   8908   8922   8928     1  0.0000000  0.0000000  3
   8910   8908   8922   8926     1  0.0000000  0.6508444  3
   8910   8908   8922   8927     1  0.0000000  0.6508444  3
   8910   8908   8930   8914     1  0.0000000  1.6038667  3
   8911   8909   8908   8922     1  0.0000000  0.6508444  3
   8911   8909   8908   8930     1  0.0000000  1.0460000  1
   8911   8909   8908   8930     1  0.0000000  0.0000000  3
   8911   8909   8912   8913     1  0.0000000  0.6508444  3
   8911   8909   8912   8920     1  0.0000000  1.0460000  1
   8911   8909   8912   8920     1  0.0000000  0.0000000  3
   8911   8909   8912   8916     1  0.0000000  0.6508444  3
   8911   8909   8921   8924     1  0.0000000  0.6973333  3
   8912   8909   8921   8924     1  0.0000000  1.0460000  1
   8912   8909   8921   8924     1  0.0000000  0.6694400  3
   8912   8913   8914   8917     1  0.0000000  0.6508444  3
   8912   8913   8919   8925     1  0.0000000  1.0460000  1
   8912   8913   8919   8925     1  0.0000000  0.6694400  3
   8913   8912   8920   8923     1  0.0000000  1.0460000  1
   8913   8912   8920   8923     1  0.0000000  0.6694400  3
   8914   8913   8912   8916     1  0.0000000  0.6508444  3
   8914   8913   8919   8925     1  0.0000000  1.0460000  1
   8914   8913   8919   8925     1  0.0000000  0.6694400  3
   8915   8913   8912   8920     1  0.0000000  1.0460000  1
   8915   8913   8912   8920     1  0.0000000  0.0000000  3
   8915   8913   8912   8916     1  0.0000000  0.6508444  3
   8915   8913   8914   8918     1  0.0000000  1.0460000  1
   8915   8913   8914   8918     1  0.0000000  0.0000000  3
   8915   8913   8914   8930     1  0.0000000  1.0460000  1
   8915   8913   8914   8930     1  0.0000000  0.0000000  3
   8915   8913   8914   8917     1  0.0000000  0.6508444  3
   8915   8913   8919   8925     1  0.0000000  0.6973333  3
   8916   8912   8909   8921     1  0.0000000  1.0460000  1
   8916   8912   8909   8921     1  0.0000000  0.0000000  3
   8916   8912   8913   8919     1  0.0000000  1.0460000  1
   8916   8912   8913   8919     1  0.0000000  0.0000000  3
   8916   8912   8920   8923     1  0.0000000  0.6973333  3
   8917   8914   8913   8919     1  0.0000000  0.6508444  3
   8926   8922   8908   8930     1  0.0000000  1.0460000  1
   8926   8922   8908   8930     1  0.0000000  0.0000000  3
   8926   8922   8928   8929     1  0.0000000  0.6973333  3
   8927   8922   8908   8930     1  0.0000000  1.0460000  1
   8927   8922   8908   8930     1  0.0000000  0.0000000  3
   8927   8922   8928   8929     1  0.0000000  0.6973333  3
   8931   8932   8935   8939     1  0.0000000  0.6508444  3
   8931   8932   8944   8947     1  0.0000000  1.0460000  1
   8931   8932   8944   8947     1  0.0000000  0.6694400  3
   8931   8945   8951   8952     1  0.0000000  1.0460000  1
   8931   8945   8951   8952     1  0.0000000  0.6694400  3
   8931   8953   8937   8940     1  0.0000000  1.6038667  3
   8932   8935   8936   8938     1  0.0000000  0.6508444  3
   8932   8935   8943   8946     1  0.0000000  1.0460000  1
   8932   8935   8943   8946     1  0.0000000  0.6694400  3
   8932   8931   8945   8949     1  0.0000000  0.6508444  3
   8932   8931   8945   8950     1  0.0000000  0.6508444  3
   8933   8931   8932   8935     1  0.0000000  0.6508444  3
   8933   8931   8932   8944     1  0.0000000  1.0460000  1
   8933   8931   8932   8944     1  0.0000000  0.0000000  3
   8933   8931   8932   8934     1  0.0000000  0.6508444  3
   8933   8931   8945   8951     1  0.0000000  1.0460000  1
   8933   8931   8945   8951     1  0.0000000  0.0000000  3
   8933   8931   8945   8949     1  0.0000000  0.6508444  3
   8933   8931   8945   8950     1  0.0000000  0.6508444  3
   8933   8931   8953   8937     1  0.0000000  1.6038667  3
   8934   8932   8935   8936     1  0.0000000  0.6508444  3
   8934   8932   8935   8943     1  0.0000000  1.0460000  1
   8934   8932   8935   8943     1  0.0000000  0.0000000  3
   8934   8932   8935   8939     1  0.0000000  0.6508444  3
   8934   8932   8944   8947     1  0.0000000  0.6973333  3
   8934   8932   8931   8945     1  0.0000000  0.6508444  3
   8934   8932   8931   8953     1  0.0000000  1.0460000  1
   8934   8932   8931   8953     1  0.0000000  0.0000000  3
   8935   8936   8937   8940     1  0.0000000  0.6508444  3
   8935   8936   8942   8948     1  0.0000000  1.0460000  1
   8935   8936   8942   8948     1  0.0000000  0.6694400  3
   8935   8932   8944   8947     1  0.0000000  1.0460000  1
   8935   8932   8944   8947     1  0.0000000  0.6694400  3
   8936   8935   8943   8946     1  0.0000000  1.0460000  1
   8936   8935   8943   8946     1  0.0000000  0.6694400  3
   8937   8936   8942   8948     1  0.0000000  1.0460000  1
   8937   8936   8942   8948     1  0.0000000  0.6694400  3
   8937   8936   8935   8939     1  0.0000000  0.6508444  3
   8938   8936   8937   8941     1  0.0000000  1.0460000  1
   8938   8936   8937   8941     1  0.0000000  0.0000000  3
   8938   8936   8937   8953     1  0.0000000  1.0460000  1
   8938   8936   8937   8953     1  0.0000000  0.0000000  3
   8938   8936   8937   8940     1  0.0000000  0.6508444  3
   8938   8936   8942   8948     1  0.0000000  0.6973333  3
   8938   8936   8935   8943     1  0.0000000  1.0460000  1
   8938   8936   8935   8943     1  0.0000000  0.0000000  3
   8938   8936   8935   8939     1  0.0000000  0.6508444  3
   8939   8935   8936   8942     1  0.0000000  1.0460000  1
   8939   8935   8936   8942     1  0.0000000  0.0000000  3
   8939   8935   8943   8946     1  0.0000000  0.6973333  3
   8939   8935   8932   8944     1  0.0000000  1.0460000  1
   8939   8935   8932   8944     1  0.0000000  0.0000000  3
   8940   8937   8936   8942     1  0.0000000  0.6508444  3
   8949   8945   8951   8952     1  0.0000000  0.6973333  3
   8949   8945   8931   8953     1  0.0000000  1.0460000  1
   8949   8945   8931   8953     1  0.0000000  0.0000000  3
   8950   8945   8951   8952     1  0.0000000  0.6973333  3
   8950   8945   8931   8953     1  0.0000000  1.0460000  1
   8950   8945   8931   8953     1  0.0000000  0.0000000  3
   8954   8955   8958   8962     1  0.0000000  0.6508444  3
   8954   8955   8967   8970     1  0.0000000  1.0460000  1
   8954   8955   8967   8970     1  0.0000000  0.6694400  3
   8954   8968   8974   8975     1  0.0000000  1.0460000  1
   8954   8968   8974   8975     1  0.0000000  0.6694400  3
   8954   8976   8960   8963     1  0.0000000  1.6038667  3
   8955   8954   8968   8972     1  0.0000000  0.6508444  3
   8955   8954   8968   8973     1  0.0000000  0.6508444  3
   8955   8958   8959   8961     1  0.0000000  0.6508444  3
   8955   8958   8966   8969     1  0.0000000  1.0460000  1
   8955   8958   8966   8969     1  0.0000000  0.6694400  3
   8956   8954   8955   8958     1  0.0000000  0.6508444  3
   8956   8954   8955   8967     1  0.0000000  1.0460000  1
   8956   8954   8955   8967     1  0.0000000  0.0000000  3
   8956   8954   8955   8957     1  0.0000000  0.6508444  3
   8956   8954   8968   8974     1  0.0000000  1.0460000  1
   8956   8954   8968   8974     1  0.0000000  0.0000000  3
   8956   8954   8968   8972     1  0.0000000  0.6508444  3
   8956   8954   8968   8973     1  0.0000000  0.6508444  3
   8956   8954   8976   8960     1  0.0000000  1.6038667  3
   8957   8955   8954   8968     1  0.0000000  0.6508444  3
   8957   8955   8954   8976     1  0.0000000  1.0460000  1
   8957   8955   8954   8976     1  0.0000000  0.0000000  3
   8957   8955   8958   8959     1  0.0000000  0.6508444  3
   8957   8955   8958   8966     1  0.0000000  1.0460000  1
   8957   8955   8958   8966     1  0.0000000  0.0000000  3
   8957   8955   8958   8962     1  0.0000000  0.6508444  3
   8957   8955   8967   8970     1  0.0000000  0.6973333  3
   8958   8955   8967   8970     1  0.0000000  1.0460000  1
   8958   8955   8967   8970     1  0.0000000  0.6694400  3
   8958   8959   8960   8963     1  0.0000000  0.6508444  3
   8958   8959   8965   8971     1  0.0000000  1.0460000  1
   8958   8959   8965   8971     1  0.0000000  0.6694400  3
   8959   8958   8966   8969     1  0.0000000  1.0460000  1
   8959   8958   8966   8969     1  0.0000000  0.6694400  3
   8960   8959   8958   8962     1  0.0000000  0.6508444  3
   8960   8959   8965   8971     1  0.0000000  1.0460000  1
   8960   8959   8965   8971     1  0.0000000  0.6694400  3
   8961   8959   8958   8966     1  0.0000000  1.0460000  1
   8961   8959   8958   8966     1  0.0000000  0.0000000  3
   8961   8959   8958   8962     1  0.0000000  0.6508444  3
   8961   8959   8960   8964     1  0.0000000  1.0460000  1
   8961   8959   8960   8964     1  0.0000000  0.0000000  3
   8961   8959   8960   8976     1  0.0000000  1.0460000  1
   8961   8959   8960   8976     1  0.0000000  0.0000000  3
   8961   8959   8960   8963     1  0.0000000  0.6508444  3
   8961   8959   8965   8971     1  0.0000000  0.6973333  3
   8962   8958   8955   8967     1  0.0000000  1.0460000  1
   8962   8958   8955   8967     1  0.0000000  0.0000000  3
   8962   8958   8959   8965     1  0.0000000  1.0460000  1
   8962   8958   8959   8965     1  0.0000000  0.0000000  3
   8962   8958   8966   8969     1  0.0000000  0.6973333  3
   8963   8960   8959   8965     1  0.0000000  0.6508444  3
   8972   8968   8954   8976     1  0.0000000  1.0460000  1
   8972   8968   8954   8976     1  0.0000000  0.0000000  3
   8972   8968   8974   8975     1  0.0000000  0.6973333  3
   8973   8968   8954   8976     1  0.0000000  1.0460000  1
   8973   8968   8954   8976     1  0.0000000  0.0000000  3
   8973   8968   8974   8975     1  0.0000000  0.6973333  3
   8977   8978   8981   8985     1  0.0000000  0.6508444  3
   8977   8978   8990   8993     1  0.0000000  1.0460000  1
   8977   8978   8990   8993     1  0.0000000  0.6694400  3
   8977   8991   8997   8998     1  0.0000000  1.0460000  1
   8977   8991   8997   8998     1  0.0000000  0.6694400  3
   8977   8999   8983   8986     1  0.0000000  1.6038667  3
   8978   8981   8982   8984     1  0.0000000  0.6508444  3
   8978   8981   8989   8992     1  0.0000000  1.0460000  1
   8978   8981   8989   8992     1  0.0000000  0.6694400  3
   8978   8977   8991   8995     1  0.0000000  0.6508444  3
   8978   8977   8991   8996     1  0.0000000  0.6508444  3
   8979   8977   8978   8981     1  0.0000000  0.6508444  3
   8979   8977   8978   8990     1  0.0000000  1.0460000  1
   8979   8977   8978   8990     1  0.0000000  0.0000000  3
   8979   8977   8978   8980     1  0.0000000  0.6508444  3
   8979   8977   8991   8997     1  0.0000000  1.0460000  1
   8979   8977   8991   8997     1  0.0000000  0.0000000  3
   8979   8977   8991   8995     1  0.0000000  0.6508444  3
   8979   8977   8991   8996     1  0.0000000  0.6508444  3
   8979   8977   8999   8983     1  0.0000000  1.6038667  3
   8980   8978   8981   8982     1  0.0000000  0.6508444  3
   8980   8978   8981   8989     1  0.0000000  1.0460000  1
   8980   8978   8981   8989     1  0.0000000  0.0000000  3
   8980   8978   8981   8985     1  0.0000000  0.6508444  3
   8980   8978   8990   8993     1  0.0000000  0.6973333  3
   8980   8978   8977   8991     1  0.0000000  0.6508444  3
   8980   8978   8977   8999     1  0.0000000  1.0460000  1
   8980   8978   8977   8999     1  0.0000000  0.0000000  3
   8981   8982   8983   8986     1  0.0000000  0.6508444  3
   8981   8982   8988   8994     1  0.0000000  1.0460000  1
   8981   8982   8988   8994     1  0.0000000  0.6694400  3
   8981   8978   8990   8993     1  0.0000000  1.0460000  1
   8981   8978   8990   8993     1  0.0000000  0.6694400  3
   8982   8981   8989   8992     1  0.0000000  1.0460000  1
   8982   8981   8989   8992     1  0.0000000  0.6694400  3
   8983   8982   8988   8994     1  0.0000000  1.0460000  1
   8983   8982   8988   8994     1  0.0000000  0.6694400  3
   8983   8982   8981   8985     1  0.0000000  0.6508444  3
   8984   8982   8983   8987     1  0.0000000  1.0460000  1
   8984   8982   8983   8987     1  0.0000000  0.0000000  3
   8984   8982   8983   8999     1  0.0000000  1.0460000  1
   8984   8982   8983   8999     1  0.0000000  0.0000000  3
   8984   8982   8983   8986     1  0.0000000  0.6508444  3
   8984   8982   8988   8994     1  0.0000000  0.6973333  3
   8984   8982   8981   8989     1  0.0000000  1.0460000  1
   8984   8982   8981   8989     1  0.0000000  0.0000000  3
   8984   8982   8981   8985     1  0.0000000  0.6508444  3
   8985   8981   8982   8988     1  0.0000000  1.0460000  1
   8985   8981   8982   8988     1  0.0000000  0.0000000  3
   8985   8981   8989   8992     1  0.0000000  0.6973333  3
   8985   8981   8978   8990     1  0.0000000  1.0460000  1
   8985   8981   8978   8990     1  0.0000000  0.0000000  3
   8986   8983   8982   8988     1  0.0000000  0.6508444  3
   8995   8991   8997   8998     1  0.0000000  0.6973333  3
   8995   8991   8977   8999     1  0.0000000  1.0460000  1
   8995   8991   8977   8999     1  0.0000000  0.0000000  3
   8996   8991   8997   8998     1  0.0000000  0.6973333  3
   8996   8991   8977   8999     1  0.0000000  1.0460000  1
   8996   8991   8977   8999     1  0.0000000  0.0000000  3
   9000   9001   9004   9008     1  0.0000000  0.6508444  3
   9000   9001   9013   9016     1  0.0000000  1.0460000  1
   9000   9001   9013   9016     1  0.0000000  0.6694400  3
   9000   9014   9020   9021     1  0.0000000  1.0460000  1
   9000   9014   9020   9021     1  0.0000000  0.6694400  3
   9000   9022   9006   9009     1  0.0000000  1.6038667  3
   9001   9000   9014   9018     1  0.0000000  0.6508444  3
   9001   9000   9014   9019     1  0.0000000  0.6508444  3
   9001   9004   9005   9007     1  0.0000000  0.6508444  3
   9001   9004   9012   9015     1  0.0000000  1.0460000  1
   9001   9004   9012   9015     1  0.0000000  0.6694400  3
   9002   9000   9001   9004     1  0.0000000  0.6508444  3
   9002   9000   9001   9013     1  0.0000000  1.0460000  1
   9002   9000   9001   9013     1  0.0000000  0.0000000  3
   9002   9000   9001   9003     1  0.0000000  0.6508444  3
   9002   9000   9014   9020     1  0.0000000  1.0460000  1
   9002   9000   9014   9020     1  0.0000000  0.0000000  3
   9002   9000   9014   9018     1  0.0000000  0.6508444  3
   9002   9000   9014   9019     1  0.0000000  0.6508444  3
   9002   9000   9022   9006     1  0.0000000  1.6038667  3
   9003   9001   9000   9014     1  0.0000000  0.6508444  3
   9003   9001   9000   9022     1  0.0000000  1.0460000  1
   9003   9001   9000   9022     1  0.0000000  0.0000000  3
   9003   9001   9004   9005     1  0.0000000  0.6508444  3
   9003   9001   9004   9012     1  0.0000000  1.0460000  1
   9003   9001   9004   9012     1  0.0000000  0.0000000  3
   9003   9001   9004   9008     1  0.0000000  0.6508444  3
   9003   9001   9013   9016     1  0.0000000  0.6973333  3
   9004   9001   9013   9016     1  0.0000000  1.0460000  1
   9004   9001   9013   9016     1  0.0000000  0.6694400  3
   9004   9005   9006   9009     1  0.0000000  0.6508444  3
   9004   9005   9011   9017     1  0.0000000  1.0460000  1
   9004   9005   9011   9017     1  0.0000000  0.6694400  3
   9005   9004   9012   9015     1  0.0000000  1.0460000  1
   9005   9004   9012   9015     1  0.0000000  0.6694400  3
   9006   9005   9004   9008     1  0.0000000  0.6508444  3
   9006   9005   9011   9017     1  0.0000000  1.0460000  1
   9006   9005   9011   9017     1  0.0000000  0.6694400  3
   9007   9005   9004   9012     1  0.0000000  1.0460000  1
   9007   9005   9004   9012     1  0.0000000  0.0000000  3
   9007   9005   9004   9008     1  0.0000000  0.6508444  3
   9007   9005   9006   9010     1  0.0000000  1.0460000  1
   9007   9005   9006   9010     1  0.0000000  0.0000000  3
   9007   9005   9006   9022     1  0.0000000  1.0460000  1
   9007   9005   9006   9022     1  0.0000000  0.0000000  3
   9007   9005   9006   9009     1  0.0000000  0.6508444  3
   9007   9005   9011   9017     1  0.0000000  0.6973333  3
   9008   9004   9001   9013     1  0.0000000  1.0460000  1
   9008   9004   9001   9013     1  0.0000000  0.0000000  3
   9008   9004   9005   9011     1  0.0000000  1.0460000  1
   9008   9004   9005   9011     1  0.0000000  0.0000000  3
   9008   9004   9012   9015     1  0.0000000  0.6973333  3
   9009   9006   9005   9011     1  0.0000000  0.6508444  3
   9018   9014   9000   9022     1  0.0000000  1.0460000  1
   9018   9014   9000   9022     1  0.0000000  0.0000000  3
   9018   9014   9020   9021     1  0.0000000  0.6973333  3
   9019   9014   9000   9022     1  0.0000000  1.0460000  1
   9019   9014   9000   9022     1  0.0000000  0.0000000  3
   9019   9014   9020   9021     1  0.0000000  0.6973333  3
   9023   9024   9027   9031     1  0.0000000  0.6508444  3
   9023   9024   9036   9039     1  0.0000000  1.0460000  1
   9023   9024   9036   9039     1  0.0000000  0.6694400  3
   9023   9037   9043   9044     1  0.0000000  1.0460000  1
   9023   9037   9043   9044     1  0.0000000  0.6694400  3
   9023   9045   9029   9032     1  0.0000000  1.6038667  3
   9024   9027   9028   9030     1  0.0000000  0.6508444  3
   9024   9027   9035   9038     1  0.0000000  1.0460000  1
   9024   9027   9035   9038     1  0.0000000  0.6694400  3
   9024   9023   9037   9041     1  0.0000000  0.6508444  3
   9024   9023   9037   9042     1  0.0000000  0.6508444  3
   9025   9023   9024   9027     1  0.0000000  0.6508444  3
   9025   9023   9024   9036     1  0.0000000  1.0460000  1
   9025   9023   9024   9036     1  0.0000000  0.0000000  3
   9025   9023   9024   9026     1  0.0000000  0.6508444  3
   9025   9023   9037   9043     1  0.0000000  1.0460000  1
   9025   9023   9037   9043     1  0.0000000  0.0000000  3
   9025   9023   9037   9041     1  0.0000000  0.6508444  3
   9025   9023   9037   9042     1  0.0000000  0.6508444  3
   9025   9023   9045   9029     1  0.0000000  1.6038667  3
   9026   9024   9027   9028     1  0.0000000  0.6508444  3
   9026   9024   9027   9035     1  0.0000000  1.0460000  1
   9026   9024   9027   9035     1  0.0000000  0.0000000  3
   9026   9024   9027   9031     1  0.0000000  0.6508444  3
   9026   9024   9036   9039     1  0.0000000  0.6973333  3
   9026   9024   9023   9037     1  0.0000000  0.6508444  3
   9026   9024   9023   9045     1  0.0000000  1.0460000  1
   9026   9024   9023   9045     1  0.0000000  0.0000000  3
   9027   9028   9029   9032     1  0.0000000  0.6508444  3
   9027   9028   9034   9040     1  0.0000000  1.0460000  1
   9027   9028   9034   9040     1  0.0000000  0.6694400  3
   9027   9024   9036   9039     1  0.0000000  1.0460000  1
   9027   9024   9036   9039     1  0.0000000  0.6694400  3
   9028   9027   9035   9038     1  0.0000000  1.0460000  1
   9028   9027   9035   9038     1  0.0000000  0.6694400  3
   9029   9028   9034   9040     1  0.0000000  1.0460000  1
   9029   9028   9034   9040     1  0.0000000  0.6694400  3
   9029   9028   9027   9031     1  0.0000000  0.6508444  3
   9030   9028   9029   9033     1  0.0000000  1.0460000  1
   9030   9028   9029   9033     1  0.0000000  0.0000000  3
   9030   9028   9029   9045     1  0.0000000  1.0460000  1
   9030   9028   9029   9045     1  0.0000000  0.0000000  3
   9030   9028   9029   9032     1  0.0000000  0.6508444  3
   9030   9028   9034   9040     1  0.0000000  0.6973333  3
   9030   9028   9027   9035     1  0.0000000  1.0460000  1
   9030   9028   9027   9035     1  0.0000000  0.0000000  3
   9030   9028   9027   9031     1  0.0000000  0.6508444  3
   9031   9027   9028   9034     1  0.0000000  1.0460000  1
   9031   9027   9028   9034     1  0.0000000  0.0000000  3
   9031   9027   9035   9038     1  0.0000000  0.6973333  3
   9031   9027   9024   9036     1  0.0000000  1.0460000  1
   9031   9027   9024   9036     1  0.0000000  0.0000000  3
   9032   9029   9028   9034     1  0.0000000  0.6508444  3
   9041   9037   9043   9044     1  0.0000000  0.6973333  3
   9041   9037   9023   9045     1  0.0000000  1.0460000  1
   9041   9037   9023   9045     1  0.0000000  0.0000000  3
   9042   9037   9043   9044     1  0.0000000  0.6973333  3
   9042   9037   9023   9045     1  0.0000000  1.0460000  1
   9042   9037   9023   9045     1  0.0000000  0.0000000  3
   9046   9047   9050   9054     1  0.0000000  0.6508444  3
   9046   9047   9059   9062     1  0.0000000  1.0460000  1
   9046   9047   9059   9062     1  0.0000000  0.6694400  3
   9046   9060   9066   9067     1  0.0000000  1.0460000  1
   9046   9060   9066   9067     1  0.0000000  0.6694400  3
   9046   9068   9052   9055     1  0.0000000  1.6038667  3
   9047   9046   9060   9064     1  0.0000000  0.6508444  3
   9047   9046   9060   9065     1  0.0000000  0.6508444  3
   9047   9050   9051   9053     1  0.0000000  0.6508444  3
   9047   9050   9058   9061     1  0.0000000  1.0460000  1
   9047   9050   9058   9061     1  0.0000000  0.6694400  3
   9048   9046   9047   9050     1  0.0000000  0.6508444  3
   9048   9046   9047   9059     1  0.0000000  1.0460000  1
   9048   9046   9047   9059     1  0.0000000  0.0000000  3
   9048   9046   9047   9049     1  0.0000000  0.6508444  3
   9048   9046   9060   9066     1  0.0000000  1.0460000  1
   9048   9046   9060   9066     1  0.0000000  0.0000000  3
   9048   9046   9060   9064     1  0.0000000  0.6508444  3
   9048   9046   9060   9065     1  0.0000000  0.6508444  3
   9048   9046   9068   9052     1  0.0000000  1.6038667  3
   9049   9047   9046   9060     1  0.0000000  0.6508444  3
   9049   9047   9046   9068     1  0.0000000  1.0460000  1
   9049   9047   9046   9068     1  0.0000000  0.0000000  3
   9049   9047   9050   9051     1  0.0000000  0.6508444  3
   9049   9047   9050   9058     1  0.0000000  1.0460000  1
   9049   9047   9050   9058     1  0.0000000  0.0000000  3
   9049   9047   9050   9054     1  0.0000000  0.6508444  3
   9049   9047   9059   9062     1  0.0000000  0.6973333  3
   9050   9047   9059   9062     1  0.0000000  1.0460000  1
   9050   9047   9059   9062     1  0.0000000  0.6694400  3
   9050   9051   9052   9055     1  0.0000000  0.6508444  3
   9050   9051   9057   9063     1  0.0000000  1.0460000  1
   9050   9051   9057   9063     1  0.0000000  0.6694400  3
   9051   9050   9058   9061     1  0.0000000  1.0460000  1
   9051   9050   9058   9061     1  0.0000000  0.6694400  3
   9052   9051   9050   9054     1  0.0000000  0.6508444  3
   9052   9051   9057   9063     1  0.0000000  1.0460000  1
   9052   9051   9057   9063     1  0.0000000  0.6694400  3
   9053   9051   9050   9058     1  0.0000000  1.0460000  1
   9053   9051   9050   9058     1  0.0000000  0.0000000  3
   9053   9051   9050   9054     1  0.0000000  0.6508444  3
   9053   9051   9052   9056     1  0.0000000  1.0460000  1
   9053   9051   9052   9056     1  0.0000000  0.0000000  3
   9053   9051   9052   9068     1  0.0000000  1.0460000  1
   9053   9051   9052   9068     1  0.0000000  0.0000000  3
   9053   9051   9052   9055     1  0.0000000  0.6508444  3
   9053   9051   9057   9063     1  0.0000000  0.6973333  3
   9054   9050   9047   9059     1  0.0000000  1.0460000  1
   9054   9050   9047   9059     1  0.0000000  0.0000000  3
   9054   9050   9051   9057     1  0.0000000  1.0460000  1
   9054   9050   9051   9057     1  0.0000000  0.0000000  3
   9054   9050   9058   9061     1  0.0000000  0.6973333  3
   9055   9052   9051   9057     1  0.0000000  0.6508444  3
   9064   9060   9046   9068     1  0.0000000  1.0460000  1
   9064   9060   9046   9068     1  0.0000000  0.0000000  3
   9064   9060   9066   9067     1  0.0000000  0.6973333  3
   9065   9060   9046   9068     1  0.0000000  1.0460000  1
   9065   9060   9046   9068     1  0.0000000  0.0000000  3
   9065   9060   9066   9067     1  0.0000000  0.6973333  3
   9069   9070   9073   9077     1  0.0000000  0.6508444  3
   9069   9070   9082   9085     1  0.0000000  1.0460000  1
   9069   9070   9082   9085     1  0.0000000  0.6694400  3
   9069   9083   9089   9090     1  0.0000000  1.0460000  1
   9069   9083   9089   9090     1  0.0000000  0.6694400  3
   9069   9091   9075   9078     1  0.0000000  1.6038667  3
   9070   9073   9074   9076     1  0.0000000  0.6508444  3
   9070   9073   9081   9084     1  0.0000000  1.0460000  1
   9070   9073   9081   9084     1  0.0000000  0.6694400  3
   9070   9069   9083   9087     1  0.0000000  0.6508444  3
   9070   9069   9083   9088     1  0.0000000  0.6508444  3
   9071   9069   9070   9073     1  0.0000000  0.6508444  3
   9071   9069   9070   9082     1  0.0000000  1.0460000  1
   9071   9069   9070   9082     1  0.0000000  0.0000000  3
   9071   9069   9070   9072     1  0.0000000  0.6508444  3
   9071   9069   9083   9089     1  0.0000000  1.0460000  1
   9071   9069   9083   9089     1  0.0000000  0.0000000  3
   9071   9069   9083   9087     1  0.0000000  0.6508444  3
   9071   9069   9083   9088     1  0.0000000  0.6508444  3
   9071   9069   9091   9075     1  0.0000000  1.6038667  3
   9072   9070   9073   9074     1  0.0000000  0.6508444  3
   9072   9070   9073   9081     1  0.0000000  1.0460000  1
   9072   9070   9073   9081     1  0.0000000  0.0000000  3
   9072   9070   9073   9077     1  0.0000000  0.6508444  3
   9072   9070   9082   9085     1  0.0000000  0.6973333  3
   9072   9070   9069   9083     1  0.0000000  0.6508444  3
   9072   9070   9069   9091     1  0.0000000  1.0460000  1
   9072   9070   9069   9091     1  0.0000000  0.0000000  3
   9073   9074   9075   9078     1  0.0000000  0.6508444  3
   9073   9074   9080   9086     1  0.0000000  1.0460000  1
   9073   9074   9080   9086     1  0.0000000  0.6694400  3
   9073   9070   9082   9085     1  0.0000000  1.0460000  1
   9073   9070   9082   9085     1  0.0000000  0.6694400  3
   9074   9073   9081   9084     1  0.0000000  1.0460000  1
   9074   9073   9081   9084     1  0.0000000  0.6694400  3
   9075   9074   9080   9086     1  0.0000000  1.0460000  1
   9075   9074   9080   9086     1  0.0000000  0.6694400  3
   9075   9074   9073   9077     1  0.0000000  0.6508444  3
   9076   9074   9075   9079     1  0.0000000  1.0460000  1
   9076   9074   9075   9079     1  0.0000000  0.0000000  3
   9076   9074   9075   9091     1  0.0000000  1.0460000  1
   9076   9074   9075   9091     1  0.0000000  0.0000000  3
   9076   9074   9075   9078     1  0.0000000  0.6508444  3
   9076   9074   9080   9086     1  0.0000000  0.6973333  3
   9076   9074   9073   9081     1  0.0000000  1.0460000  1
   9076   9074   9073   9081     1  0.0000000  0.0000000  3
   9076   9074   9073   9077     1  0.0000000  0.6508444  3
   9077   9073   9074   9080     1  0.0000000  1.0460000  1
   9077   9073   9074   9080     1  0.0000000  0.0000000  3
   9077   9073   9081   9084     1  0.0000000  0.6973333  3
   9077   9073   9070   9082     1  0.0000000  1.0460000  1
   9077   9073   9070   9082     1  0.0000000  0.0000000  3
   9078   9075   9074   9080     1  0.0000000  0.6508444  3
   9087   9083   9089   9090     1  0.0000000  0.6973333  3
   9087   9083   9069   9091     1  0.0000000  1.0460000  1
   9087   9083   9069   9091     1  0.0000000  0.0000000  3
   9088   9083   9089   9090     1  0.0000000  0.6973333  3
   9088   9083   9069   9091     1  0.0000000  1.0460000  1
   9088   9083   9069   9091     1  0.0000000  0.0000000  3
   9092   9093   9096   9100     1  0.0000000  0.6508444  3
   9092   9093   9105   9108     1  0.0000000  1.0460000  1
   9092   9093   9105   9108     1  0.0000000  0.6694400  3
   9092   9106   9112   9113     1  0.0000000  1.0460000  1
   9092   9106   9112   9113     1  0.0000000  0.6694400  3
   9092   9114   9098   9101     1  0.0000000  1.6038667  3
   9093   9092   9106   9110     1  0.0000000  0.6508444  3
   9093   9092   9106   9111     1  0.0000000  0.6508444  3
   9093   9096   9097   9099     1  0.0000000  0.6508444  3
   9093   9096   9104   9107     1  0.0000000  1.0460000  1
   9093   9096   9104   9107     1  0.0000000  0.6694400  3
   9094   9092   9093   9096     1  0.0000000  0.6508444  3
   9094   9092   9093   9105     1  0.0000000  1.0460000  1
   9094   9092   9093   9105     1  0.0000000  0.0000000  3
   9094   9092   9093   9095     1  0.0000000  0.6508444  3
   9094   9092   9106   9112     1  0.0000000  1.0460000  1
   9094   9092   9106   9112     1  0.0000000  0.0000000  3
   9094   9092   9106   9110     1  0.0000000  0.6508444  3
   9094   9092   9106   9111     1  0.0000000  0.6508444  3
   9094   9092   9114   9098     1  0.0000000  1.6038667  3
   9095   9093   9092   9106     1  0.0000000  0.6508444  3
   9095   9093   9092   9114     1  0.0000000  1.0460000  1
   9095   9093   9092   9114     1  0.0000000  0.0000000  3
   9095   9093   9096   9097     1  0.0000000  0.6508444  3
   9095   9093   9096   9104     1  0.0000000  1.0460000  1
   9095   9093   9096   9104     1  0.0000000  0.0000000  3
   9095   9093   9096   9100     1  0.0000000  0.6508444  3
   9095   9093   9105   9108     1  0.0000000  0.6973333  3
   9096   9093   9105   9108     1  0.0000000  1.0460000  1
   9096   9093   9105   9108     1  0.0000000  0.6694400  3
   9096   9097   9098   9101     1  0.0000000  0.6508444  3
   9096   9097   9103   9109     1  0.0000000  1.0460000  1
   9096   9097   9103   9109     1  0.0000000  0.6694400  3
   9097   9096   9104   9107     1  0.0000000  1.0460000  1
   9097   9096   9104   9107     1  0.0000000  0.6694400  3
   9098   9097   9096   9100     1  0.0000000  0.6508444  3
   9098   9097   9103   9109     1  0.0000000  1.0460000  1
   9098   9097   9103   9109     1  0.0000000  0.6694400  3
   9099   9097   9096   9104     1  0.0000000  1.0460000  1
   9099   9097   9096   9104     1  0.0000000  0.0000000  3
   9099   9097   9096   9100     1  0.0000000  0.6508444  3
   9099   9097   9098   9102     1  0.0000000  1.0460000  1
   9099   9097   9098   9102     1  0.0000000  0.0000000  3
   9099   9097   9098   9114     1  0.0000000  1.0460000  1
   9099   9097   9098   9114     1  0.0000000  0.0000000  3
   9099   9097   9098   9101     1  0.0000000  0.6508444  3
   9099   9097   9103   9109     1  0.0000000  0.6973333  3
   9100   9096   9093   9105     1  0.0000000  1.0460000  1
   9100   9096   9093   9105     1  0.0000000  0.0000000  3
   9100   9096   9097   9103     1  0.0000000  1.0460000  1
   9100   9096   9097   9103     1  0.0000000  0.0000000  3
   9100   9096   9104   9107     1  0.0000000  0.6973333  3
   9101   9098   9097   9103     1  0.0000000  0.6508444  3
   9110   9106   9092   9114     1  0.0000000  1.0460000  1
   9110   9106   9092   9114     1  0.0000000  0.0000000  3
   9110   9106   9112   9113     1  0.0000000  0.6973333  3
   9111   9106   9092   9114     1  0.0000000  1.0460000  1
   9111   9106   9092   9114     1  0.0000000  0.0000000  3
   9111   9106   9112   9113     1  0.0000000  0.6973333  3
   9115   9116   9119   9123     1  0.0000000  0.6508444  3
   9115   9116   9128   9131     1  0.0000000  1.0460000  1
   9115   9116   9128   9131     1  0.0000000  0.6694400  3
   9115   9129   9135   9136     1  0.0000000  1.0460000  1
   9115   9129   9135   9136     1  0.0000000  0.6694400  3
   9115   9137   9121   9124     1  0.0000000  1.6038667  3
   9116   9119   9120   9122     1  0.0000000  0.6508444  3
   9116   9119   9127   9130     1  0.0000000  1.0460000  1
   9116   9119   9127   9130     1  0.0000000  0.6694400  3
   9116   9115   9129   9133     1  0.0000000  0.6508444  3
   9116   9115   9129   9134     1  0.0000000  0.6508444  3
   9117   9115   9116   9119     1  0.0000000  0.6508444  3
   9117   9115   9116   9128     1  0.0000000  1.0460000  1
   9117   9115   9116   9128     1  0.0000000  0.0000000  3
   9117   9115   9116   9118     1  0.0000000  0.6508444  3
   9117   9115   9129   9135     1  0.0000000  1.0460000  1
   9117   9115   9129   9135     1  0.0000000  0.0000000  3
   9117   9115   9129   9133     1  0.0000000  0.6508444  3
   9117   9115   9129   9134     1  0.0000000  0.6508444  3
   9117   9115   9137   9121     1  0.0000000  1.6038667  3
   9118   9116   9119   9120     1  0.0000000  0.6508444  3
   9118   9116   9119   9127     1  0.0000000  1.0460000  1
   9118   9116   9119   9127     1  0.0000000  0.0000000  3
   9118   9116   9119   9123     1  0.0000000  0.6508444  3
   9118   9116   9128   9131     1  0.0000000  0.6973333  3
   9118   9116   9115   9129     1  0.0000000  0.6508444  3
   9118   9116   9115   9137     1  0.0000000  1.0460000  1
   9118   9116   9115   9137     1  0.0000000  0.0000000  3
   9119   9120   9121   9124     1  0.0000000  0.6508444  3
   9119   9120   9126   9132     1  0.0000000  1.0460000  1
   9119   9120   9126   9132     1  0.0000000  0.6694400  3
   9119   9116   9128   9131     1  0.0000000  1.0460000  1
   9119   9116   9128   9131     1  0.0000000  0.6694400  3
   9120   9119   9127   9130     1  0.0000000  1.0460000  1
   9120   9119   9127   9130     1  0.0000000  0.6694400  3
   9121   9120   9126   9132     1  0.0000000  1.0460000  1
   9121   9120   9126   9132     1  0.0000000  0.6694400  3
   9121   9120   9119   9123     1  0.0000000  0.6508444  3
   9122   9120   9121   9125     1  0.0000000  1.0460000  1
   9122   9120   9121   9125     1  0.0000000  0.0000000  3
   9122   9120   9121   9137     1  0.0000000  1.0460000  1
   9122   9120   9121   9137     1  0.0000000  0.0000000  3
   9122   9120   9121   9124     1  0.0000000  0.6508444  3
   9122   9120   9126   9132     1  0.0000000  0.6973333  3
   9122   9120   9119   9127     1  0.0000000  1.0460000  1
   9122   9120   9119   9127     1  0.0000000  0.0000000  3
   9122   9120   9119   9123     1  0.0000000  0.6508444  3
   9123   9119   9120   9126     1  0.0000000  1.0460000  1
   9123   9119   9120   9126     1  0.0000000  0.0000000  3
   9123   9119   9127   9130     1  0.0000000  0.6973333  3
   9123   9119   9116   9128     1  0.0000000  1.0460000  1
   9123   9119   9116   9128     1  0.0000000  0.0000000  3
   9124   9121   9120   9126     1  0.0000000  0.6508444  3
   9133   9129   9135   9136     1  0.0000000  0.6973333  3
   9133   9129   9115   9137     1  0.0000000  1.0460000  1
   9133   9129   9115   9137     1  0.0000000  0.0000000  3
   9134   9129   9135   9136     1  0.0000000  0.6973333  3
   9134   9129   9115   9137     1  0.0000000  1.0460000  1
   9134   9129   9115   9137     1  0.0000000  0.0000000  3
   9138   9139   9142   9146     1  0.0000000  0.6508444  3
   9138   9139   9151   9154     1  0.0000000  1.0460000  1
   9138   9139   9151   9154     1  0.0000000  0.6694400  3
   9138   9152   9158   9159     1  0.0000000  1.0460000  1
   9138   9152   9158   9159     1  0.0000000  0.6694400  3
   9138   9160   9144   9147     1  0.0000000  1.6038667  3
   9139   9138   9152   9156     1  0.0000000  0.6508444  3
   9139   9138   9152   9157     1  0.0000000  0.6508444  3
   9139   9142   9143   9145     1  0.0000000  0.6508444  3
   9139   9142   9150   9153     1  0.0000000  1.0460000  1
   9139   9142   9150   9153     1  0.0000000  0.6694400  3
   9140   9138   9139   9142     1  0.0000000  0.6508444  3
   9140   9138   9139   9151     1  0.0000000  1.0460000  1
   9140   9138   9139   9151     1  0.0000000  0.0000000  3
   9140   9138   9139   9141     1  0.0000000  0.6508444  3
   9140   9138   9152   9158     1  0.0000000  1.0460000  1
   9140   9138   9152   9158     1  0.0000000  0.0000000  3
   9140   9138   9152   9156     1  0.0000000  0.6508444  3
   9140   9138   9152   9157     1  0.0000000  0.6508444  3
   9140   9138   9160   9144     1  0.0000000  1.6038667  3
   9141   9139   9138   9152     1  0.0000000  0.6508444  3
   9141   9139   9138   9160     1  0.0000000  1.0460000  1
   9141   9139   9138   9160     1  0.0000000  0.0000000  3
   9141   9139   9142   9143     1  0.0000000  0.6508444  3
   9141   9139   9142   9150     1  0.0000000  1.0460000  1
   9141   9139   9142   9150     1  0.0000000  0.0000000  3
   9141   9139   9142   9146     1  0.0000000  0.6508444  3
   9141   9139   9151   9154     1  0.0000000  0.6973333  3
   9142   9139   9151   9154     1  0.0000000  1.0460000  1
   9142   9139   9151   9154     1  0.0000000  0.6694400  3
   9142   9143   9144   9147     1  0.0000000  0.6508444  3
   9142   9143   9149   9155     1  0.0000000  1.0460000  1
   9142   9143   9149   9155     1  0.0000000  0.6694400  3
   9143   9142   9150   9153     1  0.0000000  1.0460000  1
   9143   9142   9150   9153     1  0.0000000  0.6694400  3
   9144   9143   9142   9146     1  0.0000000  0.6508444  3
   9144   9143   9149   9155     1  0.0000000  1.0460000  1
   9144   9143   9149   9155     1  0.0000000  0.6694400  3
   9145   9143   9142   9150     1  0.0000000  1.0460000  1
   9145   9143   9142   9150     1  0.0000000  0.0000000  3
   9145   9143   9142   9146     1  0.0000000  0.6508444  3
   9145   9143   9144   9148     1  0.0000000  1.0460000  1
   9145   9143   9144   9148     1  0.0000000  0.0000000  3
   9145   9143   9144   9160     1  0.0000000  1.0460000  1
   9145   9143   9144   9160     1  0.0000000  0.0000000  3
   9145   9143   9144   9147     1  0.0000000  0.6508444  3
   9145   9143   9149   9155     1  0.0000000  0.6973333  3
   9146   9142   9139   9151     1  0.0000000  1.0460000  1
   9146   9142   9139   9151     1  0.0000000  0.0000000  3
   9146   9142   9143   9149     1  0.0000000  1.0460000  1
   9146   9142   9143   9149     1  0.0000000  0.0000000  3
   9146   9142   9150   9153     1  0.0000000  0.6973333  3
   9147   9144   9143   9149     1  0.0000000  0.6508444  3
   9156   9152   9138   9160     1  0.0000000  1.0460000  1
   9156   9152   9138   9160     1  0.0000000  0.0000000  3
   9156   9152   9158   9159     1  0.0000000  0.6973333  3
   9157   9152   9138   9160     1  0.0000000  1.0460000  1
   9157   9152   9138   9160     1  0.0000000  0.0000000  3
   9157   9152   9158   9159     1  0.0000000  0.6973333  3
   9161   9162   9165   9169     1  0.0000000  0.6508444  3
   9161   9162   9174   9177     1  0.0000000  1.0460000  1
   9161   9162   9174   9177     1  0.0000000  0.6694400  3
   9161   9175   9181   9182     1  0.0000000  1.0460000  1
   9161   9175   9181   9182     1  0.0000000  0.6694400  3
   9161   9183   9167   9170     1  0.0000000  1.6038667  3
   9162   9165   9166   9168     1  0.0000000  0.6508444  3
   9162   9165   9173   9176     1  0.0000000  1.0460000  1
   9162   9165   9173   9176     1  0.0000000  0.6694400  3
   9162   9161   9175   9179     1  0.0000000  0.6508444  3
   9162   9161   9175   9180     1  0.0000000  0.6508444  3
   9163   9161   9162   9165     1  0.0000000  0.6508444  3
   9163   9161   9162   9174     1  0.0000000  1.0460000  1
   9163   9161   9162   9174     1  0.0000000  0.0000000  3
   9163   9161   9162   9164     1  0.0000000  0.6508444  3
   9163   9161   9175   9181     1  0.0000000  1.0460000  1
   9163   9161   9175   9181     1  0.0000000  0.0000000  3
   9163   9161   9175   9179     1  0.0000000  0.6508444  3
   9163   9161   9175   9180     1  0.0000000  0.6508444  3
   9163   9161   9183   9167     1  0.0000000  1.6038667  3
   9164   9162   9165   9166     1  0.0000000  0.6508444  3
   9164   9162   9165   9173     1  0.0000000  1.0460000  1
   9164   9162   9165   9173     1  0.0000000  0.0000000  3
   9164   9162   9165   9169     1  0.0000000  0.6508444  3
   9164   9162   9174   9177     1  0.0000000  0.6973333  3
   9164   9162   9161   9175     1  0.0000000  0.6508444  3
   9164   9162   9161   9183     1  0.0000000  1.0460000  1
   9164   9162   9161   9183     1  0.0000000  0.0000000  3
   9165   9166   9167   9170     1  0.0000000  0.6508444  3
   9165   9166   9172   9178     1  0.0000000  1.0460000  1
   9165   9166   9172   9178     1  0.0000000  0.6694400  3
   9165   9162   9174   9177     1  0.0000000  1.0460000  1
   9165   9162   9174   9177     1  0.0000000  0.6694400  3
   9166   9165   9173   9176     1  0.0000000  1.0460000  1
   9166   9165   9173   9176     1  0.0000000  0.6694400  3
   9167   9166   9172   9178     1  0.0000000  1.0460000  1
   9167   9166   9172   9178     1  0.0000000  0.6694400  3
   9167   9166   9165   9169     1  0.0000000  0.6508444  3
   9168   9166   9167   9171     1  0.0000000  1.0460000  1
   9168   9166   9167   9171     1  0.0000000  0.0000000  3
   9168   9166   9167   9183     1  0.0000000  1.0460000  1
   9168   9166   9167   9183     1  0.0000000  0.0000000  3
   9168   9166   9167   9170     1  0.0000000  0.6508444  3
   9168   9166   9172   9178     1  0.0000000  0.6973333  3
   9168   9166   9165   9173     1  0.0000000  1.0460000  1
   9168   9166   9165   9173     1  0.0000000  0.0000000  3
   9168   9166   9165   9169     1  0.0000000  0.6508444  3
   9169   9165   9166   9172     1  0.0000000  1.0460000  1
   9169   9165   9166   9172     1  0.0000000  0.0000000  3
   9169   9165   9173   9176     1  0.0000000  0.6973333  3
   9169   9165   9162   9174     1  0.0000000  1.0460000  1
   9169   9165   9162   9174     1  0.0000000  0.0000000  3
   9170   9167   9166   9172     1  0.0000000  0.6508444  3
   9179   9175   9181   9182     1  0.0000000  0.6973333  3
   9179   9175   9161   9183     1  0.0000000  1.0460000  1
   9179   9175   9161   9183     1  0.0000000  0.0000000  3
   9180   9175   9181   9182     1  0.0000000  0.6973333  3
   9180   9175   9161   9183     1  0.0000000  1.0460000  1
   9180   9175   9161   9183     1  0.0000000  0.0000000  3
   9184   9185   9188   9192     1  0.0000000  0.6508444  3
   9184   9185   9197   9200     1  0.0000000  1.0460000  1
   9184   9185   9197   9200     1  0.0000000  0.6694400  3
   9184   9198   9204   9205     1  0.0000000  1.0460000  1
   9184   9198   9204   9205     1  0.0000000  0.6694400  3
   9184   9206   9190   9193     1  0.0000000  1.6038667  3
   9185   9184   9198   9202     1  0.0000000  0.6508444  3
   9185   9184   9198   9203     1  0.0000000  0.6508444  3
   9185   9188   9189   9191     1  0.0000000  0.6508444  3
   9185   9188   9196   9199     1  0.0000000  1.0460000  1
   9185   9188   9196   9199     1  0.0000000  0.6694400  3
   9186   9184   9185   9188     1  0.0000000  0.6508444  3
   9186   9184   9185   9197     1  0.0000000  1.0460000  1
   9186   9184   9185   9197     1  0.0000000  0.0000000  3
   9186   9184   9185   9187     1  0.0000000  0.6508444  3
   9186   9184   9198   9204     1  0.0000000  1.0460000  1
   9186   9184   9198   9204     1  0.0000000  0.0000000  3
   9186   9184   9198   9202     1  0.0000000  0.6508444  3
   9186   9184   9198   9203     1  0.0000000  0.6508444  3
   9186   9184   9206   9190     1  0.0000000  1.6038667  3
   9187   9185   9184   9198     1  0.0000000  0.6508444  3
   9187   9185   9184   9206     1  0.0000000  1.0460000  1
   9187   9185   9184   9206     1  0.0000000  0.0000000  3
   9187   9185   9188   9189     1  0.0000000  0.6508444  3
   9187   9185   9188   9196     1  0.0000000  1.0460000  1
   9187   9185   9188   9196     1  0.0000000  0.0000000  3
   9187   9185   9188   9192     1  0.0000000  0.6508444  3
   9187   9185   9197   9200     1  0.0000000  0.6973333  3
   9188   9185   9197   9200     1  0.0000000  1.0460000  1
   9188   9185   9197   9200     1  0.0000000  0.6694400  3
   9188   9189   9190   9193     1  0.0000000  0.6508444  3
   9188   9189   9195   9201     1  0.0000000  1.0460000  1
   9188   9189   9195   9201     1  0.0000000  0.6694400  3
   9189   9188   9196   9199     1  0.0000000  1.0460000  1
   9189   9188   9196   9199     1  0.0000000  0.6694400  3
   9190   9189   9188   9192     1  0.0000000  0.6508444  3
   9190   9189   9195   9201     1  0.0000000  1.0460000  1
   9190   9189   9195   9201     1  0.0000000  0.6694400  3
   9191   9189   9188   9196     1  0.0000000  1.0460000  1
   9191   9189   9188   9196     1  0.0000000  0.0000000  3
   9191   9189   9188   9192     1  0.0000000  0.6508444  3
   9191   9189   9190   9194     1  0.0000000  1.0460000  1
   9191   9189   9190   9194     1  0.0000000  0.0000000  3
   9191   9189   9190   9206     1  0.0000000  1.0460000  1
   9191   9189   9190   9206     1  0.0000000  0.0000000  3
   9191   9189   9190   9193     1  0.0000000  0.6508444  3
   9191   9189   9195   9201     1  0.0000000  0.6973333  3
   9192   9188   9185   9197     1  0.0000000  1.0460000  1
   9192   9188   9185   9197     1  0.0000000  0.0000000  3
   9192   9188   9189   9195     1  0.0000000  1.0460000  1
   9192   9188   9189   9195     1  0.0000000  0.0000000  3
   9192   9188   9196   9199     1  0.0000000  0.6973333  3
   9193   9190   9189   9195     1  0.0000000  0.6508444  3
   9202   9198   9184   9206     1  0.0000000  1.0460000  1
   9202   9198   9184   9206     1  0.0000000  0.0000000  3
   9202   9198   9204   9205     1  0.0000000  0.6973333  3
   9203   9198   9184   9206     1  0.0000000  1.0460000  1
   9203   9198   9184   9206     1  0.0000000  0.0000000  3
   9203   9198   9204   9205     1  0.0000000  0.6973333  3
   9207   9208   9211   9215     1  0.0000000  0.6508444  3
   9207   9208   9220   9223     1  0.0000000  1.0460000  1
   9207   9208   9220   9223     1  0.0000000  0.6694400  3
   9207   9221   9227   9228     1  0.0000000  1.0460000  1
   9207   9221   9227   9228     1  0.0000000  0.6694400  3
   9207   9229   9213   9216     1  0.0000000  1.6038667  3
   9208   9211   9212   9214     1  0.0000000  0.6508444  3
   9208   9211   9219   9222     1  0.0000000  1.0460000  1
   9208   9211   9219   9222     1  0.0000000  0.6694400  3
   9208   9207   9221   9225     1  0.0000000  0.6508444  3
   9208   9207   9221   9226     1  0.0000000  0.6508444  3
   9209   9207   9208   9211     1  0.0000000  0.6508444  3
   9209   9207   9208   9220     1  0.0000000  1.0460000  1
   9209   9207   9208   9220     1  0.0000000  0.0000000  3
   9209   9207   9208   9210     1  0.0000000  0.6508444  3
   9209   9207   9221   9227     1  0.0000000  1.0460000  1
   9209   9207   9221   9227     1  0.0000000  0.0000000  3
   9209   9207   9221   9225     1  0.0000000  0.6508444  3
   9209   9207   9221   9226     1  0.0000000  0.6508444  3
   9209   9207   9229   9213     1  0.0000000  1.6038667  3
   9210   9208   9211   9212     1  0.0000000  0.6508444  3
   9210   9208   9211   9219     1  0.0000000  1.0460000  1
   9210   9208   9211   9219     1  0.0000000  0.0000000  3
   9210   9208   9211   9215     1  0.0000000  0.6508444  3
   9210   9208   9220   9223     1  0.0000000  0.6973333  3
   9210   9208   9207   9221     1  0.0000000  0.6508444  3
   9210   9208   9207   9229     1  0.0000000  1.0460000  1
   9210   9208   9207   9229     1  0.0000000  0.0000000  3
   9211   9212   9213   9216     1  0.0000000  0.6508444  3
   9211   9212   9218   9224     1  0.0000000  1.0460000  1
   9211   9212   9218   9224     1  0.0000000  0.6694400  3
   9211   9208   9220   9223     1  0.0000000  1.0460000  1
   9211   9208   9220   9223     1  0.0000000  0.6694400  3
   9212   9211   9219   9222     1  0.0000000  1.0460000  1
   9212   9211   9219   9222     1  0.0000000  0.6694400  3
   9213   9212   9218   9224     1  0.0000000  1.0460000  1
   9213   9212   9218   9224     1  0.0000000  0.6694400  3
   9213   9212   9211   9215     1  0.0000000  0.6508444  3
   9214   9212   9213   9217     1  0.0000000  1.0460000  1
   9214   9212   9213   9217     1  0.0000000  0.0000000  3
   9214   9212   9213   9229     1  0.0000000  1.0460000  1
   9214   9212   9213   9229     1  0.0000000  0.0000000  3
   9214   9212   9213   9216     1  0.0000000  0.6508444  3
   9214   9212   9218   9224     1  0.0000000  0.6973333  3
   9214   9212   9211   9219     1  0.0000000  1.0460000  1
   9214   9212   9211   9219     1  0.0000000  0.0000000  3
   9214   9212   9211   9215     1  0.0000000  0.6508444  3
   9215   9211   9212   9218     1  0.0000000  1.0460000  1
   9215   9211   9212   9218     1  0.0000000  0.0000000  3
   9215   9211   9219   9222     1  0.0000000  0.6973333  3
   9215   9211   9208   9220     1  0.0000000  1.0460000  1
   9215   9211   9208   9220     1  0.0000000  0.0000000  3
   9216   9213   9212   9218     1  0.0000000  0.6508444  3
   9225   9221   9227   9228     1  0.0000000  0.6973333  3
   9225   9221   9207   9229     1  0.0000000  1.0460000  1
   9225   9221   9207   9229     1  0.0000000  0.0000000  3
   9226   9221   9227   9228     1  0.0000000  0.6973333  3
   9226   9221   9207   9229     1  0.0000000  1.0460000  1
   9226   9221   9207   9229     1  0.0000000  0.0000000  3
   9230   9231   9234   9238     1  0.0000000  0.6508444  3
   9230   9231   9243   9246     1  0.0000000  1.0460000  1
   9230   9231   9243   9246     1  0.0000000  0.6694400  3
   9230   9244   9250   9251     1  0.0000000  1.0460000  1
   9230   9244   9250   9251     1  0.0000000  0.6694400  3
   9230   9252   9236   9239     1  0.0000000  1.6038667  3
   9231   9230   9244   9248     1  0.0000000  0.6508444  3
   9231   9230   9244   9249     1  0.0000000  0.6508444  3
   9231   9234   9235   9237     1  0.0000000  0.6508444  3
   9231   9234   9242   9245     1  0.0000000  1.0460000  1
   9231   9234   9242   9245     1  0.0000000  0.6694400  3
   9232   9230   9231   9234     1  0.0000000  0.6508444  3
   9232   9230   9231   9243     1  0.0000000  1.0460000  1
   9232   9230   9231   9243     1  0.0000000  0.0000000  3
   9232   9230   9231   9233     1  0.0000000  0.6508444  3
   9232   9230   9244   9250     1  0.0000000  1.0460000  1
   9232   9230   9244   9250     1  0.0000000  0.0000000  3
   9232   9230   9244   9248     1  0.0000000  0.6508444  3
   9232   9230   9244   9249     1  0.0000000  0.6508444  3
   9232   9230   9252   9236     1  0.0000000  1.6038667  3
   9233   9231   9230   9244     1  0.0000000  0.6508444  3
   9233   9231   9230   9252     1  0.0000000  1.0460000  1
   9233   9231   9230   9252     1  0.0000000  0.0000000  3
   9233   9231   9234   9235     1  0.0000000  0.6508444  3
   9233   9231   9234   9242     1  0.0000000  1.0460000  1
   9233   9231   9234   9242     1  0.0000000  0.0000000  3
   9233   9231   9234   9238     1  0.0000000  0.6508444  3
   9233   9231   9243   9246     1  0.0000000  0.6973333  3
   9234   9231   9243   9246     1  0.0000000  1.0460000  1
   9234   9231   9243   9246     1  0.0000000  0.6694400  3
   9234   9235   9236   9239     1  0.0000000  0.6508444  3
   9234   9235   9241   9247     1  0.0000000  1.0460000  1
   9234   9235   9241   9247     1  0.0000000  0.6694400  3
   9235   9234   9242   9245     1  0.0000000  1.0460000  1
   9235   9234   9242   9245     1  0.0000000  0.6694400  3
   9236   9235   9234   9238     1  0.0000000  0.6508444  3
   9236   9235   9241   9247     1  0.0000000  1.0460000  1
   9236   9235   9241   9247     1  0.0000000  0.6694400  3
   9237   9235   9234   9242     1  0.0000000  1.0460000  1
   9237   9235   9234   9242     1  0.0000000  0.0000000  3
   9237   9235   9234   9238     1  0.0000000  0.6508444  3
   9237   9235   9236   9240     1  0.0000000  1.0460000  1
   9237   9235   9236   9240     1  0.0000000  0.0000000  3
   9237   9235   9236   9252     1  0.0000000  1.0460000  1
   9237   9235   9236   9252     1  0.0000000  0.0000000  3
   9237   9235   9236   9239     1  0.0000000  0.6508444  3
   9237   9235   9241   9247     1  0.0000000  0.6973333  3
   9238   9234   9231   9243     1  0.0000000  1.0460000  1
   9238   9234   9231   9243     1  0.0000000  0.0000000  3
   9238   9234   9235   9241     1  0.0000000  1.0460000  1
   9238   9234   9235   9241     1  0.0000000  0.0000000  3
   9238   9234   9242   9245     1  0.0000000  0.6973333  3
   9239   9236   9235   9241     1  0.0000000  0.6508444  3
   9248   9244   9230   9252     1  0.0000000  1.0460000  1
   9248   9244   9230   9252     1  0.0000000  0.0000000  3
   9248   9244   9250   9251     1  0.0000000  0.6973333  3
   9249   9244   9230   9252     1  0.0000000  1.0460000  1
   9249   9244   9230   9252     1  0.0000000  0.0000000  3
   9249   9244   9250   9251     1  0.0000000  0.6973333  3
   9253   9254   9257   9261     1  0.0000000  0.6508444  3
   9253   9254   9266   9269     1  0.0000000  1.0460000  1
   9253   9254   9266   9269     1  0.0000000  0.6694400  3
   9253   9267   9273   9274     1  0.0000000  1.0460000  1
   9253   9267   9273   9274     1  0.0000000  0.6694400  3
   9253   9275   9259   9262     1  0.0000000  1.6038667  3
   9254   9257   9258   9260     1  0.0000000  0.6508444  3
   9254   9257   9265   9268     1  0.0000000  1.0460000  1
   9254   9257   9265   9268     1  0.0000000  0.6694400  3
   9254   9253   9267   9271     1  0.0000000  0.6508444  3
   9254   9253   9267   9272     1  0.0000000  0.6508444  3
   9255   9253   9254   9257     1  0.0000000  0.6508444  3
   9255   9253   9254   9266     1  0.0000000  1.0460000  1
   9255   9253   9254   9266     1  0.0000000  0.0000000  3
   9255   9253   9254   9256     1  0.0000000  0.6508444  3
   9255   9253   9267   9273     1  0.0000000  1.0460000  1
   9255   9253   9267   9273     1  0.0000000  0.0000000  3
   9255   9253   9267   9271     1  0.0000000  0.6508444  3
   9255   9253   9267   9272     1  0.0000000  0.6508444  3
   9255   9253   9275   9259     1  0.0000000  1.6038667  3
   9256   9254   9257   9258     1  0.0000000  0.6508444  3
   9256   9254   9257   9265     1  0.0000000  1.0460000  1
   9256   9254   9257   9265     1  0.0000000  0.0000000  3
   9256   9254   9257   9261     1  0.0000000  0.6508444  3
   9256   9254   9266   9269     1  0.0000000  0.6973333  3
   9256   9254   9253   9267     1  0.0000000  0.6508444  3
   9256   9254   9253   9275     1  0.0000000  1.0460000  1
   9256   9254   9253   9275     1  0.0000000  0.0000000  3
   9257   9258   9259   9262     1  0.0000000  0.6508444  3
   9257   9258   9264   9270     1  0.0000000  1.0460000  1
   9257   9258   9264   9270     1  0.0000000  0.6694400  3
   9257   9254   9266   9269     1  0.0000000  1.0460000  1
   9257   9254   9266   9269     1  0.0000000  0.6694400  3
   9258   9257   9265   9268     1  0.0000000  1.0460000  1
   9258   9257   9265   9268     1  0.0000000  0.6694400  3
   9259   9258   9264   9270     1  0.0000000  1.0460000  1
   9259   9258   9264   9270     1  0.0000000  0.6694400  3
   9259   9258   9257   9261     1  0.0000000  0.6508444  3
   9260   9258   9259   9263     1  0.0000000  1.0460000  1
   9260   9258   9259   9263     1  0.0000000  0.0000000  3
   9260   9258   9259   9275     1  0.0000000  1.0460000  1
   9260   9258   9259   9275     1  0.0000000  0.0000000  3
   9260   9258   9259   9262     1  0.0000000  0.6508444  3
   9260   9258   9264   9270     1  0.0000000  0.6973333  3
   9260   9258   9257   9265     1  0.0000000  1.0460000  1
   9260   9258   9257   9265     1  0.0000000  0.0000000  3
   9260   9258   9257   9261     1  0.0000000  0.6508444  3
   9261   9257   9258   9264     1  0.0000000  1.0460000  1
   9261   9257   9258   9264     1  0.0000000  0.0000000  3
   9261   9257   9265   9268     1  0.0000000  0.6973333  3
   9261   9257   9254   9266     1  0.0000000  1.0460000  1
   9261   9257   9254   9266     1  0.0000000  0.0000000  3
   9262   9259   9258   9264     1  0.0000000  0.6508444  3
   9271   9267   9273   9274     1  0.0000000  0.6973333  3
   9271   9267   9253   9275     1  0.0000000  1.0460000  1
   9271   9267   9253   9275     1  0.0000000  0.0000000  3
   9272   9267   9273   9274     1  0.0000000  0.6973333  3
   9272   9267   9253   9275     1  0.0000000  1.0460000  1
   9272   9267   9253   9275     1  0.0000000  0.0000000  3
   9276   9277   9280   9284     1  0.0000000  0.6508444  3
   9276   9277   9289   9292     1  0.0000000  1.0460000  1
   9276   9277   9289   9292     1  0.0000000  0.6694400  3
   9276   9290   9296   9297     1  0.0000000  1.0460000  1
   9276   9290   9296   9297     1  0.0000000  0.6694400  3
   9276   9298   9282   9285     1  0.0000000  1.6038667  3
   9277   9276   9290   9294     1  0.0000000  0.6508444  3
   9277   9276   9290   9295     1  0.0000000  0.6508444  3
   9277   9280   9281   9283     1  0.0000000  0.6508444  3
   9277   9280   9288   9291     1  0.0000000  1.0460000  1
   9277   9280   9288   9291     1  0.0000000  0.6694400  3
   9278   9276   9277   9280     1  0.0000000  0.6508444  3
   9278   9276   9277   9289     1  0.0000000  1.0460000  1
   9278   9276   9277   9289     1  0.0000000  0.0000000  3
   9278   9276   9277   9279     1  0.0000000  0.6508444  3
   9278   9276   9290   9296     1  0.0000000  1.0460000  1
   9278   9276   9290   9296     1  0.0000000  0.0000000  3
   9278   9276   9290   9294     1  0.0000000  0.6508444  3
   9278   9276   9290   9295     1  0.0000000  0.6508444  3
   9278   9276   9298   9282     1  0.0000000  1.6038667  3
   9279   9277   9276   9290     1  0.0000000  0.6508444  3
   9279   9277   9276   9298     1  0.0000000  1.0460000  1
   9279   9277   9276   9298     1  0.0000000  0.0000000  3
   9279   9277   9280   9281     1  0.0000000  0.6508444  3
   9279   9277   9280   9288     1  0.0000000  1.0460000  1
   9279   9277   9280   9288     1  0.0000000  0.0000000  3
   9279   9277   9280   9284     1  0.0000000  0.6508444  3
   9279   9277   9289   9292     1  0.0000000  0.6973333  3
   9280   9277   9289   9292     1  0.0000000  1.0460000  1
   9280   9277   9289   9292     1  0.0000000  0.6694400  3
   9280   9281   9282   9285     1  0.0000000  0.6508444  3
   9280   9281   9287   9293     1  0.0000000  1.0460000  1
   9280   9281   9287   9293     1  0.0000000  0.6694400  3
   9281   9280   9288   9291     1  0.0000000  1.0460000  1
   9281   9280   9288   9291     1  0.0000000  0.6694400  3
   9282   9281   9280   9284     1  0.0000000  0.6508444  3
   9282   9281   9287   9293     1  0.0000000  1.0460000  1
   9282   9281   9287   9293     1  0.0000000  0.6694400  3
   9283   9281   9280   9288     1  0.0000000  1.0460000  1
   9283   9281   9280   9288     1  0.0000000  0.0000000  3
   9283   9281   9280   9284     1  0.0000000  0.6508444  3
   9283   9281   9282   9286     1  0.0000000  1.0460000  1
   9283   9281   9282   9286     1  0.0000000  0.0000000  3
   9283   9281   9282   9298     1  0.0000000  1.0460000  1
   9283   9281   9282   9298     1  0.0000000  0.0000000  3
   9283   9281   9282   9285     1  0.0000000  0.6508444  3
   9283   9281   9287   9293     1  0.0000000  0.6973333  3
   9284   9280   9277   9289     1  0.0000000  1.0460000  1
   9284   9280   9277   9289     1  0.0000000  0.0000000  3
   9284   9280   9281   9287     1  0.0000000  1.0460000  1
   9284   9280   9281   9287     1  0.0000000  0.0000000  3
   9284   9280   9288   9291     1  0.0000000  0.6973333  3
   9285   9282   9281   9287     1  0.0000000  0.6508444  3
   9294   9290   9276   9298     1  0.0000000  1.0460000  1
   9294   9290   9276   9298     1  0.0000000  0.0000000  3
   9294   9290   9296   9297     1  0.0000000  0.6973333  3
   9295   9290   9276   9298     1  0.0000000  1.0460000  1
   9295   9290   9276   9298     1  0.0000000  0.0000000  3
   9295   9290   9296   9297     1  0.0000000  0.6973333  3
   9299   9300   9303   9307     1  0.0000000  0.6508444  3
   9299   9300   9312   9315     1  0.0000000  1.0460000  1
   9299   9300   9312   9315     1  0.0000000  0.6694400  3
   9299   9313   9319   9320     1  0.0000000  1.0460000  1
   9299   9313   9319   9320     1  0.0000000  0.6694400  3
   9299   9321   9305   9308     1  0.0000000  1.6038667  3
   9300   9303   9304   9306     1  0.0000000  0.6508444  3
   9300   9303   9311   9314     1  0.0000000  1.0460000  1
   9300   9303   9311   9314     1  0.0000000  0.6694400  3
   9300   9299   9313   9317     1  0.0000000  0.6508444  3
   9300   9299   9313   9318     1  0.0000000  0.6508444  3
   9301   9299   9300   9303     1  0.0000000  0.6508444  3
   9301   9299   9300   9312     1  0.0000000  1.0460000  1
   9301   9299   9300   9312     1  0.0000000  0.0000000  3
   9301   9299   9300   9302     1  0.0000000  0.6508444  3
   9301   9299   9313   9319     1  0.0000000  1.0460000  1
   9301   9299   9313   9319     1  0.0000000  0.0000000  3
   9301   9299   9313   9317     1  0.0000000  0.6508444  3
   9301   9299   9313   9318     1  0.0000000  0.6508444  3
   9301   9299   9321   9305     1  0.0000000  1.6038667  3
   9302   9300   9303   9304     1  0.0000000  0.6508444  3
   9302   9300   9303   9311     1  0.0000000  1.0460000  1
   9302   9300   9303   9311     1  0.0000000  0.0000000  3
   9302   9300   9303   9307     1  0.0000000  0.6508444  3
   9302   9300   9312   9315     1  0.0000000  0.6973333  3
   9302   9300   9299   9313     1  0.0000000  0.6508444  3
   9302   9300   9299   9321     1  0.0000000  1.0460000  1
   9302   9300   9299   9321     1  0.0000000  0.0000000  3
   9303   9304   9305   9308     1  0.0000000  0.6508444  3
   9303   9304   9310   9316     1  0.0000000  1.0460000  1
   9303   9304   9310   9316     1  0.0000000  0.6694400  3
   9303   9300   9312   9315     1  0.0000000  1.0460000  1
   9303   9300   9312   9315     1  0.0000000  0.6694400  3
   9304   9303   9311   9314     1  0.0000000  1.0460000  1
   9304   9303   9311   9314     1  0.0000000  0.6694400  3
   9305   9304   9310   9316     1  0.0000000  1.0460000  1
   9305   9304   9310   9316     1  0.0000000  0.6694400  3
   9305   9304   9303   9307     1  0.0000000  0.6508444  3
   9306   9304   9305   9309     1  0.0000000  1.0460000  1
   9306   9304   9305   9309     1  0.0000000  0.0000000  3
   9306   9304   9305   9321     1  0.0000000  1.0460000  1
   9306   9304   9305   9321     1  0.0000000  0.0000000  3
   9306   9304   9305   9308     1  0.0000000  0.6508444  3
   9306   9304   9310   9316     1  0.0000000  0.6973333  3
   9306   9304   9303   9311     1  0.0000000  1.0460000  1
   9306   9304   9303   9311     1  0.0000000  0.0000000  3
   9306   9304   9303   9307     1  0.0000000  0.6508444  3
   9307   9303   9304   9310     1  0.0000000  1.0460000  1
   9307   9303   9304   9310     1  0.0000000  0.0000000  3
   9307   9303   9311   9314     1  0.0000000  0.6973333  3
   9307   9303   9300   9312     1  0.0000000  1.0460000  1
   9307   9303   9300   9312     1  0.0000000  0.0000000  3
   9308   9305   9304   9310     1  0.0000000  0.6508444  3
   9317   9313   9319   9320     1  0.0000000  0.6973333  3
   9317   9313   9299   9321     1  0.0000000  1.0460000  1
   9317   9313   9299   9321     1  0.0000000  0.0000000  3
   9318   9313   9319   9320     1  0.0000000  0.6973333  3
   9318   9313   9299   9321     1  0.0000000  1.0460000  1
   9318   9313   9299   9321     1  0.0000000  0.0000000  3
   9322   9323   9326   9330     1  0.0000000  0.6508444  3
   9322   9323   9335   9338     1  0.0000000  1.0460000  1
   9322   9323   9335   9338     1  0.0000000  0.6694400  3
   9322   9336   9342   9343     1  0.0000000  1.0460000  1
   9322   9336   9342   9343     1  0.0000000  0.6694400  3
   9322   9344   9328   9331     1  0.0000000  1.6038667  3
   9323   9322   9336   9340     1  0.0000000  0.6508444  3
   9323   9322   9336   9341     1  0.0000000  0.6508444  3
   9323   9326   9327   9329     1  0.0000000  0.6508444  3
   9323   9326   9334   9337     1  0.0000000  1.0460000  1
   9323   9326   9334   9337     1  0.0000000  0.6694400  3
   9324   9322   9323   9326     1  0.0000000  0.6508444  3
   9324   9322   9323   9335     1  0.0000000  1.0460000  1
   9324   9322   9323   9335     1  0.0000000  0.0000000  3
   9324   9322   9323   9325     1  0.0000000  0.6508444  3
   9324   9322   9336   9342     1  0.0000000  1.0460000  1
   9324   9322   9336   9342     1  0.0000000  0.0000000  3
   9324   9322   9336   9340     1  0.0000000  0.6508444  3
   9324   9322   9336   9341     1  0.0000000  0.6508444  3
   9324   9322   9344   9328     1  0.0000000  1.6038667  3
   9325   9323   9322   9336     1  0.0000000  0.6508444  3
   9325   9323   9322   9344     1  0.0000000  1.0460000  1
   9325   9323   9322   9344     1  0.0000000  0.0000000  3
   9325   9323   9326   9327     1  0.0000000  0.6508444  3
   9325   9323   9326   9334     1  0.0000000  1.0460000  1
   9325   9323   9326   9334     1  0.0000000  0.0000000  3
   9325   9323   9326   9330     1  0.0000000  0.6508444  3
   9325   9323   9335   9338     1  0.0000000  0.6973333  3
   9326   9323   9335   9338     1  0.0000000  1.0460000  1
   9326   9323   9335   9338     1  0.0000000  0.6694400  3
   9326   9327   9328   9331     1  0.0000000  0.6508444  3
   9326   9327   9333   9339     1  0.0000000  1.0460000  1
   9326   9327   9333   9339     1  0.0000000  0.6694400  3
   9327   9326   9334   9337     1  0.0000000  1.0460000  1
   9327   9326   9334   9337     1  0.0000000  0.6694400  3
   9328   9327   9326   9330     1  0.0000000  0.6508444  3
   9328   9327   9333   9339     1  0.0000000  1.0460000  1
   9328   9327   9333   9339     1  0.0000000  0.6694400  3
   9329   9327   9326   9334     1  0.0000000  1.0460000  1
   9329   9327   9326   9334     1  0.0000000  0.0000000  3
   9329   9327   9326   9330     1  0.0000000  0.6508444  3
   9329   9327   9328   9332     1  0.0000000  1.0460000  1
   9329   9327   9328   9332     1  0.0000000  0.0000000  3
   9329   9327   9328   9344     1  0.0000000  1.0460000  1
   9329   9327   9328   9344     1  0.0000000  0.0000000  3
   9329   9327   9328   9331     1  0.0000000  0.6508444  3
   9329   9327   9333   9339     1  0.0000000  0.6973333  3
   9330   9326   9323   9335     1  0.0000000  1.0460000  1
   9330   9326   9323   9335     1  0.0000000  0.0000000  3
   9330   9326   9327   9333     1  0.0000000  1.0460000  1
   9330   9326   9327   9333     1  0.0000000  0.0000000  3
   9330   9326   9334   9337     1  0.0000000  0.6973333  3
   9331   9328   9327   9333     1  0.0000000  0.6508444  3
   9340   9336   9322   9344     1  0.0000000  1.0460000  1
   9340   9336   9322   9344     1  0.0000000  0.0000000  3
   9340   9336   9342   9343     1  0.0000000  0.6973333  3
   9341   9336   9322   9344     1  0.0000000  1.0460000  1
   9341   9336   9322   9344     1  0.0000000  0.0000000  3
   9341   9336   9342   9343     1  0.0000000  0.6973333  3
   9345   9346   9349   9353     1  0.0000000  0.6508444  3
   9345   9346   9358   9361     1  0.0000000  1.0460000  1
   9345   9346   9358   9361     1  0.0000000  0.6694400  3
   9345   9359   9365   9366     1  0.0000000  1.0460000  1
   9345   9359   9365   9366     1  0.0000000  0.6694400  3
   9345   9367   9351   9354     1  0.0000000  1.6038667  3
   9346   9349   9350   9352     1  0.0000000  0.6508444  3
   9346   9349   9357   9360     1  0.0000000  1.0460000  1
   9346   9349   9357   9360     1  0.0000000  0.6694400  3
   9346   9345   9359   9363     1  0.0000000  0.6508444  3
   9346   9345   9359   9364     1  0.0000000  0.6508444  3
   9347   9345   9346   9349     1  0.0000000  0.6508444  3
   9347   9345   9346   9358     1  0.0000000  1.0460000  1
   9347   9345   9346   9358     1  0.0000000  0.0000000  3
   9347   9345   9346   9348     1  0.0000000  0.6508444  3
   9347   9345   9359   9365     1  0.0000000  1.0460000  1
   9347   9345   9359   9365     1  0.0000000  0.0000000  3
   9347   9345   9359   9363     1  0.0000000  0.6508444  3
   9347   9345   9359   9364     1  0.0000000  0.6508444  3
   9347   9345   9367   9351     1  0.0000000  1.6038667  3
   9348   9346   9349   9350     1  0.0000000  0.6508444  3
   9348   9346   9349   9357     1  0.0000000  1.0460000  1
   9348   9346   9349   9357     1  0.0000000  0.0000000  3
   9348   9346   9349   9353     1  0.0000000  0.6508444  3
   9348   9346   9358   9361     1  0.0000000  0.6973333  3
   9348   9346   9345   9359     1  0.0000000  0.6508444  3
   9348   9346   9345   9367     1  0.0000000  1.0460000  1
   9348   9346   9345   9367     1  0.0000000  0.0000000  3
   9349   9350   9351   9354     1  0.0000000  0.6508444  3
   9349   9350   9356   9362     1  0.0000000  1.0460000  1
   9349   9350   9356   9362     1  0.0000000  0.6694400  3
   9349   9346   9358   9361     1  0.0000000  1.0460000  1
   9349   9346   9358   9361     1  0.0000000  0.6694400  3
   9350   9349   9357   9360     1  0.0000000  1.0460000  1
   9350   9349   9357   9360     1  0.0000000  0.6694400  3
   9351   9350   9356   9362     1  0.0000000  1.0460000  1
   9351   9350   9356   9362     1  0.0000000  0.6694400  3
   9351   9350   9349   9353     1  0.0000000  0.6508444  3
   9352   9350   9351   9355     1  0.0000000  1.0460000  1
   9352   9350   9351   9355     1  0.0000000  0.0000000  3
   9352   9350   9351   9367     1  0.0000000  1.0460000  1
   9352   9350   9351   9367     1  0.0000000  0.0000000  3
   9352   9350   9351   9354     1  0.0000000  0.6508444  3
   9352   9350   9356   9362     1  0.0000000  0.6973333  3
   9352   9350   9349   9357     1  0.0000000  1.0460000  1
   9352   9350   9349   9357     1  0.0000000  0.0000000  3
   9352   9350   9349   9353     1  0.0000000  0.6508444  3
   9353   9349   9350   9356     1  0.0000000  1.0460000  1
   9353   9349   9350   9356     1  0.0000000  0.0000000  3
   9353   9349   9357   9360     1  0.0000000  0.6973333  3
   9353   9349   9346   9358     1  0.0000000  1.0460000  1
   9353   9349   9346   9358     1  0.0000000  0.0000000  3
   9354   9351   9350   9356     1  0.0000000  0.6508444  3
   9363   9359   9365   9366     1  0.0000000  0.6973333  3
   9363   9359   9345   9367     1  0.0000000  1.0460000  1
   9363   9359   9345   9367     1  0.0000000  0.0000000  3
   9364   9359   9365   9366     1  0.0000000  0.6973333  3
   9364   9359   9345   9367     1  0.0000000  1.0460000  1
   9364   9359   9345   9367     1  0.0000000  0.0000000  3
   9368   9369   9372   9376     1  0.0000000  0.6508444  3
   9368   9369   9381   9384     1  0.0000000  1.0460000  1
   9368   9369   9381   9384     1  0.0000000  0.6694400  3
   9368   9382   9388   9389     1  0.0000000  1.0460000  1
   9368   9382   9388   9389     1  0.0000000  0.6694400  3
   9368   9390   9374   9377     1  0.0000000  1.6038667  3
   9369   9368   9382   9386     1  0.0000000  0.6508444  3
   9369   9368   9382   9387     1  0.0000000  0.6508444  3
   9369   9372   9373   9375     1  0.0000000  0.6508444  3
   9369   9372   9380   9383     1  0.0000000  1.0460000  1
   9369   9372   9380   9383     1  0.0000000  0.6694400  3
   9370   9368   9369   9372     1  0.0000000  0.6508444  3
   9370   9368   9369   9381     1  0.0000000  1.0460000  1
   9370   9368   9369   9381     1  0.0000000  0.0000000  3
   9370   9368   9369   9371     1  0.0000000  0.6508444  3
   9370   9368   9382   9388     1  0.0000000  1.0460000  1
   9370   9368   9382   9388     1  0.0000000  0.0000000  3
   9370   9368   9382   9386     1  0.0000000  0.6508444  3
   9370   9368   9382   9387     1  0.0000000  0.6508444  3
   9370   9368   9390   9374     1  0.0000000  1.6038667  3
   9371   9369   9368   9382     1  0.0000000  0.6508444  3
   9371   9369   9368   9390     1  0.0000000  1.0460000  1
   9371   9369   9368   9390     1  0.0000000  0.0000000  3
   9371   9369   9372   9373     1  0.0000000  0.6508444  3
   9371   9369   9372   9380     1  0.0000000  1.0460000  1
   9371   9369   9372   9380     1  0.0000000  0.0000000  3
   9371   9369   9372   9376     1  0.0000000  0.6508444  3
   9371   9369   9381   9384     1  0.0000000  0.6973333  3
   9372   9369   9381   9384     1  0.0000000  1.0460000  1
   9372   9369   9381   9384     1  0.0000000  0.6694400  3
   9372   9373   9374   9377     1  0.0000000  0.6508444  3
   9372   9373   9379   9385     1  0.0000000  1.0460000  1
   9372   9373   9379   9385     1  0.0000000  0.6694400  3
   9373   9372   9380   9383     1  0.0000000  1.0460000  1
   9373   9372   9380   9383     1  0.0000000  0.6694400  3
   9374   9373   9372   9376     1  0.0000000  0.6508444  3
   9374   9373   9379   9385     1  0.0000000  1.0460000  1
   9374   9373   9379   9385     1  0.0000000  0.6694400  3
   9375   9373   9372   9380     1  0.0000000  1.0460000  1
   9375   9373   9372   9380     1  0.0000000  0.0000000  3
   9375   9373   9372   9376     1  0.0000000  0.6508444  3
   9375   9373   9374   9378     1  0.0000000  1.0460000  1
   9375   9373   9374   9378     1  0.0000000  0.0000000  3
   9375   9373   9374   9390     1  0.0000000  1.0460000  1
   9375   9373   9374   9390     1  0.0000000  0.0000000  3
   9375   9373   9374   9377     1  0.0000000  0.6508444  3
   9375   9373   9379   9385     1  0.0000000  0.6973333  3
   9376   9372   9369   9381     1  0.0000000  1.0460000  1
   9376   9372   9369   9381     1  0.0000000  0.0000000  3
   9376   9372   9373   9379     1  0.0000000  1.0460000  1
   9376   9372   9373   9379     1  0.0000000  0.0000000  3
   9376   9372   9380   9383     1  0.0000000  0.6973333  3
   9377   9374   9373   9379     1  0.0000000  0.6508444  3
   9386   9382   9368   9390     1  0.0000000  1.0460000  1
   9386   9382   9368   9390     1  0.0000000  0.0000000  3
   9386   9382   9388   9389     1  0.0000000  0.6973333  3
   9387   9382   9368   9390     1  0.0000000  1.0460000  1
   9387   9382   9368   9390     1  0.0000000  0.0000000  3
   9387   9382   9388   9389     1  0.0000000  0.6973333  3
   9391   9392   9395   9399     1  0.0000000  0.6508444  3
   9391   9392   9404   9407     1  0.0000000  1.0460000  1
   9391   9392   9404   9407     1  0.0000000  0.6694400  3
   9391   9405   9411   9412     1  0.0000000  1.0460000  1
   9391   9405   9411   9412     1  0.0000000  0.6694400  3
   9391   9413   9397   9400     1  0.0000000  1.6038667  3
   9392   9395   9396   9398     1  0.0000000  0.6508444  3
   9392   9395   9403   9406     1  0.0000000  1.0460000  1
   9392   9395   9403   9406     1  0.0000000  0.6694400  3
   9392   9391   9405   9409     1  0.0000000  0.6508444  3
   9392   9391   9405   9410     1  0.0000000  0.6508444  3
   9393   9391   9392   9395     1  0.0000000  0.6508444  3
   9393   9391   9392   9404     1  0.0000000  1.0460000  1
   9393   9391   9392   9404     1  0.0000000  0.0000000  3
   9393   9391   9392   9394     1  0.0000000  0.6508444  3
   9393   9391   9405   9411     1  0.0000000  1.0460000  1
   9393   9391   9405   9411     1  0.0000000  0.0000000  3
   9393   9391   9405   9409     1  0.0000000  0.6508444  3
   9393   9391   9405   9410     1  0.0000000  0.6508444  3
   9393   9391   9413   9397     1  0.0000000  1.6038667  3
   9394   9392   9395   9396     1  0.0000000  0.6508444  3
   9394   9392   9395   9403     1  0.0000000  1.0460000  1
   9394   9392   9395   9403     1  0.0000000  0.0000000  3
   9394   9392   9395   9399     1  0.0000000  0.6508444  3
   9394   9392   9404   9407     1  0.0000000  0.6973333  3
   9394   9392   9391   9405     1  0.0000000  0.6508444  3
   9394   9392   9391   9413     1  0.0000000  1.0460000  1
   9394   9392   9391   9413     1  0.0000000  0.0000000  3
   9395   9396   9397   9400     1  0.0000000  0.6508444  3
   9395   9396   9402   9408     1  0.0000000  1.0460000  1
   9395   9396   9402   9408     1  0.0000000  0.6694400  3
   9395   9392   9404   9407     1  0.0000000  1.0460000  1
   9395   9392   9404   9407     1  0.0000000  0.6694400  3
   9396   9395   9403   9406     1  0.0000000  1.0460000  1
   9396   9395   9403   9406     1  0.0000000  0.6694400  3
   9397   9396   9402   9408     1  0.0000000  1.0460000  1
   9397   9396   9402   9408     1  0.0000000  0.6694400  3
   9397   9396   9395   9399     1  0.0000000  0.6508444  3
   9398   9396   9397   9401     1  0.0000000  1.0460000  1
   9398   9396   9397   9401     1  0.0000000  0.0000000  3
   9398   9396   9397   9413     1  0.0000000  1.0460000  1
   9398   9396   9397   9413     1  0.0000000  0.0000000  3
   9398   9396   9397   9400     1  0.0000000  0.6508444  3
   9398   9396   9402   9408     1  0.0000000  0.6973333  3
   9398   9396   9395   9403     1  0.0000000  1.0460000  1
   9398   9396   9395   9403     1  0.0000000  0.0000000  3
   9398   9396   9395   9399     1  0.0000000  0.6508444  3
   9399   9395   9396   9402     1  0.0000000  1.0460000  1
   9399   9395   9396   9402     1  0.0000000  0.0000000  3
   9399   9395   9403   9406     1  0.0000000  0.6973333  3
   9399   9395   9392   9404     1  0.0000000  1.0460000  1
   9399   9395   9392   9404     1  0.0000000  0.0000000  3
   9400   9397   9396   9402     1  0.0000000  0.6508444  3
   9409   9405   9411   9412     1  0.0000000  0.6973333  3
   9409   9405   9391   9413     1  0.0000000  1.0460000  1
   9409   9405   9391   9413     1  0.0000000  0.0000000  3
   9410   9405   9411   9412     1  0.0000000  0.6973333  3
   9410   9405   9391   9413     1  0.0000000  1.0460000  1
   9410   9405   9391   9413     1  0.0000000  0.0000000  3
   9414   9415   9418   9422     1  0.0000000  0.6508444  3
   9414   9415   9427   9430     1  0.0000000  1.0460000  1
   9414   9415   9427   9430     1  0.0000000  0.6694400  3
   9414   9428   9434   9435     1  0.0000000  1.0460000  1
   9414   9428   9434   9435     1  0.0000000  0.6694400  3
   9414   9436   9420   9423     1  0.0000000  1.6038667  3
   9415   9414   9428   9432     1  0.0000000  0.6508444  3
   9415   9414   9428   9433     1  0.0000000  0.6508444  3
   9415   9418   9419   9421     1  0.0000000  0.6508444  3
   9415   9418   9426   9429     1  0.0000000  1.0460000  1
   9415   9418   9426   9429     1  0.0000000  0.6694400  3
   9416   9414   9415   9418     1  0.0000000  0.6508444  3
   9416   9414   9415   9427     1  0.0000000  1.0460000  1
   9416   9414   9415   9427     1  0.0000000  0.0000000  3
   9416   9414   9415   9417     1  0.0000000  0.6508444  3
   9416   9414   9428   9434     1  0.0000000  1.0460000  1
   9416   9414   9428   9434     1  0.0000000  0.0000000  3
   9416   9414   9428   9432     1  0.0000000  0.6508444  3
   9416   9414   9428   9433     1  0.0000000  0.6508444  3
   9416   9414   9436   9420     1  0.0000000  1.6038667  3
   9417   9415   9414   9428     1  0.0000000  0.6508444  3
   9417   9415   9414   9436     1  0.0000000  1.0460000  1
   9417   9415   9414   9436     1  0.0000000  0.0000000  3
   9417   9415   9418   9419     1  0.0000000  0.6508444  3
   9417   9415   9418   9426     1  0.0000000  1.0460000  1
   9417   9415   9418   9426     1  0.0000000  0.0000000  3
   9417   9415   9418   9422     1  0.0000000  0.6508444  3
   9417   9415   9427   9430     1  0.0000000  0.6973333  3
   9418   9415   9427   9430     1  0.0000000  1.0460000  1
   9418   9415   9427   9430     1  0.0000000  0.6694400  3
   9418   9419   9420   9423     1  0.0000000  0.6508444  3
   9418   9419   9425   9431     1  0.0000000  1.0460000  1
   9418   9419   9425   9431     1  0.0000000  0.6694400  3
   9419   9418   9426   9429     1  0.0000000  1.0460000  1
   9419   9418   9426   9429     1  0.0000000  0.6694400  3
   9420   9419   9418   9422     1  0.0000000  0.6508444  3
   9420   9419   9425   9431     1  0.0000000  1.0460000  1
   9420   9419   9425   9431     1  0.0000000  0.6694400  3
   9421   9419   9418   9426     1  0.0000000  1.0460000  1
   9421   9419   9418   9426     1  0.0000000  0.0000000  3
   9421   9419   9418   9422     1  0.0000000  0.6508444  3
   9421   9419   9420   9424     1  0.0000000  1.0460000  1
   9421   9419   9420   9424     1  0.0000000  0.0000000  3
   9421   9419   9420   9436     1  0.0000000  1.0460000  1
   9421   9419   9420   9436     1  0.0000000  0.0000000  3
   9421   9419   9420   9423     1  0.0000000  0.6508444  3
   9421   9419   9425   9431     1  0.0000000  0.6973333  3
   9422   9418   9415   9427     1  0.0000000  1.0460000  1
   9422   9418   9415   9427     1  0.0000000  0.0000000  3
   9422   9418   9419   9425     1  0.0000000  1.0460000  1
   9422   9418   9419   9425     1  0.0000000  0.0000000  3
   9422   9418   9426   9429     1  0.0000000  0.6973333  3
   9423   9420   9419   9425     1  0.0000000  0.6508444  3
   9432   9428   9414   9436     1  0.0000000  1.0460000  1
   9432   9428   9414   9436     1  0.0000000  0.0000000  3
   9432   9428   9434   9435     1  0.0000000  0.6973333  3
   9433   9428   9414   9436     1  0.0000000  1.0460000  1
   9433   9428   9414   9436     1  0.0000000  0.0000000  3
   9433   9428   9434   9435     1  0.0000000  0.6973333  3
   9437   9438   9441   9445     1  0.0000000  0.6508444  3
   9437   9438   9450   9453     1  0.0000000  1.0460000  1
   9437   9438   9450   9453     1  0.0000000  0.6694400  3
   9437   9451   9457   9458     1  0.0000000  1.0460000  1
   9437   9451   9457   9458     1  0.0000000  0.6694400  3
   9437   9459   9443   9446     1  0.0000000  1.6038667  3
   9438   9441   9442   9444     1  0.0000000  0.6508444  3
   9438   9441   9449   9452     1  0.0000000  1.0460000  1
   9438   9441   9449   9452     1  0.0000000  0.6694400  3
   9438   9437   9451   9455     1  0.0000000  0.6508444  3
   9438   9437   9451   9456     1  0.0000000  0.6508444  3
   9439   9437   9438   9441     1  0.0000000  0.6508444  3
   9439   9437   9438   9450     1  0.0000000  1.0460000  1
   9439   9437   9438   9450     1  0.0000000  0.0000000  3
   9439   9437   9438   9440     1  0.0000000  0.6508444  3
   9439   9437   9451   9457     1  0.0000000  1.0460000  1
   9439   9437   9451   9457     1  0.0000000  0.0000000  3
   9439   9437   9451   9455     1  0.0000000  0.6508444  3
   9439   9437   9451   9456     1  0.0000000  0.6508444  3
   9439   9437   9459   9443     1  0.0000000  1.6038667  3
   9440   9438   9441   9442     1  0.0000000  0.6508444  3
   9440   9438   9441   9449     1  0.0000000  1.0460000  1
   9440   9438   9441   9449     1  0.0000000  0.0000000  3
   9440   9438   9441   9445     1  0.0000000  0.6508444  3
   9440   9438   9450   9453     1  0.0000000  0.6973333  3
   9440   9438   9437   9451     1  0.0000000  0.6508444  3
   9440   9438   9437   9459     1  0.0000000  1.0460000  1
   9440   9438   9437   9459     1  0.0000000  0.0000000  3
   9441   9442   9443   9446     1  0.0000000  0.6508444  3
   9441   9442   9448   9454     1  0.0000000  1.0460000  1
   9441   9442   9448   9454     1  0.0000000  0.6694400  3
   9441   9438   9450   9453     1  0.0000000  1.0460000  1
   9441   9438   9450   9453     1  0.0000000  0.6694400  3
   9442   9441   9449   9452     1  0.0000000  1.0460000  1
   9442   9441   9449   9452     1  0.0000000  0.6694400  3
   9443   9442   9448   9454     1  0.0000000  1.0460000  1
   9443   9442   9448   9454     1  0.0000000  0.6694400  3
   9443   9442   9441   9445     1  0.0000000  0.6508444  3
   9444   9442   9443   9447     1  0.0000000  1.0460000  1
   9444   9442   9443   9447     1  0.0000000  0.0000000  3
   9444   9442   9443   9459     1  0.0000000  1.0460000  1
   9444   9442   9443   9459     1  0.0000000  0.0000000  3
   9444   9442   9443   9446     1  0.0000000  0.6508444  3
   9444   9442   9448   9454     1  0.0000000  0.6973333  3
   9444   9442   9441   9449     1  0.0000000  1.0460000  1
   9444   9442   9441   9449     1  0.0000000  0.0000000  3
   9444   9442   9441   9445     1  0.0000000  0.6508444  3
   9445   9441   9442   9448     1  0.0000000  1.0460000  1
   9445   9441   9442   9448     1  0.0000000  0.0000000  3
   9445   9441   9449   9452     1  0.0000000  0.6973333  3
   9445   9441   9438   9450     1  0.0000000  1.0460000  1
   9445   9441   9438   9450     1  0.0000000  0.0000000  3
   9446   9443   9442   9448     1  0.0000000  0.6508444  3
   9455   9451   9457   9458     1  0.0000000  0.6973333  3
   9455   9451   9437   9459     1  0.0000000  1.0460000  1
   9455   9451   9437   9459     1  0.0000000  0.0000000  3
   9456   9451   9457   9458     1  0.0000000  0.6973333  3
   9456   9451   9437   9459     1  0.0000000  1.0460000  1
   9456   9451   9437   9459     1  0.0000000  0.0000000  3
   9460   9461   9464   9468     1  0.0000000  0.6508444  3
   9460   9461   9473   9476     1  0.0000000  1.0460000  1
   9460   9461   9473   9476     1  0.0000000  0.6694400  3
   9460   9474   9480   9481     1  0.0000000  1.0460000  1
   9460   9474   9480   9481     1  0.0000000  0.6694400  3
   9460   9482   9466   9469     1  0.0000000  1.6038667  3
   9461   9460   9474   9478     1  0.0000000  0.6508444  3
   9461   9460   9474   9479     1  0.0000000  0.6508444  3
   9461   9464   9465   9467     1  0.0000000  0.6508444  3
   9461   9464   9472   9475     1  0.0000000  1.0460000  1
   9461   9464   9472   9475     1  0.0000000  0.6694400  3
   9462   9460   9461   9464     1  0.0000000  0.6508444  3
   9462   9460   9461   9473     1  0.0000000  1.0460000  1
   9462   9460   9461   9473     1  0.0000000  0.0000000  3
   9462   9460   9461   9463     1  0.0000000  0.6508444  3
   9462   9460   9474   9480     1  0.0000000  1.0460000  1
   9462   9460   9474   9480     1  0.0000000  0.0000000  3
   9462   9460   9474   9478     1  0.0000000  0.6508444  3
   9462   9460   9474   9479     1  0.0000000  0.6508444  3
   9462   9460   9482   9466     1  0.0000000  1.6038667  3
   9463   9461   9460   9474     1  0.0000000  0.6508444  3
   9463   9461   9460   9482     1  0.0000000  1.0460000  1
   9463   9461   9460   9482     1  0.0000000  0.0000000  3
   9463   9461   9464   9465     1  0.0000000  0.6508444  3
   9463   9461   9464   9472     1  0.0000000  1.0460000  1
   9463   9461   9464   9472     1  0.0000000  0.0000000  3
   9463   9461   9464   9468     1  0.0000000  0.6508444  3
   9463   9461   9473   9476     1  0.0000000  0.6973333  3
   9464   9461   9473   9476     1  0.0000000  1.0460000  1
   9464   9461   9473   9476     1  0.0000000  0.6694400  3
   9464   9465   9466   9469     1  0.0000000  0.6508444  3
   9464   9465   9471   9477     1  0.0000000  1.0460000  1
   9464   9465   9471   9477     1  0.0000000  0.6694400  3
   9465   9464   9472   9475     1  0.0000000  1.0460000  1
   9465   9464   9472   9475     1  0.0000000  0.6694400  3
   9466   9465   9464   9468     1  0.0000000  0.6508444  3
   9466   9465   9471   9477     1  0.0000000  1.0460000  1
   9466   9465   9471   9477     1  0.0000000  0.6694400  3
   9467   9465   9464   9472     1  0.0000000  1.0460000  1
   9467   9465   9464   9472     1  0.0000000  0.0000000  3
   9467   9465   9464   9468     1  0.0000000  0.6508444  3
   9467   9465   9466   9470     1  0.0000000  1.0460000  1
   9467   9465   9466   9470     1  0.0000000  0.0000000  3
   9467   9465   9466   9482     1  0.0000000  1.0460000  1
   9467   9465   9466   9482     1  0.0000000  0.0000000  3
   9467   9465   9466   9469     1  0.0000000  0.6508444  3
   9467   9465   9471   9477     1  0.0000000  0.6973333  3
   9468   9464   9461   9473     1  0.0000000  1.0460000  1
   9468   9464   9461   9473     1  0.0000000  0.0000000  3
   9468   9464   9465   9471     1  0.0000000  1.0460000  1
   9468   9464   9465   9471     1  0.0000000  0.0000000  3
   9468   9464   9472   9475     1  0.0000000  0.6973333  3
   9469   9466   9465   9471     1  0.0000000  0.6508444  3
   9478   9474   9460   9482     1  0.0000000  1.0460000  1
   9478   9474   9460   9482     1  0.0000000  0.0000000  3
   9478   9474   9480   9481     1  0.0000000  0.6973333  3
   9479   9474   9460   9482     1  0.0000000  1.0460000  1
   9479   9474   9460   9482     1  0.0000000  0.0000000  3
   9479   9474   9480   9481     1  0.0000000  0.6973333  3
   9483   9484   9487   9491     1  0.0000000  0.6508444  3
   9483   9484   9496   9499     1  0.0000000  1.0460000  1
   9483   9484   9496   9499     1  0.0000000  0.6694400  3
   9483   9497   9503   9504     1  0.0000000  1.0460000  1
   9483   9497   9503   9504     1  0.0000000  0.6694400  3
   9483   9505   9489   9492     1  0.0000000  1.6038667  3
   9484   9487   9488   9490     1  0.0000000  0.6508444  3
   9484   9487   9495   9498     1  0.0000000  1.0460000  1
   9484   9487   9495   9498     1  0.0000000  0.6694400  3
   9484   9483   9497   9501     1  0.0000000  0.6508444  3
   9484   9483   9497   9502     1  0.0000000  0.6508444  3
   9485   9483   9484   9487     1  0.0000000  0.6508444  3
   9485   9483   9484   9496     1  0.0000000  1.0460000  1
   9485   9483   9484   9496     1  0.0000000  0.0000000  3
   9485   9483   9484   9486     1  0.0000000  0.6508444  3
   9485   9483   9497   9503     1  0.0000000  1.0460000  1
   9485   9483   9497   9503     1  0.0000000  0.0000000  3
   9485   9483   9497   9501     1  0.0000000  0.6508444  3
   9485   9483   9497   9502     1  0.0000000  0.6508444  3
   9485   9483   9505   9489     1  0.0000000  1.6038667  3
   9486   9484   9487   9488     1  0.0000000  0.6508444  3
   9486   9484   9487   9495     1  0.0000000  1.0460000  1
   9486   9484   9487   9495     1  0.0000000  0.0000000  3
   9486   9484   9487   9491     1  0.0000000  0.6508444  3
   9486   9484   9496   9499     1  0.0000000  0.6973333  3
   9486   9484   9483   9497     1  0.0000000  0.6508444  3
   9486   9484   9483   9505     1  0.0000000  1.0460000  1
   9486   9484   9483   9505     1  0.0000000  0.0000000  3
   9487   9488   9489   9492     1  0.0000000  0.6508444  3
   9487   9488   9494   9500     1  0.0000000  1.0460000  1
   9487   9488   9494   9500     1  0.0000000  0.6694400  3
   9487   9484   9496   9499     1  0.0000000  1.0460000  1
   9487   9484   9496   9499     1  0.0000000  0.6694400  3
   9488   9487   9495   9498     1  0.0000000  1.0460000  1
   9488   9487   9495   9498     1  0.0000000  0.6694400  3
   9489   9488   9494   9500     1  0.0000000  1.0460000  1
   9489   9488   9494   9500     1  0.0000000  0.6694400  3
   9489   9488   9487   9491     1  0.0000000  0.6508444  3
   9490   9488   9489   9493     1  0.0000000  1.0460000  1
   9490   9488   9489   9493     1  0.0000000  0.0000000  3
   9490   9488   9489   9505     1  0.0000000  1.0460000  1
   9490   9488   9489   9505     1  0.0000000  0.0000000  3
   9490   9488   9489   9492     1  0.0000000  0.6508444  3
   9490   9488   9494   9500     1  0.0000000  0.6973333  3
   9490   9488   9487   9495     1  0.0000000  1.0460000  1
   9490   9488   9487   9495     1  0.0000000  0.0000000  3
   9490   9488   9487   9491     1  0.0000000  0.6508444  3
   9491   9487   9488   9494     1  0.0000000  1.0460000  1
   9491   9487   9488   9494     1  0.0000000  0.0000000  3
   9491   9487   9495   9498     1  0.0000000  0.6973333  3
   9491   9487   9484   9496     1  0.0000000  1.0460000  1
   9491   9487   9484   9496     1  0.0000000  0.0000000  3
   9492   9489   9488   9494     1  0.0000000  0.6508444  3
   9501   9497   9503   9504     1  0.0000000  0.6973333  3
   9501   9497   9483   9505     1  0.0000000  1.0460000  1
   9501   9497   9483   9505     1  0.0000000  0.0000000  3
   9502   9497   9503   9504     1  0.0000000  0.6973333  3
   9502   9497   9483   9505     1  0.0000000  1.0460000  1
   9502   9497   9483   9505     1  0.0000000  0.0000000  3
   9506   9507   9510   9514     1  0.0000000  0.6508444  3
   9506   9507   9519   9522     1  0.0000000  1.0460000  1
   9506   9507   9519   9522     1  0.0000000  0.6694400  3
   9506   9520   9526   9527     1  0.0000000  1.0460000  1
   9506   9520   9526   9527     1  0.0000000  0.6694400  3
   9506   9528   9512   9515     1  0.0000000  1.6038667  3
   9507   9506   9520   9524     1  0.0000000  0.6508444  3
   9507   9506   9520   9525     1  0.0000000  0.6508444  3
   9507   9510   9511   9513     1  0.0000000  0.6508444  3
   9507   9510   9518   9521     1  0.0000000  1.0460000  1
   9507   9510   9518   9521     1  0.0000000  0.6694400  3
   9508   9506   9507   9510     1  0.0000000  0.6508444  3
   9508   9506   9507   9519     1  0.0000000  1.0460000  1
   9508   9506   9507   9519     1  0.0000000  0.0000000  3
   9508   9506   9507   9509     1  0.0000000  0.6508444  3
   9508   9506   9520   9526     1  0.0000000  1.0460000  1
   9508   9506   9520   9526     1  0.0000000  0.0000000  3
   9508   9506   9520   9524     1  0.0000000  0.6508444  3
   9508   9506   9520   9525     1  0.0000000  0.6508444  3
   9508   9506   9528   9512     1  0.0000000  1.6038667  3
   9509   9507   9506   9520     1  0.0000000  0.6508444  3
   9509   9507   9506   9528     1  0.0000000  1.0460000  1
   9509   9507   9506   9528     1  0.0000000  0.0000000  3
   9509   9507   9510   9511     1  0.0000000  0.6508444  3
   9509   9507   9510   9518     1  0.0000000  1.0460000  1
   9509   9507   9510   9518     1  0.0000000  0.0000000  3
   9509   9507   9510   9514     1  0.0000000  0.6508444  3
   9509   9507   9519   9522     1  0.0000000  0.6973333  3
   9510   9507   9519   9522     1  0.0000000  1.0460000  1
   9510   9507   9519   9522     1  0.0000000  0.6694400  3
   9510   9511   9512   9515     1  0.0000000  0.6508444  3
   9510   9511   9517   9523     1  0.0000000  1.0460000  1
   9510   9511   9517   9523     1  0.0000000  0.6694400  3
   9511   9510   9518   9521     1  0.0000000  1.0460000  1
   9511   9510   9518   9521     1  0.0000000  0.6694400  3
   9512   9511   9510   9514     1  0.0000000  0.6508444  3
   9512   9511   9517   9523     1  0.0000000  1.0460000  1
   9512   9511   9517   9523     1  0.0000000  0.6694400  3
   9513   9511   9510   9518     1  0.0000000  1.0460000  1
   9513   9511   9510   9518     1  0.0000000  0.0000000  3
   9513   9511   9510   9514     1  0.0000000  0.6508444  3
   9513   9511   9512   9516     1  0.0000000  1.0460000  1
   9513   9511   9512   9516     1  0.0000000  0.0000000  3
   9513   9511   9512   9528     1  0.0000000  1.0460000  1
   9513   9511   9512   9528     1  0.0000000  0.0000000  3
   9513   9511   9512   9515     1  0.0000000  0.6508444  3
   9513   9511   9517   9523     1  0.0000000  0.6973333  3
   9514   9510   9507   9519     1  0.0000000  1.0460000  1
   9514   9510   9507   9519     1  0.0000000  0.0000000  3
   9514   9510   9511   9517     1  0.0000000  1.0460000  1
   9514   9510   9511   9517     1  0.0000000  0.0000000  3
   9514   9510   9518   9521     1  0.0000000  0.6973333  3
   9515   9512   9511   9517     1  0.0000000  0.6508444  3
   9524   9520   9506   9528     1  0.0000000  1.0460000  1
   9524   9520   9506   9528     1  0.0000000  0.0000000  3
   9524   9520   9526   9527     1  0.0000000  0.6973333  3
   9525   9520   9506   9528     1  0.0000000  1.0460000  1
   9525   9520   9506   9528     1  0.0000000  0.0000000  3
   9525   9520   9526   9527     1  0.0000000  0.6973333  3
   9529   9530   9533   9537     1  0.0000000  0.6508444  3
   9529   9530   9542   9545     1  0.0000000  1.0460000  1
   9529   9530   9542   9545     1  0.0000000  0.6694400  3
   9529   9543   9549   9550     1  0.0000000  1.0460000  1
   9529   9543   9549   9550     1  0.0000000  0.6694400  3
   9529   9551   9535   9538     1  0.0000000  1.6038667  3
   9530   9533   9534   9536     1  0.0000000  0.6508444  3
   9530   9533   9541   9544     1  0.0000000  1.0460000  1
   9530   9533   9541   9544     1  0.0000000  0.6694400  3
   9530   9529   9543   9547     1  0.0000000  0.6508444  3
   9530   9529   9543   9548     1  0.0000000  0.6508444  3
   9531   9529   9530   9533     1  0.0000000  0.6508444  3
   9531   9529   9530   9542     1  0.0000000  1.0460000  1
   9531   9529   9530   9542     1  0.0000000  0.0000000  3
   9531   9529   9530   9532     1  0.0000000  0.6508444  3
   9531   9529   9543   9549     1  0.0000000  1.0460000  1
   9531   9529   9543   9549     1  0.0000000  0.0000000  3
   9531   9529   9543   9547     1  0.0000000  0.6508444  3
   9531   9529   9543   9548     1  0.0000000  0.6508444  3
   9531   9529   9551   9535     1  0.0000000  1.6038667  3
   9532   9530   9533   9534     1  0.0000000  0.6508444  3
   9532   9530   9533   9541     1  0.0000000  1.0460000  1
   9532   9530   9533   9541     1  0.0000000  0.0000000  3
   9532   9530   9533   9537     1  0.0000000  0.6508444  3
   9532   9530   9542   9545     1  0.0000000  0.6973333  3
   9532   9530   9529   9543     1  0.0000000  0.6508444  3
   9532   9530   9529   9551     1  0.0000000  1.0460000  1
   9532   9530   9529   9551     1  0.0000000  0.0000000  3
   9533   9534   9535   9538     1  0.0000000  0.6508444  3
   9533   9534   9540   9546     1  0.0000000  1.0460000  1
   9533   9534   9540   9546     1  0.0000000  0.6694400  3
   9533   9530   9542   9545     1  0.0000000  1.0460000  1
   9533   9530   9542   9545     1  0.0000000  0.6694400  3
   9534   9533   9541   9544     1  0.0000000  1.0460000  1
   9534   9533   9541   9544     1  0.0000000  0.6694400  3
   9535   9534   9540   9546     1  0.0000000  1.0460000  1
   9535   9534   9540   9546     1  0.0000000  0.6694400  3
   9535   9534   9533   9537     1  0.0000000  0.6508444  3
   9536   9534   9535   9539     1  0.0000000  1.0460000  1
   9536   9534   9535   9539     1  0.0000000  0.0000000  3
   9536   9534   9535   9551     1  0.0000000  1.0460000  1
   9536   9534   9535   9551     1  0.0000000  0.0000000  3
   9536   9534   9535   9538     1  0.0000000  0.6508444  3
   9536   9534   9540   9546     1  0.0000000  0.6973333  3
   9536   9534   9533   9541     1  0.0000000  1.0460000  1
   9536   9534   9533   9541     1  0.0000000  0.0000000  3
   9536   9534   9533   9537     1  0.0000000  0.6508444  3
   9537   9533   9534   9540     1  0.0000000  1.0460000  1
   9537   9533   9534   9540     1  0.0000000  0.0000000  3
   9537   9533   9541   9544     1  0.0000000  0.6973333  3
   9537   9533   9530   9542     1  0.0000000  1.0460000  1
   9537   9533   9530   9542     1  0.0000000  0.0000000  3
   9538   9535   9534   9540     1  0.0000000  0.6508444  3
   9547   9543   9549   9550     1  0.0000000  0.6973333  3
   9547   9543   9529   9551     1  0.0000000  1.0460000  1
   9547   9543   9529   9551     1  0.0000000  0.0000000  3
   9548   9543   9549   9550     1  0.0000000  0.6973333  3
   9548   9543   9529   9551     1  0.0000000  1.0460000  1
   9548   9543   9529   9551     1  0.0000000  0.0000000  3
   9552   9553   9556   9560     1  0.0000000  0.6508444  3
   9552   9553   9565   9568     1  0.0000000  1.0460000  1
   9552   9553   9565   9568     1  0.0000000  0.6694400  3
   9552   9566   9572   9573     1  0.0000000  1.0460000  1
   9552   9566   9572   9573     1  0.0000000  0.6694400  3
   9552   9574   9558   9561     1  0.0000000  1.6038667  3
   9553   9552   9566   9570     1  0.0000000  0.6508444  3
   9553   9552   9566   9571     1  0.0000000  0.6508444  3
   9553   9556   9557   9559     1  0.0000000  0.6508444  3
   9553   9556   9564   9567     1  0.0000000  1.0460000  1
   9553   9556   9564   9567     1  0.0000000  0.6694400  3
   9554   9552   9553   9556     1  0.0000000  0.6508444  3
   9554   9552   9553   9565     1  0.0000000  1.0460000  1
   9554   9552   9553   9565     1  0.0000000  0.0000000  3
   9554   9552   9553   9555     1  0.0000000  0.6508444  3
   9554   9552   9566   9572     1  0.0000000  1.0460000  1
   9554   9552   9566   9572     1  0.0000000  0.0000000  3
   9554   9552   9566   9570     1  0.0000000  0.6508444  3
   9554   9552   9566   9571     1  0.0000000  0.6508444  3
   9554   9552   9574   9558     1  0.0000000  1.6038667  3
   9555   9553   9552   9566     1  0.0000000  0.6508444  3
   9555   9553   9552   9574     1  0.0000000  1.0460000  1
   9555   9553   9552   9574     1  0.0000000  0.0000000  3
   9555   9553   9556   9557     1  0.0000000  0.6508444  3
   9555   9553   9556   9564     1  0.0000000  1.0460000  1
   9555   9553   9556   9564     1  0.0000000  0.0000000  3
   9555   9553   9556   9560     1  0.0000000  0.6508444  3
   9555   9553   9565   9568     1  0.0000000  0.6973333  3
   9556   9553   9565   9568     1  0.0000000  1.0460000  1
   9556   9553   9565   9568     1  0.0000000  0.6694400  3
   9556   9557   9558   9561     1  0.0000000  0.6508444  3
   9556   9557   9563   9569     1  0.0000000  1.0460000  1
   9556   9557   9563   9569     1  0.0000000  0.6694400  3
   9557   9556   9564   9567     1  0.0000000  1.0460000  1
   9557   9556   9564   9567     1  0.0000000  0.6694400  3
   9558   9557   9556   9560     1  0.0000000  0.6508444  3
   9558   9557   9563   9569     1  0.0000000  1.0460000  1
   9558   9557   9563   9569     1  0.0000000  0.6694400  3
   9559   9557   9556   9564     1  0.0000000  1.0460000  1
   9559   9557   9556   9564     1  0.0000000  0.0000000  3
   9559   9557   9556   9560     1  0.0000000  0.6508444  3
   9559   9557   9558   9562     1  0.0000000  1.0460000  1
   9559   9557   9558   9562     1  0.0000000  0.0000000  3
   9559   9557   9558   9574     1  0.0000000  1.0460000  1
   9559   9557   9558   9574     1  0.0000000  0.0000000  3
   9559   9557   9558   9561     1  0.0000000  0.6508444  3
   9559   9557   9563   9569     1  0.0000000  0.6973333  3
   9560   9556   9553   9565     1  0.0000000  1.0460000  1
   9560   9556   9553   9565     1  0.0000000  0.0000000  3
   9560   9556   9557   9563     1  0.0000000  1.0460000  1
   9560   9556   9557   9563     1  0.0000000  0.0000000  3
   9560   9556   9564   9567     1  0.0000000  0.6973333  3
   9561   9558   9557   9563     1  0.0000000  0.6508444  3
   9570   9566   9552   9574     1  0.0000000  1.0460000  1
   9570   9566   9552   9574     1  0.0000000  0.0000000  3
   9570   9566   9572   9573     1  0.0000000  0.6973333  3
   9571   9566   9552   9574     1  0.0000000  1.0460000  1
   9571   9566   9552   9574     1  0.0000000  0.0000000  3
   9571   9566   9572   9573     1  0.0000000  0.6973333  3
   9575   9576   9579   9583     1  0.0000000  0.6508444  3
   9575   9576   9588   9591     1  0.0000000  1.0460000  1
   9575   9576   9588   9591     1  0.0000000  0.6694400  3
   9575   9589   9595   9596     1  0.0000000  1.0460000  1
   9575   9589   9595   9596     1  0.0000000  0.6694400  3
   9575   9597   9581   9584     1  0.0000000  1.6038667  3
   9576   9579   9580   9582     1  0.0000000  0.6508444  3
   9576   9579   9587   9590     1  0.0000000  1.0460000  1
   9576   9579   9587   9590     1  0.0000000  0.6694400  3
   9576   9575   9589   9593     1  0.0000000  0.6508444  3
   9576   9575   9589   9594     1  0.0000000  0.6508444  3
   9577   9575   9576   9579     1  0.0000000  0.6508444  3
   9577   9575   9576   9588     1  0.0000000  1.0460000  1
   9577   9575   9576   9588     1  0.0000000  0.0000000  3
   9577   9575   9576   9578     1  0.0000000  0.6508444  3
   9577   9575   9589   9595     1  0.0000000  1.0460000  1
   9577   9575   9589   9595     1  0.0000000  0.0000000  3
   9577   9575   9589   9593     1  0.0000000  0.6508444  3
   9577   9575   9589   9594     1  0.0000000  0.6508444  3
   9577   9575   9597   9581     1  0.0000000  1.6038667  3
   9578   9576   9579   9580     1  0.0000000  0.6508444  3
   9578   9576   9579   9587     1  0.0000000  1.0460000  1
   9578   9576   9579   9587     1  0.0000000  0.0000000  3
   9578   9576   9579   9583     1  0.0000000  0.6508444  3
   9578   9576   9588   9591     1  0.0000000  0.6973333  3
   9578   9576   9575   9589     1  0.0000000  0.6508444  3
   9578   9576   9575   9597     1  0.0000000  1.0460000  1
   9578   9576   9575   9597     1  0.0000000  0.0000000  3
   9579   9580   9581   9584     1  0.0000000  0.6508444  3
   9579   9580   9586   9592     1  0.0000000  1.0460000  1
   9579   9580   9586   9592     1  0.0000000  0.6694400  3
   9579   9576   9588   9591     1  0.0000000  1.0460000  1
   9579   9576   9588   9591     1  0.0000000  0.6694400  3
   9580   9579   9587   9590     1  0.0000000  1.0460000  1
   9580   9579   9587   9590     1  0.0000000  0.6694400  3
   9581   9580   9586   9592     1  0.0000000  1.0460000  1
   9581   9580   9586   9592     1  0.0000000  0.6694400  3
   9581   9580   9579   9583     1  0.0000000  0.6508444  3
   9582   9580   9581   9585     1  0.0000000  1.0460000  1
   9582   9580   9581   9585     1  0.0000000  0.0000000  3
   9582   9580   9581   9597     1  0.0000000  1.0460000  1
   9582   9580   9581   9597     1  0.0000000  0.0000000  3
   9582   9580   9581   9584     1  0.0000000  0.6508444  3
   9582   9580   9586   9592     1  0.0000000  0.6973333  3
   9582   9580   9579   9587     1  0.0000000  1.0460000  1
   9582   9580   9579   9587     1  0.0000000  0.0000000  3
   9582   9580   9579   9583     1  0.0000000  0.6508444  3
   9583   9579   9580   9586     1  0.0000000  1.0460000  1
   9583   9579   9580   9586     1  0.0000000  0.0000000  3
   9583   9579   9587   9590     1  0.0000000  0.6973333  3
   9583   9579   9576   9588     1  0.0000000  1.0460000  1
   9583   9579   9576   9588     1  0.0000000  0.0000000  3
   9584   9581   9580   9586     1  0.0000000  0.6508444  3
   9593   9589   9595   9596     1  0.0000000  0.6973333  3
   9593   9589   9575   9597     1  0.0000000  1.0460000  1
   9593   9589   9575   9597     1  0.0000000  0.0000000  3
   9594   9589   9595   9596     1  0.0000000  0.6973333  3
   9594   9589   9575   9597     1  0.0000000  1.0460000  1
   9594   9589   9575   9597     1  0.0000000  0.0000000  3
   9598   9599   9602   9606     1  0.0000000  0.6508444  3
   9598   9599   9611   9614     1  0.0000000  1.0460000  1
   9598   9599   9611   9614     1  0.0000000  0.6694400  3
   9598   9612   9618   9619     1  0.0000000  1.0460000  1
   9598   9612   9618   9619     1  0.0000000  0.6694400  3
   9598   9620   9604   9607     1  0.0000000  1.6038667  3
   9599   9598   9612   9616     1  0.0000000  0.6508444  3
   9599   9598   9612   9617     1  0.0000000  0.6508444  3
   9599   9602   9603   9605     1  0.0000000  0.6508444  3
   9599   9602   9610   9613     1  0.0000000  1.0460000  1
   9599   9602   9610   9613     1  0.0000000  0.6694400  3
   9600   9598   9599   9602     1  0.0000000  0.6508444  3
   9600   9598   9599   9611     1  0.0000000  1.0460000  1
   9600   9598   9599   9611     1  0.0000000  0.0000000  3
   9600   9598   9599   9601     1  0.0000000  0.6508444  3
   9600   9598   9612   9618     1  0.0000000  1.0460000  1
   9600   9598   9612   9618     1  0.0000000  0.0000000  3
   9600   9598   9612   9616     1  0.0000000  0.6508444  3
   9600   9598   9612   9617     1  0.0000000  0.6508444  3
   9600   9598   9620   9604     1  0.0000000  1.6038667  3
   9601   9599   9598   9612     1  0.0000000  0.6508444  3
   9601   9599   9598   9620     1  0.0000000  1.0460000  1
   9601   9599   9598   9620     1  0.0000000  0.0000000  3
   9601   9599   9602   9603     1  0.0000000  0.6508444  3
   9601   9599   9602   9610     1  0.0000000  1.0460000  1
   9601   9599   9602   9610     1  0.0000000  0.0000000  3
   9601   9599   9602   9606     1  0.0000000  0.6508444  3
   9601   9599   9611   9614     1  0.0000000  0.6973333  3
   9602   9599   9611   9614     1  0.0000000  1.0460000  1
   9602   9599   9611   9614     1  0.0000000  0.6694400  3
   9602   9603   9604   9607     1  0.0000000  0.6508444  3
   9602   9603   9609   9615     1  0.0000000  1.0460000  1
   9602   9603   9609   9615     1  0.0000000  0.6694400  3
   9603   9602   9610   9613     1  0.0000000  1.0460000  1
   9603   9602   9610   9613     1  0.0000000  0.6694400  3
   9604   9603   9602   9606     1  0.0000000  0.6508444  3
   9604   9603   9609   9615     1  0.0000000  1.0460000  1
   9604   9603   9609   9615     1  0.0000000  0.6694400  3
   9605   9603   9602   9610     1  0.0000000  1.0460000  1
   9605   9603   9602   9610     1  0.0000000  0.0000000  3
   9605   9603   9602   9606     1  0.0000000  0.6508444  3
   9605   9603   9604   9608     1  0.0000000  1.0460000  1
   9605   9603   9604   9608     1  0.0000000  0.0000000  3
   9605   9603   9604   9620     1  0.0000000  1.0460000  1
   9605   9603   9604   9620     1  0.0000000  0.0000000  3
   9605   9603   9604   9607     1  0.0000000  0.6508444  3
   9605   9603   9609   9615     1  0.0000000  0.6973333  3
   9606   9602   9599   9611     1  0.0000000  1.0460000  1
   9606   9602   9599   9611     1  0.0000000  0.0000000  3
   9606   9602   9603   9609     1  0.0000000  1.0460000  1
   9606   9602   9603   9609     1  0.0000000  0.0000000  3
   9606   9602   9610   9613     1  0.0000000  0.6973333  3
   9607   9604   9603   9609     1  0.0000000  0.6508444  3
   9616   9612   9598   9620     1  0.0000000  1.0460000  1
   9616   9612   9598   9620     1  0.0000000  0.0000000  3
   9616   9612   9618   9619     1  0.0000000  0.6973333  3
   9617   9612   9598   9620     1  0.0000000  1.0460000  1
   9617   9612   9598   9620     1  0.0000000  0.0000000  3
   9617   9612   9618   9619     1  0.0000000  0.6973333  3
   9621   9622   9625   9629     1  0.0000000  0.6508444  3
   9621   9622   9634   9637     1  0.0000000  1.0460000  1
   9621   9622   9634   9637     1  0.0000000  0.6694400  3
   9621   9635   9641   9642     1  0.0000000  1.0460000  1
   9621   9635   9641   9642     1  0.0000000  0.6694400  3
   9621   9643   9627   9630     1  0.0000000  1.6038667  3
   9622   9625   9626   9628     1  0.0000000  0.6508444  3
   9622   9625   9633   9636     1  0.0000000  1.0460000  1
   9622   9625   9633   9636     1  0.0000000  0.6694400  3
   9622   9621   9635   9639     1  0.0000000  0.6508444  3
   9622   9621   9635   9640     1  0.0000000  0.6508444  3
   9623   9621   9622   9625     1  0.0000000  0.6508444  3
   9623   9621   9622   9634     1  0.0000000  1.0460000  1
   9623   9621   9622   9634     1  0.0000000  0.0000000  3
   9623   9621   9622   9624     1  0.0000000  0.6508444  3
   9623   9621   9635   9641     1  0.0000000  1.0460000  1
   9623   9621   9635   9641     1  0.0000000  0.0000000  3
   9623   9621   9635   9639     1  0.0000000  0.6508444  3
   9623   9621   9635   9640     1  0.0000000  0.6508444  3
   9623   9621   9643   9627     1  0.0000000  1.6038667  3
   9624   9622   9625   9626     1  0.0000000  0.6508444  3
   9624   9622   9625   9633     1  0.0000000  1.0460000  1
   9624   9622   9625   9633     1  0.0000000  0.0000000  3
   9624   9622   9625   9629     1  0.0000000  0.6508444  3
   9624   9622   9634   9637     1  0.0000000  0.6973333  3
   9624   9622   9621   9635     1  0.0000000  0.6508444  3
   9624   9622   9621   9643     1  0.0000000  1.0460000  1
   9624   9622   9621   9643     1  0.0000000  0.0000000  3
   9625   9626   9627   9630     1  0.0000000  0.6508444  3
   9625   9626   9632   9638     1  0.0000000  1.0460000  1
   9625   9626   9632   9638     1  0.0000000  0.6694400  3
   9625   9622   9634   9637     1  0.0000000  1.0460000  1
   9625   9622   9634   9637     1  0.0000000  0.6694400  3
   9626   9625   9633   9636     1  0.0000000  1.0460000  1
   9626   9625   9633   9636     1  0.0000000  0.6694400  3
   9627   9626   9632   9638     1  0.0000000  1.0460000  1
   9627   9626   9632   9638     1  0.0000000  0.6694400  3
   9627   9626   9625   9629     1  0.0000000  0.6508444  3
   9628   9626   9627   9631     1  0.0000000  1.0460000  1
   9628   9626   9627   9631     1  0.0000000  0.0000000  3
   9628   9626   9627   9643     1  0.0000000  1.0460000  1
   9628   9626   9627   9643     1  0.0000000  0.0000000  3
   9628   9626   9627   9630     1  0.0000000  0.6508444  3
   9628   9626   9632   9638     1  0.0000000  0.6973333  3
   9628   9626   9625   9633     1  0.0000000  1.0460000  1
   9628   9626   9625   9633     1  0.0000000  0.0000000  3
   9628   9626   9625   9629     1  0.0000000  0.6508444  3
   9629   9625   9626   9632     1  0.0000000  1.0460000  1
   9629   9625   9626   9632     1  0.0000000  0.0000000  3
   9629   9625   9633   9636     1  0.0000000  0.6973333  3
   9629   9625   9622   9634     1  0.0000000  1.0460000  1
   9629   9625   9622   9634     1  0.0000000  0.0000000  3
   9630   9627   9626   9632     1  0.0000000  0.6508444  3
   9639   9635   9641   9642     1  0.0000000  0.6973333  3
   9639   9635   9621   9643     1  0.0000000  1.0460000  1
   9639   9635   9621   9643     1  0.0000000  0.0000000  3
   9640   9635   9641   9642     1  0.0000000  0.6973333  3
   9640   9635   9621   9643     1  0.0000000  1.0460000  1
   9640   9635   9621   9643     1  0.0000000  0.0000000  3
   9644   9645   9648   9652     1  0.0000000  0.6508444  3
   9644   9645   9657   9660     1  0.0000000  1.0460000  1
   9644   9645   9657   9660     1  0.0000000  0.6694400  3
   9644   9658   9664   9665     1  0.0000000  1.0460000  1
   9644   9658   9664   9665     1  0.0000000  0.6694400  3
   9644   9666   9650   9653     1  0.0000000  1.6038667  3
   9645   9644   9658   9662     1  0.0000000  0.6508444  3
   9645   9644   9658   9663     1  0.0000000  0.6508444  3
   9645   9648   9649   9651     1  0.0000000  0.6508444  3
   9645   9648   9656   9659     1  0.0000000  1.0460000  1
   9645   9648   9656   9659     1  0.0000000  0.6694400  3
   9646   9644   9645   9648     1  0.0000000  0.6508444  3
   9646   9644   9645   9657     1  0.0000000  1.0460000  1
   9646   9644   9645   9657     1  0.0000000  0.0000000  3
   9646   9644   9645   9647     1  0.0000000  0.6508444  3
   9646   9644   9658   9664     1  0.0000000  1.0460000  1
   9646   9644   9658   9664     1  0.0000000  0.0000000  3
   9646   9644   9658   9662     1  0.0000000  0.6508444  3
   9646   9644   9658   9663     1  0.0000000  0.6508444  3
   9646   9644   9666   9650     1  0.0000000  1.6038667  3
   9647   9645   9644   9658     1  0.0000000  0.6508444  3
   9647   9645   9644   9666     1  0.0000000  1.0460000  1
   9647   9645   9644   9666     1  0.0000000  0.0000000  3
   9647   9645   9648   9649     1  0.0000000  0.6508444  3
   9647   9645   9648   9656     1  0.0000000  1.0460000  1
   9647   9645   9648   9656     1  0.0000000  0.0000000  3
   9647   9645   9648   9652     1  0.0000000  0.6508444  3
   9647   9645   9657   9660     1  0.0000000  0.6973333  3
   9648   9645   9657   9660     1  0.0000000  1.0460000  1
   9648   9645   9657   9660     1  0.0000000  0.6694400  3
   9648   9649   9650   9653     1  0.0000000  0.6508444  3
   9648   9649   9655   9661     1  0.0000000  1.0460000  1
   9648   9649   9655   9661     1  0.0000000  0.6694400  3
   9649   9648   9656   9659     1  0.0000000  1.0460000  1
   9649   9648   9656   9659     1  0.0000000  0.6694400  3
   9650   9649   9648   9652     1  0.0000000  0.6508444  3
   9650   9649   9655   9661     1  0.0000000  1.0460000  1
   9650   9649   9655   9661     1  0.0000000  0.6694400  3
   9651   9649   9648   9656     1  0.0000000  1.0460000  1
   9651   9649   9648   9656     1  0.0000000  0.0000000  3
   9651   9649   9648   9652     1  0.0000000  0.6508444  3
   9651   9649   9650   9654     1  0.0000000  1.0460000  1
   9651   9649   9650   9654     1  0.0000000  0.0000000  3
   9651   9649   9650   9666     1  0.0000000  1.0460000  1
   9651   9649   9650   9666     1  0.0000000  0.0000000  3
   9651   9649   9650   9653     1  0.0000000  0.6508444  3
   9651   9649   9655   9661     1  0.0000000  0.6973333  3
   9652   9648   9645   9657     1  0.0000000  1.0460000  1
   9652   9648   9645   9657     1  0.0000000  0.0000000  3
   9652   9648   9649   9655     1  0.0000000  1.0460000  1
   9652   9648   9649   9655     1  0.0000000  0.0000000  3
   9652   9648   9656   9659     1  0.0000000  0.6973333  3
   9653   9650   9649   9655     1  0.0000000  0.6508444  3
   9662   9658   9644   9666     1  0.0000000  1.0460000  1
   9662   9658   9644   9666     1  0.0000000  0.0000000  3
   9662   9658   9664   9665     1  0.0000000  0.6973333  3
   9663   9658   9644   9666     1  0.0000000  1.0460000  1
   9663   9658   9644   9666     1  0.0000000  0.0000000  3
   9663   9658   9664   9665     1  0.0000000  0.6973333  3
   9667   9668   9671   9675     1  0.0000000  0.6508444  3
   9667   9668   9680   9683     1  0.0000000  1.0460000  1
   9667   9668   9680   9683     1  0.0000000  0.6694400  3
   9667   9681   9687   9688     1  0.0000000  1.0460000  1
   9667   9681   9687   9688     1  0.0000000  0.6694400  3
   9667   9689   9673   9676     1  0.0000000  1.6038667  3
   9668   9671   9672   9674     1  0.0000000  0.6508444  3
   9668   9671   9679   9682     1  0.0000000  1.0460000  1
   9668   9671   9679   9682     1  0.0000000  0.6694400  3
   9668   9667   9681   9685     1  0.0000000  0.6508444  3
   9668   9667   9681   9686     1  0.0000000  0.6508444  3
   9669   9667   9668   9671     1  0.0000000  0.6508444  3
   9669   9667   9668   9680     1  0.0000000  1.0460000  1
   9669   9667   9668   9680     1  0.0000000  0.0000000  3
   9669   9667   9668   9670     1  0.0000000  0.6508444  3
   9669   9667   9681   9687     1  0.0000000  1.0460000  1
   9669   9667   9681   9687     1  0.0000000  0.0000000  3
   9669   9667   9681   9685     1  0.0000000  0.6508444  3
   9669   9667   9681   9686     1  0.0000000  0.6508444  3
   9669   9667   9689   9673     1  0.0000000  1.6038667  3
   9670   9668   9671   9672     1  0.0000000  0.6508444  3
   9670   9668   9671   9679     1  0.0000000  1.0460000  1
   9670   9668   9671   9679     1  0.0000000  0.0000000  3
   9670   9668   9671   9675     1  0.0000000  0.6508444  3
   9670   9668   9680   9683     1  0.0000000  0.6973333  3
   9670   9668   9667   9681     1  0.0000000  0.6508444  3
   9670   9668   9667   9689     1  0.0000000  1.0460000  1
   9670   9668   9667   9689     1  0.0000000  0.0000000  3
   9671   9672   9673   9676     1  0.0000000  0.6508444  3
   9671   9672   9678   9684     1  0.0000000  1.0460000  1
   9671   9672   9678   9684     1  0.0000000  0.6694400  3
   9671   9668   9680   9683     1  0.0000000  1.0460000  1
   9671   9668   9680   9683     1  0.0000000  0.6694400  3
   9672   9671   9679   9682     1  0.0000000  1.0460000  1
   9672   9671   9679   9682     1  0.0000000  0.6694400  3
   9673   9672   9678   9684     1  0.0000000  1.0460000  1
   9673   9672   9678   9684     1  0.0000000  0.6694400  3
   9673   9672   9671   9675     1  0.0000000  0.6508444  3
   9674   9672   9673   9677     1  0.0000000  1.0460000  1
   9674   9672   9673   9677     1  0.0000000  0.0000000  3
   9674   9672   9673   9689     1  0.0000000  1.0460000  1
   9674   9672   9673   9689     1  0.0000000  0.0000000  3
   9674   9672   9673   9676     1  0.0000000  0.6508444  3
   9674   9672   9678   9684     1  0.0000000  0.6973333  3
   9674   9672   9671   9679     1  0.0000000  1.0460000  1
   9674   9672   9671   9679     1  0.0000000  0.0000000  3
   9674   9672   9671   9675     1  0.0000000  0.6508444  3
   9675   9671   9672   9678     1  0.0000000  1.0460000  1
   9675   9671   9672   9678     1  0.0000000  0.0000000  3
   9675   9671   9679   9682     1  0.0000000  0.6973333  3
   9675   9671   9668   9680     1  0.0000000  1.0460000  1
   9675   9671   9668   9680     1  0.0000000  0.0000000  3
   9676   9673   9672   9678     1  0.0000000  0.6508444  3
   9685   9681   9687   9688     1  0.0000000  0.6973333  3
   9685   9681   9667   9689     1  0.0000000  1.0460000  1
   9685   9681   9667   9689     1  0.0000000  0.0000000  3
   9686   9681   9687   9688     1  0.0000000  0.6973333  3
   9686   9681   9667   9689     1  0.0000000  1.0460000  1
   9686   9681   9667   9689     1  0.0000000  0.0000000  3
   9690   9691   9694   9698     1  0.0000000  0.6508444  3
   9690   9691   9703   9706     1  0.0000000  1.0460000  1
   9690   9691   9703   9706     1  0.0000000  0.6694400  3
   9690   9704   9710   9711     1  0.0000000  1.0460000  1
   9690   9704   9710   9711     1  0.0000000  0.6694400  3
   9690   9712   9696   9699     1  0.0000000  1.6038667  3
   9691   9690   9704   9708     1  0.0000000  0.6508444  3
   9691   9690   9704   9709     1  0.0000000  0.6508444  3
   9691   9694   9695   9697     1  0.0000000  0.6508444  3
   9691   9694   9702   9705     1  0.0000000  1.0460000  1
   9691   9694   9702   9705     1  0.0000000  0.6694400  3
   9692   9690   9691   9694     1  0.0000000  0.6508444  3
   9692   9690   9691   9703     1  0.0000000  1.0460000  1
   9692   9690   9691   9703     1  0.0000000  0.0000000  3
   9692   9690   9691   9693     1  0.0000000  0.6508444  3
   9692   9690   9704   9710     1  0.0000000  1.0460000  1
   9692   9690   9704   9710     1  0.0000000  0.0000000  3
   9692   9690   9704   9708     1  0.0000000  0.6508444  3
   9692   9690   9704   9709     1  0.0000000  0.6508444  3
   9692   9690   9712   9696     1  0.0000000  1.6038667  3
   9693   9691   9690   9704     1  0.0000000  0.6508444  3
   9693   9691   9690   9712     1  0.0000000  1.0460000  1
   9693   9691   9690   9712     1  0.0000000  0.0000000  3
   9693   9691   9694   9695     1  0.0000000  0.6508444  3
   9693   9691   9694   9702     1  0.0000000  1.0460000  1
   9693   9691   9694   9702     1  0.0000000  0.0000000  3
   9693   9691   9694   9698     1  0.0000000  0.6508444  3
   9693   9691   9703   9706     1  0.0000000  0.6973333  3
   9694   9691   9703   9706     1  0.0000000  1.0460000  1
   9694   9691   9703   9706     1  0.0000000  0.6694400  3
   9694   9695   9696   9699     1  0.0000000  0.6508444  3
   9694   9695   9701   9707     1  0.0000000  1.0460000  1
   9694   9695   9701   9707     1  0.0000000  0.6694400  3
   9695   9694   9702   9705     1  0.0000000  1.0460000  1
   9695   9694   9702   9705     1  0.0000000  0.6694400  3
   9696   9695   9694   9698     1  0.0000000  0.6508444  3
   9696   9695   9701   9707     1  0.0000000  1.0460000  1
   9696   9695   9701   9707     1  0.0000000  0.6694400  3
   9697   9695   9694   9702     1  0.0000000  1.0460000  1
   9697   9695   9694   9702     1  0.0000000  0.0000000  3
   9697   9695   9694   9698     1  0.0000000  0.6508444  3
   9697   9695   9696   9700     1  0.0000000  1.0460000  1
   9697   9695   9696   9700     1  0.0000000  0.0000000  3
   9697   9695   9696   9712     1  0.0000000  1.0460000  1
   9697   9695   9696   9712     1  0.0000000  0.0000000  3
   9697   9695   9696   9699     1  0.0000000  0.6508444  3
   9697   9695   9701   9707     1  0.0000000  0.6973333  3
   9698   9694   9691   9703     1  0.0000000  1.0460000  1
   9698   9694   9691   9703     1  0.0000000  0.0000000  3
   9698   9694   9695   9701     1  0.0000000  1.0460000  1
   9698   9694   9695   9701     1  0.0000000  0.0000000  3
   9698   9694   9702   9705     1  0.0000000  0.6973333  3
   9699   9696   9695   9701     1  0.0000000  0.6508444  3
   9708   9704   9690   9712     1  0.0000000  1.0460000  1
   9708   9704   9690   9712     1  0.0000000  0.0000000  3
   9708   9704   9710   9711     1  0.0000000  0.6973333  3
   9709   9704   9690   9712     1  0.0000000  1.0460000  1
   9709   9704   9690   9712     1  0.0000000  0.0000000  3
   9709   9704   9710   9711     1  0.0000000  0.6973333  3
   9713   9714   9717   9721     1  0.0000000  0.6508444  3
   9713   9714   9726   9729     1  0.0000000  1.0460000  1
   9713   9714   9726   9729     1  0.0000000  0.6694400  3
   9713   9727   9733   9734     1  0.0000000  1.0460000  1
   9713   9727   9733   9734     1  0.0000000  0.6694400  3
   9713   9735   9719   9722     1  0.0000000  1.6038667  3
   9714   9717   9718   9720     1  0.0000000  0.6508444  3
   9714   9717   9725   9728     1  0.0000000  1.0460000  1
   9714   9717   9725   9728     1  0.0000000  0.6694400  3
   9714   9713   9727   9731     1  0.0000000  0.6508444  3
   9714   9713   9727   9732     1  0.0000000  0.6508444  3
   9715   9713   9714   9717     1  0.0000000  0.6508444  3
   9715   9713   9714   9726     1  0.0000000  1.0460000  1
   9715   9713   9714   9726     1  0.0000000  0.0000000  3
   9715   9713   9714   9716     1  0.0000000  0.6508444  3
   9715   9713   9727   9733     1  0.0000000  1.0460000  1
   9715   9713   9727   9733     1  0.0000000  0.0000000  3
   9715   9713   9727   9731     1  0.0000000  0.6508444  3
   9715   9713   9727   9732     1  0.0000000  0.6508444  3
   9715   9713   9735   9719     1  0.0000000  1.6038667  3
   9716   9714   9717   9718     1  0.0000000  0.6508444  3
   9716   9714   9717   9725     1  0.0000000  1.0460000  1
   9716   9714   9717   9725     1  0.0000000  0.0000000  3
   9716   9714   9717   9721     1  0.0000000  0.6508444  3
   9716   9714   9726   9729     1  0.0000000  0.6973333  3
   9716   9714   9713   9727     1  0.0000000  0.6508444  3
   9716   9714   9713   9735     1  0.0000000  1.0460000  1
   9716   9714   9713   9735     1  0.0000000  0.0000000  3
   9717   9718   9719   9722     1  0.0000000  0.6508444  3
   9717   9718   9724   9730     1  0.0000000  1.0460000  1
   9717   9718   9724   9730     1  0.0000000  0.6694400  3
   9717   9714   9726   9729     1  0.0000000  1.0460000  1
   9717   9714   9726   9729     1  0.0000000  0.6694400  3
   9718   9717   9725   9728     1  0.0000000  1.0460000  1
   9718   9717   9725   9728     1  0.0000000  0.6694400  3
   9719   9718   9724   9730     1  0.0000000  1.0460000  1
   9719   9718   9724   9730     1  0.0000000  0.6694400  3
   9719   9718   9717   9721     1  0.0000000  0.6508444  3
   9720   9718   9719   9723     1  0.0000000  1.0460000  1
   9720   9718   9719   9723     1  0.0000000  0.0000000  3
   9720   9718   9719   9735     1  0.0000000  1.0460000  1
   9720   9718   9719   9735     1  0.0000000  0.0000000  3
   9720   9718   9719   9722     1  0.0000000  0.6508444  3
   9720   9718   9724   9730     1  0.0000000  0.6973333  3
   9720   9718   9717   9725     1  0.0000000  1.0460000  1
   9720   9718   9717   9725     1  0.0000000  0.0000000  3
   9720   9718   9717   9721     1  0.0000000  0.6508444  3
   9721   9717   9718   9724     1  0.0000000  1.0460000  1
   9721   9717   9718   9724     1  0.0000000  0.0000000  3
   9721   9717   9725   9728     1  0.0000000  0.6973333  3
   9721   9717   9714   9726     1  0.0000000  1.0460000  1
   9721   9717   9714   9726     1  0.0000000  0.0000000  3
   9722   9719   9718   9724     1  0.0000000  0.6508444  3
   9731   9727   9733   9734     1  0.0000000  0.6973333  3
   9731   9727   9713   9735     1  0.0000000  1.0460000  1
   9731   9727   9713   9735     1  0.0000000  0.0000000  3
   9732   9727   9733   9734     1  0.0000000  0.6973333  3
   9732   9727   9713   9735     1  0.0000000  1.0460000  1
   9732   9727   9713   9735     1  0.0000000  0.0000000  3
   9736   9737   9740   9744     1  0.0000000  0.6508444  3
   9736   9737   9749   9752     1  0.0000000  1.0460000  1
   9736   9737   9749   9752     1  0.0000000  0.6694400  3
   9736   9750   9756   9757     1  0.0000000  1.0460000  1
   9736   9750   9756   9757     1  0.0000000  0.6694400  3
   9736   9758   9742   9745     1  0.0000000  1.6038667  3
   9737   9736   9750   9754     1  0.0000000  0.6508444  3
   9737   9736   9750   9755     1  0.0000000  0.6508444  3
   9737   9740   9741   9743     1  0.0000000  0.6508444  3
   9737   9740   9748   9751     1  0.0000000  1.0460000  1
   9737   9740   9748   9751     1  0.0000000  0.6694400  3
   9738   9736   9737   9740     1  0.0000000  0.6508444  3
   9738   9736   9737   9749     1  0.0000000  1.0460000  1
   9738   9736   9737   9749     1  0.0000000  0.0000000  3
   9738   9736   9737   9739     1  0.0000000  0.6508444  3
   9738   9736   9750   9756     1  0.0000000  1.0460000  1
   9738   9736   9750   9756     1  0.0000000  0.0000000  3
   9738   9736   9750   9754     1  0.0000000  0.6508444  3
   9738   9736   9750   9755     1  0.0000000  0.6508444  3
   9738   9736   9758   9742     1  0.0000000  1.6038667  3
   9739   9737   9736   9750     1  0.0000000  0.6508444  3
   9739   9737   9736   9758     1  0.0000000  1.0460000  1
   9739   9737   9736   9758     1  0.0000000  0.0000000  3
   9739   9737   9740   9741     1  0.0000000  0.6508444  3
   9739   9737   9740   9748     1  0.0000000  1.0460000  1
   9739   9737   9740   9748     1  0.0000000  0.0000000  3
   9739   9737   9740   9744     1  0.0000000  0.6508444  3
   9739   9737   9749   9752     1  0.0000000  0.6973333  3
   9740   9737   9749   9752     1  0.0000000  1.0460000  1
   9740   9737   9749   9752     1  0.0000000  0.6694400  3
   9740   9741   9742   9745     1  0.0000000  0.6508444  3
   9740   9741   9747   9753     1  0.0000000  1.0460000  1
   9740   9741   9747   9753     1  0.0000000  0.6694400  3
   9741   9740   9748   9751     1  0.0000000  1.0460000  1
   9741   9740   9748   9751     1  0.0000000  0.6694400  3
   9742   9741   9740   9744     1  0.0000000  0.6508444  3
   9742   9741   9747   9753     1  0.0000000  1.0460000  1
   9742   9741   9747   9753     1  0.0000000  0.6694400  3
   9743   9741   9740   9748     1  0.0000000  1.0460000  1
   9743   9741   9740   9748     1  0.0000000  0.0000000  3
   9743   9741   9740   9744     1  0.0000000  0.6508444  3
   9743   9741   9742   9746     1  0.0000000  1.0460000  1
   9743   9741   9742   9746     1  0.0000000  0.0000000  3
   9743   9741   9742   9758     1  0.0000000  1.0460000  1
   9743   9741   9742   9758     1  0.0000000  0.0000000  3
   9743   9741   9742   9745     1  0.0000000  0.6508444  3
   9743   9741   9747   9753     1  0.0000000  0.6973333  3
   9744   9740   9737   9749     1  0.0000000  1.0460000  1
   9744   9740   9737   9749     1  0.0000000  0.0000000  3
   9744   9740   9741   9747     1  0.0000000  1.0460000  1
   9744   9740   9741   9747     1  0.0000000  0.0000000  3
   9744   9740   9748   9751     1  0.0000000  0.6973333  3
   9745   9742   9741   9747     1  0.0000000  0.6508444  3
   9754   9750   9736   9758     1  0.0000000  1.0460000  1
   9754   9750   9736   9758     1  0.0000000  0.0000000  3
   9754   9750   9756   9757     1  0.0000000  0.6973333  3
   9755   9750   9736   9758     1  0.0000000  1.0460000  1
   9755   9750   9736   9758     1  0.0000000  0.0000000  3
   9755   9750   9756   9757     1  0.0000000  0.6973333  3
   9759   9760   9763   9767     1  0.0000000  0.6508444  3
   9759   9760   9772   9775     1  0.0000000  1.0460000  1
   9759   9760   9772   9775     1  0.0000000  0.6694400  3
   9759   9773   9779   9780     1  0.0000000  1.0460000  1
   9759   9773   9779   9780     1  0.0000000  0.6694400  3
   9759   9781   9765   9768     1  0.0000000  1.6038667  3
   9760   9763   9764   9766     1  0.0000000  0.6508444  3
   9760   9763   9771   9774     1  0.0000000  1.0460000  1
   9760   9763   9771   9774     1  0.0000000  0.6694400  3
   9760   9759   9773   9777     1  0.0000000  0.6508444  3
   9760   9759   9773   9778     1  0.0000000  0.6508444  3
   9761   9759   9760   9763     1  0.0000000  0.6508444  3
   9761   9759   9760   9772     1  0.0000000  1.0460000  1
   9761   9759   9760   9772     1  0.0000000  0.0000000  3
   9761   9759   9760   9762     1  0.0000000  0.6508444  3
   9761   9759   9773   9779     1  0.0000000  1.0460000  1
   9761   9759   9773   9779     1  0.0000000  0.0000000  3
   9761   9759   9773   9777     1  0.0000000  0.6508444  3
   9761   9759   9773   9778     1  0.0000000  0.6508444  3
   9761   9759   9781   9765     1  0.0000000  1.6038667  3
   9762   9760   9763   9764     1  0.0000000  0.6508444  3
   9762   9760   9763   9771     1  0.0000000  1.0460000  1
   9762   9760   9763   9771     1  0.0000000  0.0000000  3
   9762   9760   9763   9767     1  0.0000000  0.6508444  3
   9762   9760   9772   9775     1  0.0000000  0.6973333  3
   9762   9760   9759   9773     1  0.0000000  0.6508444  3
   9762   9760   9759   9781     1  0.0000000  1.0460000  1
   9762   9760   9759   9781     1  0.0000000  0.0000000  3
   9763   9764   9765   9768     1  0.0000000  0.6508444  3
   9763   9764   9770   9776     1  0.0000000  1.0460000  1
   9763   9764   9770   9776     1  0.0000000  0.6694400  3
   9763   9760   9772   9775     1  0.0000000  1.0460000  1
   9763   9760   9772   9775     1  0.0000000  0.6694400  3
   9764   9763   9771   9774     1  0.0000000  1.0460000  1
   9764   9763   9771   9774     1  0.0000000  0.6694400  3
   9765   9764   9770   9776     1  0.0000000  1.0460000  1
   9765   9764   9770   9776     1  0.0000000  0.6694400  3
   9765   9764   9763   9767     1  0.0000000  0.6508444  3
   9766   9764   9765   9769     1  0.0000000  1.0460000  1
   9766   9764   9765   9769     1  0.0000000  0.0000000  3
   9766   9764   9765   9781     1  0.0000000  1.0460000  1
   9766   9764   9765   9781     1  0.0000000  0.0000000  3
   9766   9764   9765   9768     1  0.0000000  0.6508444  3
   9766   9764   9770   9776     1  0.0000000  0.6973333  3
   9766   9764   9763   9771     1  0.0000000  1.0460000  1
   9766   9764   9763   9771     1  0.0000000  0.0000000  3
   9766   9764   9763   9767     1  0.0000000  0.6508444  3
   9767   9763   9764   9770     1  0.0000000  1.0460000  1
   9767   9763   9764   9770     1  0.0000000  0.0000000  3
   9767   9763   9771   9774     1  0.0000000  0.6973333  3
   9767   9763   9760   9772     1  0.0000000  1.0460000  1
   9767   9763   9760   9772     1  0.0000000  0.0000000  3
   9768   9765   9764   9770     1  0.0000000  0.6508444  3
   9777   9773   9779   9780     1  0.0000000  0.6973333  3
   9777   9773   9759   9781     1  0.0000000  1.0460000  1
   9777   9773   9759   9781     1  0.0000000  0.0000000  3
   9778   9773   9779   9780     1  0.0000000  0.6973333  3
   9778   9773   9759   9781     1  0.0000000  1.0460000  1
   9778   9773   9759   9781     1  0.0000000  0.0000000  3
   9782   9783   9786   9790     1  0.0000000  0.6508444  3
   9782   9783   9795   9798     1  0.0000000  1.0460000  1
   9782   9783   9795   9798     1  0.0000000  0.6694400  3
   9782   9796   9802   9803     1  0.0000000  1.0460000  1
   9782   9796   9802   9803     1  0.0000000  0.6694400  3
   9782   9804   9788   9791     1  0.0000000  1.6038667  3
   9783   9782   9796   9800     1  0.0000000  0.6508444  3
   9783   9782   9796   9801     1  0.0000000  0.6508444  3
   9783   9786   9787   9789     1  0.0000000  0.6508444  3
   9783   9786   9794   9797     1  0.0000000  1.0460000  1
   9783   9786   9794   9797     1  0.0000000  0.6694400  3
   9784   9782   9783   9786     1  0.0000000  0.6508444  3
   9784   9782   9783   9795     1  0.0000000  1.0460000  1
   9784   9782   9783   9795     1  0.0000000  0.0000000  3
   9784   9782   9783   9785     1  0.0000000  0.6508444  3
   9784   9782   9796   9802     1  0.0000000  1.0460000  1
   9784   9782   9796   9802     1  0.0000000  0.0000000  3
   9784   9782   9796   9800     1  0.0000000  0.6508444  3
   9784   9782   9796   9801     1  0.0000000  0.6508444  3
   9784   9782   9804   9788     1  0.0000000  1.6038667  3
   9785   9783   9782   9796     1  0.0000000  0.6508444  3
   9785   9783   9782   9804     1  0.0000000  1.0460000  1
   9785   9783   9782   9804     1  0.0000000  0.0000000  3
   9785   9783   9786   9787     1  0.0000000  0.6508444  3
   9785   9783   9786   9794     1  0.0000000  1.0460000  1
   9785   9783   9786   9794     1  0.0000000  0.0000000  3
   9785   9783   9786   9790     1  0.0000000  0.6508444  3
   9785   9783   9795   9798     1  0.0000000  0.6973333  3
   9786   9783   9795   9798     1  0.0000000  1.0460000  1
   9786   9783   9795   9798     1  0.0000000  0.6694400  3
   9786   9787   9788   9791     1  0.0000000  0.6508444  3
   9786   9787   9793   9799     1  0.0000000  1.0460000  1
   9786   9787   9793   9799     1  0.0000000  0.6694400  3
   9787   9786   9794   9797     1  0.0000000  1.0460000  1
   9787   9786   9794   9797     1  0.0000000  0.6694400  3
   9788   9787   9786   9790     1  0.0000000  0.6508444  3
   9788   9787   9793   9799     1  0.0000000  1.0460000  1
   9788   9787   9793   9799     1  0.0000000  0.6694400  3
   9789   9787   9786   9794     1  0.0000000  1.0460000  1
   9789   9787   9786   9794     1  0.0000000  0.0000000  3
   9789   9787   9786   9790     1  0.0000000  0.6508444  3
   9789   9787   9788   9792     1  0.0000000  1.0460000  1
   9789   9787   9788   9792     1  0.0000000  0.0000000  3
   9789   9787   9788   9804     1  0.0000000  1.0460000  1
   9789   9787   9788   9804     1  0.0000000  0.0000000  3
   9789   9787   9788   9791     1  0.0000000  0.6508444  3
   9789   9787   9793   9799     1  0.0000000  0.6973333  3
   9790   9786   9783   9795     1  0.0000000  1.0460000  1
   9790   9786   9783   9795     1  0.0000000  0.0000000  3
   9790   9786   9787   9793     1  0.0000000  1.0460000  1
   9790   9786   9787   9793     1  0.0000000  0.0000000  3
   9790   9786   9794   9797     1  0.0000000  0.6973333  3
   9791   9788   9787   9793     1  0.0000000  0.6508444  3
   9800   9796   9782   9804     1  0.0000000  1.0460000  1
   9800   9796   9782   9804     1  0.0000000  0.0000000  3
   9800   9796   9802   9803     1  0.0000000  0.6973333  3
   9801   9796   9782   9804     1  0.0000000  1.0460000  1
   9801   9796   9782   9804     1  0.0000000  0.0000000  3
   9801   9796   9802   9803     1  0.0000000  0.6973333  3
   9805   9806   9809   9813     1  0.0000000  0.6508444  3
   9805   9806   9818   9821     1  0.0000000  1.0460000  1
   9805   9806   9818   9821     1  0.0000000  0.6694400  3
   9805   9819   9825   9826     1  0.0000000  1.0460000  1
   9805   9819   9825   9826     1  0.0000000  0.6694400  3
   9805   9827   9811   9814     1  0.0000000  1.6038667  3
   9806   9809   9810   9812     1  0.0000000  0.6508444  3
   9806   9809   9817   9820     1  0.0000000  1.0460000  1
   9806   9809   9817   9820     1  0.0000000  0.6694400  3
   9806   9805   9819   9823     1  0.0000000  0.6508444  3
   9806   9805   9819   9824     1  0.0000000  0.6508444  3
   9807   9805   9806   9809     1  0.0000000  0.6508444  3
   9807   9805   9806   9818     1  0.0000000  1.0460000  1
   9807   9805   9806   9818     1  0.0000000  0.0000000  3
   9807   9805   9806   9808     1  0.0000000  0.6508444  3
   9807   9805   9819   9825     1  0.0000000  1.0460000  1
   9807   9805   9819   9825     1  0.0000000  0.0000000  3
   9807   9805   9819   9823     1  0.0000000  0.6508444  3
   9807   9805   9819   9824     1  0.0000000  0.6508444  3
   9807   9805   9827   9811     1  0.0000000  1.6038667  3
   9808   9806   9809   9810     1  0.0000000  0.6508444  3
   9808   9806   9809   9817     1  0.0000000  1.0460000  1
   9808   9806   9809   9817     1  0.0000000  0.0000000  3
   9808   9806   9809   9813     1  0.0000000  0.6508444  3
   9808   9806   9818   9821     1  0.0000000  0.6973333  3
   9808   9806   9805   9819     1  0.0000000  0.6508444  3
   9808   9806   9805   9827     1  0.0000000  1.0460000  1
   9808   9806   9805   9827     1  0.0000000  0.0000000  3
   9809   9810   9811   9814     1  0.0000000  0.6508444  3
   9809   9810   9816   9822     1  0.0000000  1.0460000  1
   9809   9810   9816   9822     1  0.0000000  0.6694400  3
   9809   9806   9818   9821     1  0.0000000  1.0460000  1
   9809   9806   9818   9821     1  0.0000000  0.6694400  3
   9810   9809   9817   9820     1  0.0000000  1.0460000  1
   9810   9809   9817   9820     1  0.0000000  0.6694400  3
   9811   9810   9816   9822     1  0.0000000  1.0460000  1
   9811   9810   9816   9822     1  0.0000000  0.6694400  3
   9811   9810   9809   9813     1  0.0000000  0.6508444  3
   9812   9810   9811   9815     1  0.0000000  1.0460000  1
   9812   9810   9811   9815     1  0.0000000  0.0000000  3
   9812   9810   9811   9827     1  0.0000000  1.0460000  1
   9812   9810   9811   9827     1  0.0000000  0.0000000  3
   9812   9810   9811   9814     1  0.0000000  0.6508444  3
   9812   9810   9816   9822     1  0.0000000  0.6973333  3
   9812   9810   9809   9817     1  0.0000000  1.0460000  1
   9812   9810   9809   9817     1  0.0000000  0.0000000  3
   9812   9810   9809   9813     1  0.0000000  0.6508444  3
   9813   9809   9810   9816     1  0.0000000  1.0460000  1
   9813   9809   9810   9816     1  0.0000000  0.0000000  3
   9813   9809   9817   9820     1  0.0000000  0.6973333  3
   9813   9809   9806   9818     1  0.0000000  1.0460000  1
   9813   9809   9806   9818     1  0.0000000  0.0000000  3
   9814   9811   9810   9816     1  0.0000000  0.6508444  3
   9823   9819   9825   9826     1  0.0000000  0.6973333  3
   9823   9819   9805   9827     1  0.0000000  1.0460000  1
   9823   9819   9805   9827     1  0.0000000  0.0000000  3
   9824   9819   9825   9826     1  0.0000000  0.6973333  3
   9824   9819   9805   9827     1  0.0000000  1.0460000  1
   9824   9819   9805   9827     1  0.0000000  0.0000000  3
   9828   9829   9832   9836     1  0.0000000  0.6508444  3
   9828   9829   9841   9844     1  0.0000000  1.0460000  1
   9828   9829   9841   9844     1  0.0000000  0.6694400  3
   9828   9842   9848   9849     1  0.0000000  1.0460000  1
   9828   9842   9848   9849     1  0.0000000  0.6694400  3
   9828   9850   9834   9837     1  0.0000000  1.6038667  3
   9829   9828   9842   9846     1  0.0000000  0.6508444  3
   9829   9828   9842   9847     1  0.0000000  0.6508444  3
   9829   9832   9833   9835     1  0.0000000  0.6508444  3
   9829   9832   9840   9843     1  0.0000000  1.0460000  1
   9829   9832   9840   9843     1  0.0000000  0.6694400  3
   9830   9828   9829   9832     1  0.0000000  0.6508444  3
   9830   9828   9829   9841     1  0.0000000  1.0460000  1
   9830   9828   9829   9841     1  0.0000000  0.0000000  3
   9830   9828   9829   9831     1  0.0000000  0.6508444  3
   9830   9828   9842   9848     1  0.0000000  1.0460000  1
   9830   9828   9842   9848     1  0.0000000  0.0000000  3
   9830   9828   9842   9846     1  0.0000000  0.6508444  3
   9830   9828   9842   9847     1  0.0000000  0.6508444  3
   9830   9828   9850   9834     1  0.0000000  1.6038667  3
   9831   9829   9828   9842     1  0.0000000  0.6508444  3
   9831   9829   9828   9850     1  0.0000000  1.0460000  1
   9831   9829   9828   9850     1  0.0000000  0.0000000  3
   9831   9829   9832   9833     1  0.0000000  0.6508444  3
   9831   9829   9832   9840     1  0.0000000  1.0460000  1
   9831   9829   9832   9840     1  0.0000000  0.0000000  3
   9831   9829   9832   9836     1  0.0000000  0.6508444  3
   9831   9829   9841   9844     1  0.0000000  0.6973333  3
   9832   9829   9841   9844     1  0.0000000  1.0460000  1
   9832   9829   9841   9844     1  0.0000000  0.6694400  3
   9832   9833   9834   9837     1  0.0000000  0.6508444  3
   9832   9833   9839   9845     1  0.0000000  1.0460000  1
   9832   9833   9839   9845     1  0.0000000  0.6694400  3
   9833   9832   9840   9843     1  0.0000000  1.0460000  1
   9833   9832   9840   9843     1  0.0000000  0.6694400  3
   9834   9833   9832   9836     1  0.0000000  0.6508444  3
   9834   9833   9839   9845     1  0.0000000  1.0460000  1
   9834   9833   9839   9845     1  0.0000000  0.6694400  3
   9835   9833   9832   9840     1  0.0000000  1.0460000  1
   9835   9833   9832   9840     1  0.0000000  0.0000000  3
   9835   9833   9832   9836     1  0.0000000  0.6508444  3
   9835   9833   9834   9838     1  0.0000000  1.0460000  1
   9835   9833   9834   9838     1  0.0000000  0.0000000  3
   9835   9833   9834   9850     1  0.0000000  1.0460000  1
   9835   9833   9834   9850     1  0.0000000  0.0000000  3
   9835   9833   9834   9837     1  0.0000000  0.6508444  3
   9835   9833   9839   9845     1  0.0000000  0.6973333  3
   9836   9832   9829   9841     1  0.0000000  1.0460000  1
   9836   9832   9829   9841     1  0.0000000  0.0000000  3
   9836   9832   9833   9839     1  0.0000000  1.0460000  1
   9836   9832   9833   9839     1  0.0000000  0.0000000  3
   9836   9832   9840   9843     1  0.0000000  0.6973333  3
   9837   9834   9833   9839     1  0.0000000  0.6508444  3
   9846   9842   9828   9850     1  0.0000000  1.0460000  1
   9846   9842   9828   9850     1  0.0000000  0.0000000  3
   9846   9842   9848   9849     1  0.0000000  0.6973333  3
   9847   9842   9828   9850     1  0.0000000  1.0460000  1
   9847   9842   9828   9850     1  0.0000000  0.0000000  3
   9847   9842   9848   9849     1  0.0000000  0.6973333  3
   9851   9852   9855   9859     1  0.0000000  0.6508444  3
   9851   9852   9864   9867     1  0.0000000  1.0460000  1
   9851   9852   9864   9867     1  0.0000000  0.6694400  3
   9851   9865   9871   9872     1  0.0000000  1.0460000  1
   9851   9865   9871   9872     1  0.0000000  0.6694400  3
   9851   9873   9857   9860     1  0.0000000  1.6038667  3
   9852   9855   9856   9858     1  0.0000000  0.6508444  3
   9852   9855   9863   9866     1  0.0000000  1.0460000  1
   9852   9855   9863   9866     1  0.0000000  0.6694400  3
   9852   9851   9865   9869     1  0.0000000  0.6508444  3
   9852   9851   9865   9870     1  0.0000000  0.6508444  3
   9853   9851   9852   9855     1  0.0000000  0.6508444  3
   9853   9851   9852   9864     1  0.0000000  1.0460000  1
   9853   9851   9852   9864     1  0.0000000  0.0000000  3
   9853   9851   9852   9854     1  0.0000000  0.6508444  3
   9853   9851   9865   9871     1  0.0000000  1.0460000  1
   9853   9851   9865   9871     1  0.0000000  0.0000000  3
   9853   9851   9865   9869     1  0.0000000  0.6508444  3
   9853   9851   9865   9870     1  0.0000000  0.6508444  3
   9853   9851   9873   9857     1  0.0000000  1.6038667  3
   9854   9852   9855   9856     1  0.0000000  0.6508444  3
   9854   9852   9855   9863     1  0.0000000  1.0460000  1
   9854   9852   9855   9863     1  0.0000000  0.0000000  3
   9854   9852   9855   9859     1  0.0000000  0.6508444  3
   9854   9852   9864   9867     1  0.0000000  0.6973333  3
   9854   9852   9851   9865     1  0.0000000  0.6508444  3
   9854   9852   9851   9873     1  0.0000000  1.0460000  1
   9854   9852   9851   9873     1  0.0000000  0.0000000  3
   9855   9856   9857   9860     1  0.0000000  0.6508444  3
   9855   9856   9862   9868     1  0.0000000  1.0460000  1
   9855   9856   9862   9868     1  0.0000000  0.6694400  3
   9855   9852   9864   9867     1  0.0000000  1.0460000  1
   9855   9852   9864   9867     1  0.0000000  0.6694400  3
   9856   9855   9863   9866     1  0.0000000  1.0460000  1
   9856   9855   9863   9866     1  0.0000000  0.6694400  3
   9857   9856   9862   9868     1  0.0000000  1.0460000  1
   9857   9856   9862   9868     1  0.0000000  0.6694400  3
   9857   9856   9855   9859     1  0.0000000  0.6508444  3
   9858   9856   9857   9861     1  0.0000000  1.0460000  1
   9858   9856   9857   9861     1  0.0000000  0.0000000  3
   9858   9856   9857   9873     1  0.0000000  1.0460000  1
   9858   9856   9857   9873     1  0.0000000  0.0000000  3
   9858   9856   9857   9860     1  0.0000000  0.6508444  3
   9858   9856   9862   9868     1  0.0000000  0.6973333  3
   9858   9856   9855   9863     1  0.0000000  1.0460000  1
   9858   9856   9855   9863     1  0.0000000  0.0000000  3
   9858   9856   9855   9859     1  0.0000000  0.6508444  3
   9859   9855   9856   9862     1  0.0000000  1.0460000  1
   9859   9855   9856   9862     1  0.0000000  0.0000000  3
   9859   9855   9863   9866     1  0.0000000  0.6973333  3
   9859   9855   9852   9864     1  0.0000000  1.0460000  1
   9859   9855   9852   9864     1  0.0000000  0.0000000  3
   9860   9857   9856   9862     1  0.0000000  0.6508444  3
   9869   9865   9871   9872     1  0.0000000  0.6973333  3
   9869   9865   9851   9873     1  0.0000000  1.0460000  1
   9869   9865   9851   9873     1  0.0000000  0.0000000  3
   9870   9865   9871   9872     1  0.0000000  0.6973333  3
   9870   9865   9851   9873     1  0.0000000  1.0460000  1
   9870   9865   9851   9873     1  0.0000000  0.0000000  3
   9874   9875   9878   9882     1  0.0000000  0.6508444  3
   9874   9875   9887   9890     1  0.0000000  1.0460000  1
   9874   9875   9887   9890     1  0.0000000  0.6694400  3
   9874   9888   9894   9895     1  0.0000000  1.0460000  1
   9874   9888   9894   9895     1  0.0000000  0.6694400  3
   9874   9896   9880   9883     1  0.0000000  1.6038667  3
   9875   9874   9888   9892     1  0.0000000  0.6508444  3
   9875   9874   9888   9893     1  0.0000000  0.6508444  3
   9875   9878   9879   9881     1  0.0000000  0.6508444  3
   9875   9878   9886   9889     1  0.0000000  1.0460000  1
   9875   9878   9886   9889     1  0.0000000  0.6694400  3
   9876   9874   9875   9878     1  0.0000000  0.6508444  3
   9876   9874   9875   9887     1  0.0000000  1.0460000  1
   9876   9874   9875   9887     1  0.0000000  0.0000000  3
   9876   9874   9875   9877     1  0.0000000  0.6508444  3
   9876   9874   9888   9894     1  0.0000000  1.0460000  1
   9876   9874   9888   9894     1  0.0000000  0.0000000  3
   9876   9874   9888   9892     1  0.0000000  0.6508444  3
   9876   9874   9888   9893     1  0.0000000  0.6508444  3
   9876   9874   9896   9880     1  0.0000000  1.6038667  3
   9877   9875   9874   9888     1  0.0000000  0.6508444  3
   9877   9875   9874   9896     1  0.0000000  1.0460000  1
   9877   9875   9874   9896     1  0.0000000  0.0000000  3
   9877   9875   9878   9879     1  0.0000000  0.6508444  3
   9877   9875   9878   9886     1  0.0000000  1.0460000  1
   9877   9875   9878   9886     1  0.0000000  0.0000000  3
   9877   9875   9878   9882     1  0.0000000  0.6508444  3
   9877   9875   9887   9890     1  0.0000000  0.6973333  3
   9878   9875   9887   9890     1  0.0000000  1.0460000  1
   9878   9875   9887   9890     1  0.0000000  0.6694400  3
   9878   9879   9880   9883     1  0.0000000  0.6508444  3
   9878   9879   9885   9891     1  0.0000000  1.0460000  1
   9878   9879   9885   9891     1  0.0000000  0.6694400  3
   9879   9878   9886   9889     1  0.0000000  1.0460000  1
   9879   9878   9886   9889     1  0.0000000  0.6694400  3
   9880   9879   9878   9882     1  0.0000000  0.6508444  3
   9880   9879   9885   9891     1  0.0000000  1.0460000  1
   9880   9879   9885   9891     1  0.0000000  0.6694400  3
   9881   9879   9878   9886     1  0.0000000  1.0460000  1
   9881   9879   9878   9886     1  0.0000000  0.0000000  3
   9881   9879   9878   9882     1  0.0000000  0.6508444  3
   9881   9879   9880   9884     1  0.0000000  1.0460000  1
   9881   9879   9880   9884     1  0.0000000  0.0000000  3
   9881   9879   9880   9896     1  0.0000000  1.0460000  1
   9881   9879   9880   9896     1  0.0000000  0.0000000  3
   9881   9879   9880   9883     1  0.0000000  0.6508444  3
   9881   9879   9885   9891     1  0.0000000  0.6973333  3
   9882   9878   9875   9887     1  0.0000000  1.0460000  1
   9882   9878   9875   9887     1  0.0000000  0.0000000  3
   9882   9878   9879   9885     1  0.0000000  1.0460000  1
   9882   9878   9879   9885     1  0.0000000  0.0000000  3
   9882   9878   9886   9889     1  0.0000000  0.6973333  3
   9883   9880   9879   9885     1  0.0000000  0.6508444  3
   9892   9888   9874   9896     1  0.0000000  1.0460000  1
   9892   9888   9874   9896     1  0.0000000  0.0000000  3
   9892   9888   9894   9895     1  0.0000000  0.6973333  3
   9893   9888   9874   9896     1  0.0000000  1.0460000  1
   9893   9888   9874   9896     1  0.0000000  0.0000000  3
   9893   9888   9894   9895     1  0.0000000  0.6973333  3
   9897   9898   9901   9905     1  0.0000000  0.6508444  3
   9897   9898   9910   9913     1  0.0000000  1.0460000  1
   9897   9898   9910   9913     1  0.0000000  0.6694400  3
   9897   9911   9917   9918     1  0.0000000  1.0460000  1
   9897   9911   9917   9918     1  0.0000000  0.6694400  3
   9897   9919   9903   9906     1  0.0000000  1.6038667  3
   9898   9901   9902   9904     1  0.0000000  0.6508444  3
   9898   9901   9909   9912     1  0.0000000  1.0460000  1
   9898   9901   9909   9912     1  0.0000000  0.6694400  3
   9898   9897   9911   9915     1  0.0000000  0.6508444  3
   9898   9897   9911   9916     1  0.0000000  0.6508444  3
   9899   9897   9898   9901     1  0.0000000  0.6508444  3
   9899   9897   9898   9910     1  0.0000000  1.0460000  1
   9899   9897   9898   9910     1  0.0000000  0.0000000  3
   9899   9897   9898   9900     1  0.0000000  0.6508444  3
   9899   9897   9911   9917     1  0.0000000  1.0460000  1
   9899   9897   9911   9917     1  0.0000000  0.0000000  3
   9899   9897   9911   9915     1  0.0000000  0.6508444  3
   9899   9897   9911   9916     1  0.0000000  0.6508444  3
   9899   9897   9919   9903     1  0.0000000  1.6038667  3
   9900   9898   9901   9902     1  0.0000000  0.6508444  3
   9900   9898   9901   9909     1  0.0000000  1.0460000  1
   9900   9898   9901   9909     1  0.0000000  0.0000000  3
   9900   9898   9901   9905     1  0.0000000  0.6508444  3
   9900   9898   9910   9913     1  0.0000000  0.6973333  3
   9900   9898   9897   9911     1  0.0000000  0.6508444  3
   9900   9898   9897   9919     1  0.0000000  1.0460000  1
   9900   9898   9897   9919     1  0.0000000  0.0000000  3
   9901   9902   9903   9906     1  0.0000000  0.6508444  3
   9901   9902   9908   9914     1  0.0000000  1.0460000  1
   9901   9902   9908   9914     1  0.0000000  0.6694400  3
   9901   9898   9910   9913     1  0.0000000  1.0460000  1
   9901   9898   9910   9913     1  0.0000000  0.6694400  3
   9902   9901   9909   9912     1  0.0000000  1.0460000  1
   9902   9901   9909   9912     1  0.0000000  0.6694400  3
   9903   9902   9908   9914     1  0.0000000  1.0460000  1
   9903   9902   9908   9914     1  0.0000000  0.6694400  3
   9903   9902   9901   9905     1  0.0000000  0.6508444  3
   9904   9902   9903   9907     1  0.0000000  1.0460000  1
   9904   9902   9903   9907     1  0.0000000  0.0000000  3
   9904   9902   9903   9919     1  0.0000000  1.0460000  1
   9904   9902   9903   9919     1  0.0000000  0.0000000  3
   9904   9902   9903   9906     1  0.0000000  0.6508444  3
   9904   9902   9908   9914     1  0.0000000  0.6973333  3
   9904   9902   9901   9909     1  0.0000000  1.0460000  1
   9904   9902   9901   9909     1  0.0000000  0.0000000  3
   9904   9902   9901   9905     1  0.0000000  0.6508444  3
   9905   9901   9902   9908     1  0.0000000  1.0460000  1
   9905   9901   9902   9908     1  0.0000000  0.0000000  3
   9905   9901   9909   9912     1  0.0000000  0.6973333  3
   9905   9901   9898   9910     1  0.0000000  1.0460000  1
   9905   9901   9898   9910     1  0.0000000  0.0000000  3
   9906   9903   9902   9908     1  0.0000000  0.6508444  3
   9915   9911   9917   9918     1  0.0000000  0.6973333  3
   9915   9911   9897   9919     1  0.0000000  1.0460000  1
   9915   9911   9897   9919     1  0.0000000  0.0000000  3
   9916   9911   9917   9918     1  0.0000000  0.6973333  3
   9916   9911   9897   9919     1  0.0000000  1.0460000  1
   9916   9911   9897   9919     1  0.0000000  0.0000000  3
   9920   9921   9924   9928     1  0.0000000  0.6508444  3
   9920   9921   9933   9936     1  0.0000000  1.0460000  1
   9920   9921   9933   9936     1  0.0000000  0.6694400  3
   9920   9934   9940   9941     1  0.0000000  1.0460000  1
   9920   9934   9940   9941     1  0.0000000  0.6694400  3
   9920   9942   9926   9929     1  0.0000000  1.6038667  3
   9921   9920   9934   9938     1  0.0000000  0.6508444  3
   9921   9920   9934   9939     1  0.0000000  0.6508444  3
   9921   9924   9925   9927     1  0.0000000  0.6508444  3
   9921   9924   9932   9935     1  0.0000000  1.0460000  1
   9921   9924   9932   9935     1  0.0000000  0.6694400  3
   9922   9920   9921   9924     1  0.0000000  0.6508444  3
   9922   9920   9921   9933     1  0.0000000  1.0460000  1
   9922   9920   9921   9933     1  0.0000000  0.0000000  3
   9922   9920   9921   9923     1  0.0000000  0.6508444  3
   9922   9920   9934   9940     1  0.0000000  1.0460000  1
   9922   9920   9934   9940     1  0.0000000  0.0000000  3
   9922   9920   9934   9938     1  0.0000000  0.6508444  3
   9922   9920   9934   9939     1  0.0000000  0.6508444  3
   9922   9920   9942   9926     1  0.0000000  1.6038667  3
   9923   9921   9920   9934     1  0.0000000  0.6508444  3
   9923   9921   9920   9942     1  0.0000000  1.0460000  1
   9923   9921   9920   9942     1  0.0000000  0.0000000  3
   9923   9921   9924   9925     1  0.0000000  0.6508444  3
   9923   9921   9924   9932     1  0.0000000  1.0460000  1
   9923   9921   9924   9932     1  0.0000000  0.0000000  3
   9923   9921   9924   9928     1  0.0000000  0.6508444  3
   9923   9921   9933   9936     1  0.0000000  0.6973333  3
   9924   9921   9933   9936     1  0.0000000  1.0460000  1
   9924   9921   9933   9936     1  0.0000000  0.6694400  3
   9924   9925   9926   9929     1  0.0000000  0.6508444  3
   9924   9925   9931   9937     1  0.0000000  1.0460000  1
   9924   9925   9931   9937     1  0.0000000  0.6694400  3
   9925   9924   9932   9935     1  0.0000000  1.0460000  1
   9925   9924   9932   9935     1  0.0000000  0.6694400  3
   9926   9925   9924   9928     1  0.0000000  0.6508444  3
   9926   9925   9931   9937     1  0.0000000  1.0460000  1
   9926   9925   9931   9937     1  0.0000000  0.6694400  3
   9927   9925   9924   9932     1  0.0000000  1.0460000  1
   9927   9925   9924   9932     1  0.0000000  0.0000000  3
   9927   9925   9924   9928     1  0.0000000  0.6508444  3
   9927   9925   9926   9930     1  0.0000000  1.0460000  1
   9927   9925   9926   9930     1  0.0000000  0.0000000  3
   9927   9925   9926   9942     1  0.0000000  1.0460000  1
   9927   9925   9926   9942     1  0.0000000  0.0000000  3
   9927   9925   9926   9929     1  0.0000000  0.6508444  3
   9927   9925   9931   9937     1  0.0000000  0.6973333  3
   9928   9924   9921   9933     1  0.0000000  1.0460000  1
   9928   9924   9921   9933     1  0.0000000  0.0000000  3
   9928   9924   9925   9931     1  0.0000000  1.0460000  1
   9928   9924   9925   9931     1  0.0000000  0.0000000  3
   9928   9924   9932   9935     1  0.0000000  0.6973333  3
   9929   9926   9925   9931     1  0.0000000  0.6508444  3
   9938   9934   9920   9942     1  0.0000000  1.0460000  1
   9938   9934   9920   9942     1  0.0000000  0.0000000  3
   9938   9934   9940   9941     1  0.0000000  0.6973333  3
   9939   9934   9920   9942     1  0.0000000  1.0460000  1
   9939   9934   9920   9942     1  0.0000000  0.0000000  3
   9939   9934   9940   9941     1  0.0000000  0.6973333  3
   9943   9944   9947   9951     1  0.0000000  0.6508444  3
   9943   9944   9956   9959     1  0.0000000  1.0460000  1
   9943   9944   9956   9959     1  0.0000000  0.6694400  3
   9943   9957   9963   9964     1  0.0000000  1.0460000  1
   9943   9957   9963   9964     1  0.0000000  0.6694400  3
   9943   9965   9949   9952     1  0.0000000  1.6038667  3
   9944   9947   9948   9950     1  0.0000000  0.6508444  3
   9944   9947   9955   9958     1  0.0000000  1.0460000  1
   9944   9947   9955   9958     1  0.0000000  0.6694400  3
   9944   9943   9957   9961     1  0.0000000  0.6508444  3
   9944   9943   9957   9962     1  0.0000000  0.6508444  3
   9945   9943   9944   9947     1  0.0000000  0.6508444  3
   9945   9943   9944   9956     1  0.0000000  1.0460000  1
   9945   9943   9944   9956     1  0.0000000  0.0000000  3
   9945   9943   9944   9946     1  0.0000000  0.6508444  3
   9945   9943   9957   9963     1  0.0000000  1.0460000  1
   9945   9943   9957   9963     1  0.0000000  0.0000000  3
   9945   9943   9957   9961     1  0.0000000  0.6508444  3
   9945   9943   9957   9962     1  0.0000000  0.6508444  3
   9945   9943   9965   9949     1  0.0000000  1.6038667  3
   9946   9944   9947   9948     1  0.0000000  0.6508444  3
   9946   9944   9947   9955     1  0.0000000  1.0460000  1
   9946   9944   9947   9955     1  0.0000000  0.0000000  3
   9946   9944   9947   9951     1  0.0000000  0.6508444  3
   9946   9944   9956   9959     1  0.0000000  0.6973333  3
   9946   9944   9943   9957     1  0.0000000  0.6508444  3
   9946   9944   9943   9965     1  0.0000000  1.0460000  1
   9946   9944   9943   9965     1  0.0000000  0.0000000  3
   9947   9948   9949   9952     1  0.0000000  0.6508444  3
   9947   9948   9954   9960     1  0.0000000  1.0460000  1
   9947   9948   9954   9960     1  0.0000000  0.6694400  3
   9947   9944   9956   9959     1  0.0000000  1.0460000  1
   9947   9944   9956   9959     1  0.0000000  0.6694400  3
   9948   9947   9955   9958     1  0.0000000  1.0460000  1
   9948   9947   9955   9958     1  0.0000000  0.6694400  3
   9949   9948   9954   9960     1  0.0000000  1.0460000  1
   9949   9948   9954   9960     1  0.0000000  0.6694400  3
   9949   9948   9947   9951     1  0.0000000  0.6508444  3
   9950   9948   9949   9953     1  0.0000000  1.0460000  1
   9950   9948   9949   9953     1  0.0000000  0.0000000  3
   9950   9948   9949   9965     1  0.0000000  1.0460000  1
   9950   9948   9949   9965     1  0.0000000  0.0000000  3
   9950   9948   9949   9952     1  0.0000000  0.6508444  3
   9950   9948   9954   9960     1  0.0000000  0.6973333  3
   9950   9948   9947   9955     1  0.0000000  1.0460000  1
   9950   9948   9947   9955     1  0.0000000  0.0000000  3
   9950   9948   9947   9951     1  0.0000000  0.6508444  3
   9951   9947   9948   9954     1  0.0000000  1.0460000  1
   9951   9947   9948   9954     1  0.0000000  0.0000000  3
   9951   9947   9955   9958     1  0.0000000  0.6973333  3
   9951   9947   9944   9956     1  0.0000000  1.0460000  1
   9951   9947   9944   9956     1  0.0000000  0.0000000  3
   9952   9949   9948   9954     1  0.0000000  0.6508444  3
   9961   9957   9963   9964     1  0.0000000  0.6973333  3
   9961   9957   9943   9965     1  0.0000000  1.0460000  1
   9961   9957   9943   9965     1  0.0000000  0.0000000  3
   9962   9957   9963   9964     1  0.0000000  0.6973333  3
   9962   9957   9943   9965     1  0.0000000  1.0460000  1
   9962   9957   9943   9965     1  0.0000000  0.0000000  3
   9966   9967   9970   9974     1  0.0000000  0.6508444  3
   9966   9967   9979   9982     1  0.0000000  1.0460000  1
   9966   9967   9979   9982     1  0.0000000  0.6694400  3
   9966   9980   9986   9987     1  0.0000000  1.0460000  1
   9966   9980   9986   9987     1  0.0000000  0.6694400  3
   9966   9988   9972   9975     1  0.0000000  1.6038667  3
   9967   9966   9980   9984     1  0.0000000  0.6508444  3
   9967   9966   9980   9985     1  0.0000000  0.6508444  3
   9967   9970   9971   9973     1  0.0000000  0.6508444  3
   9967   9970   9978   9981     1  0.0000000  1.0460000  1
   9967   9970   9978   9981     1  0.0000000  0.6694400  3
   9968   9966   9967   9970     1  0.0000000  0.6508444  3
   9968   9966   9967   9979     1  0.0000000  1.0460000  1
   9968   9966   9967   9979     1  0.0000000  0.0000000  3
   9968   9966   9967   9969     1  0.0000000  0.6508444  3
   9968   9966   9980   9986     1  0.0000000  1.0460000  1
   9968   9966   9980   9986     1  0.0000000  0.0000000  3
   9968   9966   9980   9984     1  0.0000000  0.6508444  3
   9968   9966   9980   9985     1  0.0000000  0.6508444  3
   9968   9966   9988   9972     1  0.0000000  1.6038667  3
   9969   9967   9966   9980     1  0.0000000  0.6508444  3
   9969   9967   9966   9988     1  0.0000000  1.0460000  1
   9969   9967   9966   9988     1  0.0000000  0.0000000  3
   9969   9967   9970   9971     1  0.0000000  0.6508444  3
   9969   9967   9970   9978     1  0.0000000  1.0460000  1
   9969   9967   9970   9978     1  0.0000000  0.0000000  3
   9969   9967   9970   9974     1  0.0000000  0.6508444  3
   9969   9967   9979   9982     1  0.0000000  0.6973333  3
   9970   9967   9979   9982     1  0.0000000  1.0460000  1
   9970   9967   9979   9982     1  0.0000000  0.6694400  3
   9970   9971   9972   9975     1  0.0000000  0.6508444  3
   9970   9971   9977   9983     1  0.0000000  1.0460000  1
   9970   9971   9977   9983     1  0.0000000  0.6694400  3
   9971   9970   9978   9981     1  0.0000000  1.0460000  1
   9971   9970   9978   9981     1  0.0000000  0.6694400  3
   9972   9971   9970   9974     1  0.0000000  0.6508444  3
   9972   9971   9977   9983     1  0.0000000  1.0460000  1
   9972   9971   9977   9983     1  0.0000000  0.6694400  3
   9973   9971   9970   9978     1  0.0000000  1.0460000  1
   9973   9971   9970   9978     1  0.0000000  0.0000000  3
   9973   9971   9970   9974     1  0.0000000  0.6508444  3
   9973   9971   9972   9976     1  0.0000000  1.0460000  1
   9973   9971   9972   9976     1  0.0000000  0.0000000  3
   9973   9971   9972   9988     1  0.0000000  1.0460000  1
   9973   9971   9972   9988     1  0.0000000  0.0000000  3
   9973   9971   9972   9975     1  0.0000000  0.6508444  3
   9973   9971   9977   9983     1  0.0000000  0.6973333  3
   9974   9970   9967   9979     1  0.0000000  1.0460000  1
   9974   9970   9967   9979     1  0.0000000  0.0000000  3
   9974   9970   9971   9977     1  0.0000000  1.0460000  1
   9974   9970   9971   9977     1  0.0000000  0.0000000  3
   9974   9970   9978   9981     1  0.0000000  0.6973333  3
   9975   9972   9971   9977     1  0.0000000  0.6508444  3
   9984   9980   9966   9988     1  0.0000000  1.0460000  1
   9984   9980   9966   9988     1  0.0000000  0.0000000  3
   9984   9980   9986   9987     1  0.0000000  0.6973333  3
   9985   9980   9966   9988     1  0.0000000  1.0460000  1
   9985   9980   9966   9988     1  0.0000000  0.0000000  3
   9985   9980   9986   9987     1  0.0000000  0.6973333  3
   9989   9990   9993   9997     1  0.0000000  0.6508444  3
   9989   9990  10002  10005     1  0.0000000  1.0460000  1
   9989   9990  10002  10005     1  0.0000000  0.6694400  3
   9989  10003  10009  10010     1  0.0000000  1.0460000  1
   9989  10003  10009  10010     1  0.0000000  0.6694400  3
   9989  10011   9995   9998     1  0.0000000  1.6038667  3
   9990   9993   9994   9996     1  0.0000000  0.6508444  3
   9990   9993  10001  10004     1  0.0000000  1.0460000  1
   9990   9993  10001  10004     1  0.0000000  0.6694400  3
   9990   9989  10003  10007     1  0.0000000  0.6508444  3
   9990   9989  10003  10008     1  0.0000000  0.6508444  3
   9991   9989   9990   9993     1  0.0000000  0.6508444  3
   9991   9989   9990  10002     1  0.0000000  1.0460000  1
   9991   9989   9990  10002     1  0.0000000  0.0000000  3
   9991   9989   9990   9992     1  0.0000000  0.6508444  3
   9991   9989  10003  10009     1  0.0000000  1.0460000  1
   9991   9989  10003  10009     1  0.0000000  0.0000000  3
   9991   9989  10003  10007     1  0.0000000  0.6508444  3
   9991   9989  10003  10008     1  0.0000000  0.6508444  3
   9991   9989  10011   9995     1  0.0000000  1.6038667  3
   9992   9990   9993   9994     1  0.0000000  0.6508444  3
   9992   9990   9993  10001     1  0.0000000  1.0460000  1
   9992   9990   9993  10001     1  0.0000000  0.0000000  3
   9992   9990   9993   9997     1  0.0000000  0.6508444  3
   9992   9990  10002  10005     1  0.0000000  0.6973333  3
   9992   9990   9989  10003     1  0.0000000  0.6508444  3
   9992   9990   9989  10011     1  0.0000000  1.0460000  1
   9992   9990   9989  10011     1  0.0000000  0.0000000  3
   9993   9994   9995   9998     1  0.0000000  0.6508444  3
   9993   9994  10000  10006     1  0.0000000  1.0460000  1
   9993   9994  10000  10006     1  0.0000000  0.6694400  3
   9993   9990  10002  10005     1  0.0000000  1.0460000  1
   9993   9990  10002  10005     1  0.0000000  0.6694400  3
   9994   9993  10001  10004     1  0.0000000  1.0460000  1
   9994   9993  10001  10004     1  0.0000000  0.6694400  3
   9995   9994  10000  10006     1  0.0000000  1.0460000  1
   9995   9994  10000  10006     1  0.0000000  0.6694400  3
   9995   9994   9993   9997     1  0.0000000  0.6508444  3
   9996   9994   9995   9999     1  0.0000000  1.0460000  1
   9996   9994   9995   9999     1  0.0000000  0.0000000  3
   9996   9994   9995  10011     1  0.0000000  1.0460000  1
   9996   9994   9995  10011     1  0.0000000  0.0000000  3
   9996   9994   9995   9998     1  0.0000000  0.6508444  3
   9996   9994  10000  10006     1  0.0000000  0.6973333  3
   9996   9994   9993  10001     1  0.0000000  1.0460000  1
   9996   9994   9993  10001     1  0.0000000  0.0000000  3
   9996   9994   9993   9997     1  0.0000000  0.6508444  3
   9997   9993   9994  10000     1  0.0000000  1.0460000  1
   9997   9993   9994  10000     1  0.0000000  0.0000000  3
   9997   9993  10001  10004     1  0.0000000  0.6973333  3
   9997   9993   9990  10002     1  0.0000000  1.0460000  1
   9997   9993   9990  10002     1  0.0000000  0.0000000  3
   9998   9995   9994  10000     1  0.0000000  0.6508444  3
  10007  10003  10009  10010     1  0.0000000  0.6973333  3
  10007  10003   9989  10011     1  0.0000000  1.0460000  1
  10007  10003   9989  10011     1  0.0000000  0.0000000  3
  10008  10003  10009  10010     1  0.0000000  0.6973333  3
  10008  10003   9989  10011     1  0.0000000  1.0460000  1
  10008  10003   9989  10011     1  0.0000000  0.0000000  3
  10012  10013  10016  10020     1  0.0000000  0.6508444  3
  10012  10013  10025  10028     1  0.0000000  1.0460000  1
  10012  10013  10025  10028     1  0.0000000  0.6694400  3
  10012  10026  10032  10033     1  0.0000000  1.0460000  1
  10012  10026  10032  10033     1  0.0000000  0.6694400  3
  10012  10034  10018  10021     1  0.0000000  1.6038667  3
  10013  10012  10026  10030     1  0.0000000  0.6508444  3
  10013  10012  10026  10031     1  0.0000000  0.6508444  3
  10013  10016  10017  10019     1  0.0000000  0.6508444  3
  10013  10016  10024  10027     1  0.0000000  1.0460000  1
  10013  10016  10024  10027     1  0.0000000  0.6694400  3
  10014  10012  10013  10016     1  0.0000000  0.6508444  3
  10014  10012  10013  10025     1  0.0000000  1.0460000  1
  10014  10012  10013  10025     1  0.0000000  0.0000000  3
  10014  10012  10013  10015     1  0.0000000  0.6508444  3
  10014  10012  10026  10032     1  0.0000000  1.0460000  1
  10014  10012  10026  10032     1  0.0000000  0.0000000  3
  10014  10012  10026  10030     1  0.0000000  0.6508444  3
  10014  10012  10026  10031     1  0.0000000  0.6508444  3
  10014  10012  10034  10018     1  0.0000000  1.6038667  3
  10015  10013  10012  10026     1  0.0000000  0.6508444  3
  10015  10013  10012  10034     1  0.0000000  1.0460000  1
  10015  10013  10012  10034     1  0.0000000  0.0000000  3
  10015  10013  10016  10017     1  0.0000000  0.6508444  3
  10015  10013  10016  10024     1  0.0000000  1.0460000  1
  10015  10013  10016  10024     1  0.0000000  0.0000000  3
  10015  10013  10016  10020     1  0.0000000  0.6508444  3
  10015  10013  10025  10028     1  0.0000000  0.6973333  3
  10016  10013  10025  10028     1  0.0000000  1.0460000  1
  10016  10013  10025  10028     1  0.0000000  0.6694400  3
  10016  10017  10018  10021     1  0.0000000  0.6508444  3
  10016  10017  10023  10029     1  0.0000000  1.0460000  1
  10016  10017  10023  10029     1  0.0000000  0.6694400  3
  10017  10016  10024  10027     1  0.0000000  1.0460000  1
  10017  10016  10024  10027     1  0.0000000  0.6694400  3
  10018  10017  10016  10020     1  0.0000000  0.6508444  3
  10018  10017  10023  10029     1  0.0000000  1.0460000  1
  10018  10017  10023  10029     1  0.0000000  0.6694400  3
  10019  10017  10016  10024     1  0.0000000  1.0460000  1
  10019  10017  10016  10024     1  0.0000000  0.0000000  3
  10019  10017  10016  10020     1  0.0000000  0.6508444  3
  10019  10017  10018  10022     1  0.0000000  1.0460000  1
  10019  10017  10018  10022     1  0.0000000  0.0000000  3
  10019  10017  10018  10034     1  0.0000000  1.0460000  1
  10019  10017  10018  10034     1  0.0000000  0.0000000  3
  10019  10017  10018  10021     1  0.0000000  0.6508444  3
  10019  10017  10023  10029     1  0.0000000  0.6973333  3
  10020  10016  10013  10025     1  0.0000000  1.0460000  1
  10020  10016  10013  10025     1  0.0000000  0.0000000  3
  10020  10016  10017  10023     1  0.0000000  1.0460000  1
  10020  10016  10017  10023     1  0.0000000  0.0000000  3
  10020  10016  10024  10027     1  0.0000000  0.6973333  3
  10021  10018  10017  10023     1  0.0000000  0.6508444  3
  10030  10026  10012  10034     1  0.0000000  1.0460000  1
  10030  10026  10012  10034     1  0.0000000  0.0000000  3
  10030  10026  10032  10033     1  0.0000000  0.6973333  3
  10031  10026  10012  10034     1  0.0000000  1.0460000  1
  10031  10026  10012  10034     1  0.0000000  0.0000000  3
  10031  10026  10032  10033     1  0.0000000  0.6973333  3
  10035  10036  10039  10043     1  0.0000000  0.6508444  3
  10035  10036  10048  10051     1  0.0000000  1.0460000  1
  10035  10036  10048  10051     1  0.0000000  0.6694400  3
  10035  10049  10055  10056     1  0.0000000  1.0460000  1
  10035  10049  10055  10056     1  0.0000000  0.6694400  3
  10035  10057  10041  10044     1  0.0000000  1.6038667  3
  10036  10039  10040  10042     1  0.0000000  0.6508444  3
  10036  10039  10047  10050     1  0.0000000  1.0460000  1
  10036  10039  10047  10050     1  0.0000000  0.6694400  3
  10036  10035  10049  10053     1  0.0000000  0.6508444  3
  10036  10035  10049  10054     1  0.0000000  0.6508444  3
  10037  10035  10036  10039     1  0.0000000  0.6508444  3
  10037  10035  10036  10048     1  0.0000000  1.0460000  1
  10037  10035  10036  10048     1  0.0000000  0.0000000  3
  10037  10035  10036  10038     1  0.0000000  0.6508444  3
  10037  10035  10049  10055     1  0.0000000  1.0460000  1
  10037  10035  10049  10055     1  0.0000000  0.0000000  3
  10037  10035  10049  10053     1  0.0000000  0.6508444  3
  10037  10035  10049  10054     1  0.0000000  0.6508444  3
  10037  10035  10057  10041     1  0.0000000  1.6038667  3
  10038  10036  10039  10040     1  0.0000000  0.6508444  3
  10038  10036  10039  10047     1  0.0000000  1.0460000  1
  10038  10036  10039  10047     1  0.0000000  0.0000000  3
  10038  10036  10039  10043     1  0.0000000  0.6508444  3
  10038  10036  10048  10051     1  0.0000000  0.6973333  3
  10038  10036  10035  10049     1  0.0000000  0.6508444  3
  10038  10036  10035  10057     1  0.0000000  1.0460000  1
  10038  10036  10035  10057     1  0.0000000  0.0000000  3
  10039  10040  10041  10044     1  0.0000000  0.6508444  3
  10039  10040  10046  10052     1  0.0000000  1.0460000  1
  10039  10040  10046  10052     1  0.0000000  0.6694400  3
  10039  10036  10048  10051     1  0.0000000  1.0460000  1
  10039  10036  10048  10051     1  0.0000000  0.6694400  3
  10040  10039  10047  10050     1  0.0000000  1.0460000  1
  10040  10039  10047  10050     1  0.0000000  0.6694400  3
  10041  10040  10046  10052     1  0.0000000  1.0460000  1
  10041  10040  10046  10052     1  0.0000000  0.6694400  3
  10041  10040  10039  10043     1  0.0000000  0.6508444  3
  10042  10040  10041  10045     1  0.0000000  1.0460000  1
  10042  10040  10041  10045     1  0.0000000  0.0000000  3
  10042  10040  10041  10057     1  0.0000000  1.0460000  1
  10042  10040  10041  10057     1  0.0000000  0.0000000  3
  10042  10040  10041  10044     1  0.0000000  0.6508444  3
  10042  10040  10046  10052     1  0.0000000  0.6973333  3
  10042  10040  10039  10047     1  0.0000000  1.0460000  1
  10042  10040  10039  10047     1  0.0000000  0.0000000  3
  10042  10040  10039  10043     1  0.0000000  0.6508444  3
  10043  10039  10040  10046     1  0.0000000  1.0460000  1
  10043  10039  10040  10046     1  0.0000000  0.0000000  3
  10043  10039  10047  10050     1  0.0000000  0.6973333  3
  10043  10039  10036  10048     1  0.0000000  1.0460000  1
  10043  10039  10036  10048     1  0.0000000  0.0000000  3
  10044  10041  10040  10046     1  0.0000000  0.6508444  3
  10053  10049  10055  10056     1  0.0000000  0.6973333  3
  10053  10049  10035  10057     1  0.0000000  1.0460000  1
  10053  10049  10035  10057     1  0.0000000  0.0000000  3
  10054  10049  10055  10056     1  0.0000000  0.6973333  3
  10054  10049  10035  10057     1  0.0000000  1.0460000  1
  10054  10049  10035  10057     1  0.0000000  0.0000000  3
  10058  10059  10062  10066     1  0.0000000  0.6508444  3
  10058  10059  10071  10074     1  0.0000000  1.0460000  1
  10058  10059  10071  10074     1  0.0000000  0.6694400  3
  10058  10072  10078  10079     1  0.0000000  1.0460000  1
  10058  10072  10078  10079     1  0.0000000  0.6694400  3
  10058  10080  10064  10067     1  0.0000000  1.6038667  3
  10059  10058  10072  10076     1  0.0000000  0.6508444  3
  10059  10058  10072  10077     1  0.0000000  0.6508444  3
  10059  10062  10063  10065     1  0.0000000  0.6508444  3
  10059  10062  10070  10073     1  0.0000000  1.0460000  1
  10059  10062  10070  10073     1  0.0000000  0.6694400  3
  10060  10058  10059  10062     1  0.0000000  0.6508444  3
  10060  10058  10059  10071     1  0.0000000  1.0460000  1
  10060  10058  10059  10071     1  0.0000000  0.0000000  3
  10060  10058  10059  10061     1  0.0000000  0.6508444  3
  10060  10058  10072  10078     1  0.0000000  1.0460000  1
  10060  10058  10072  10078     1  0.0000000  0.0000000  3
  10060  10058  10072  10076     1  0.0000000  0.6508444  3
  10060  10058  10072  10077     1  0.0000000  0.6508444  3
  10060  10058  10080  10064     1  0.0000000  1.6038667  3
  10061  10059  10058  10072     1  0.0000000  0.6508444  3
  10061  10059  10058  10080     1  0.0000000  1.0460000  1
  10061  10059  10058  10080     1  0.0000000  0.0000000  3
  10061  10059  10062  10063     1  0.0000000  0.6508444  3
  10061  10059  10062  10070     1  0.0000000  1.0460000  1
  10061  10059  10062  10070     1  0.0000000  0.0000000  3
  10061  10059  10062  10066     1  0.0000000  0.6508444  3
  10061  10059  10071  10074     1  0.0000000  0.6973333  3
  10062  10059  10071  10074     1  0.0000000  1.0460000  1
  10062  10059  10071  10074     1  0.0000000  0.6694400  3
  10062  10063  10064  10067     1  0.0000000  0.6508444  3
  10062  10063  10069  10075     1  0.0000000  1.0460000  1
  10062  10063  10069  10075     1  0.0000000  0.6694400  3
  10063  10062  10070  10073     1  0.0000000  1.0460000  1
  10063  10062  10070  10073     1  0.0000000  0.6694400  3
  10064  10063  10062  10066     1  0.0000000  0.6508444  3
  10064  10063  10069  10075     1  0.0000000  1.0460000  1
  10064  10063  10069  10075     1  0.0000000  0.6694400  3
  10065  10063  10062  10070     1  0.0000000  1.0460000  1
  10065  10063  10062  10070     1  0.0000000  0.0000000  3
  10065  10063  10062  10066     1  0.0000000  0.6508444  3
  10065  10063  10064  10068     1  0.0000000  1.0460000  1
  10065  10063  10064  10068     1  0.0000000  0.0000000  3
  10065  10063  10064  10080     1  0.0000000  1.0460000  1
  10065  10063  10064  10080     1  0.0000000  0.0000000  3
  10065  10063  10064  10067     1  0.0000000  0.6508444  3
  10065  10063  10069  10075     1  0.0000000  0.6973333  3
  10066  10062  10059  10071     1  0.0000000  1.0460000  1
  10066  10062  10059  10071     1  0.0000000  0.0000000  3
  10066  10062  10063  10069     1  0.0000000  1.0460000  1
  10066  10062  10063  10069     1  0.0000000  0.0000000  3
  10066  10062  10070  10073     1  0.0000000  0.6973333  3
  10067  10064  10063  10069     1  0.0000000  0.6508444  3
  10076  10072  10058  10080     1  0.0000000  1.0460000  1
  10076  10072  10058  10080     1  0.0000000  0.0000000  3
  10076  10072  10078  10079     1  0.0000000  0.6973333  3
  10077  10072  10058  10080     1  0.0000000  1.0460000  1
  10077  10072  10058  10080     1  0.0000000  0.0000000  3
  10077  10072  10078  10079     1  0.0000000  0.6973333  3
  10081  10082  10085  10089     1  0.0000000  0.6508444  3
  10081  10082  10094  10097     1  0.0000000  1.0460000  1
  10081  10082  10094  10097     1  0.0000000  0.6694400  3
  10081  10095  10101  10102     1  0.0000000  1.0460000  1
  10081  10095  10101  10102     1  0.0000000  0.6694400  3
  10081  10103  10087  10090     1  0.0000000  1.6038667  3
  10082  10085  10086  10088     1  0.0000000  0.6508444  3
  10082  10085  10093  10096     1  0.0000000  1.0460000  1
  10082  10085  10093  10096     1  0.0000000  0.6694400  3
  10082  10081  10095  10099     1  0.0000000  0.6508444  3
  10082  10081  10095  10100     1  0.0000000  0.6508444  3
  10083  10081  10082  10085     1  0.0000000  0.6508444  3
  10083  10081  10082  10094     1  0.0000000  1.0460000  1
  10083  10081  10082  10094     1  0.0000000  0.0000000  3
  10083  10081  10082  10084     1  0.0000000  0.6508444  3
  10083  10081  10095  10101     1  0.0000000  1.0460000  1
  10083  10081  10095  10101     1  0.0000000  0.0000000  3
  10083  10081  10095  10099     1  0.0000000  0.6508444  3
  10083  10081  10095  10100     1  0.0000000  0.6508444  3
  10083  10081  10103  10087     1  0.0000000  1.6038667  3
  10084  10082  10085  10086     1  0.0000000  0.6508444  3
  10084  10082  10085  10093     1  0.0000000  1.0460000  1
  10084  10082  10085  10093     1  0.0000000  0.0000000  3
  10084  10082  10085  10089     1  0.0000000  0.6508444  3
  10084  10082  10094  10097     1  0.0000000  0.6973333  3
  10084  10082  10081  10095     1  0.0000000  0.6508444  3
  10084  10082  10081  10103     1  0.0000000  1.0460000  1
  10084  10082  10081  10103     1  0.0000000  0.0000000  3
  10085  10086  10087  10090     1  0.0000000  0.6508444  3
  10085  10086  10092  10098     1  0.0000000  1.0460000  1
  10085  10086  10092  10098     1  0.0000000  0.6694400  3
  10085  10082  10094  10097     1  0.0000000  1.0460000  1
  10085  10082  10094  10097     1  0.0000000  0.6694400  3
  10086  10085  10093  10096     1  0.0000000  1.0460000  1
  10086  10085  10093  10096     1  0.0000000  0.6694400  3
  10087  10086  10092  10098     1  0.0000000  1.0460000  1
  10087  10086  10092  10098     1  0.0000000  0.6694400  3
  10087  10086  10085  10089     1  0.0000000  0.6508444  3
  10088  10086  10087  10091     1  0.0000000  1.0460000  1
  10088  10086  10087  10091     1  0.0000000  0.0000000  3
  10088  10086  10087  10103     1  0.0000000  1.0460000  1
  10088  10086  10087  10103     1  0.0000000  0.0000000  3
  10088  10086  10087  10090     1  0.0000000  0.6508444  3
  10088  10086  10092  10098     1  0.0000000  0.6973333  3
  10088  10086  10085  10093     1  0.0000000  1.0460000  1
  10088  10086  10085  10093     1  0.0000000  0.0000000  3
  10088  10086  10085  10089     1  0.0000000  0.6508444  3
  10089  10085  10086  10092     1  0.0000000  1.0460000  1
  10089  10085  10086  10092     1  0.0000000  0.0000000  3
  10089  10085  10093  10096     1  0.0000000  0.6973333  3
  10089  10085  10082  10094     1  0.0000000  1.0460000  1
  10089  10085  10082  10094     1  0.0000000  0.0000000  3
  10090  10087  10086  10092     1  0.0000000  0.6508444  3
  10099  10095  10101  10102     1  0.0000000  0.6973333  3
  10099  10095  10081  10103     1  0.0000000  1.0460000  1
  10099  10095  10081  10103     1  0.0000000  0.0000000  3
  10100  10095  10101  10102     1  0.0000000  0.6973333  3
  10100  10095  10081  10103     1  0.0000000  1.0460000  1
  10100  10095  10081  10103     1  0.0000000  0.0000000  3
  10104  10105  10108  10112     1  0.0000000  0.6508444  3
  10104  10105  10117  10120     1  0.0000000  1.0460000  1
  10104  10105  10117  10120     1  0.0000000  0.6694400  3
  10104  10118  10124  10125     1  0.0000000  1.0460000  1
  10104  10118  10124  10125     1  0.0000000  0.6694400  3
  10104  10126  10110  10113     1  0.0000000  1.6038667  3
  10105  10104  10118  10122     1  0.0000000  0.6508444  3
  10105  10104  10118  10123     1  0.0000000  0.6508444  3
  10105  10108  10109  10111     1  0.0000000  0.6508444  3
  10105  10108  10116  10119     1  0.0000000  1.0460000  1
  10105  10108  10116  10119     1  0.0000000  0.6694400  3
  10106  10104  10105  10108     1  0.0000000  0.6508444  3
  10106  10104  10105  10117     1  0.0000000  1.0460000  1
  10106  10104  10105  10117     1  0.0000000  0.0000000  3
  10106  10104  10105  10107     1  0.0000000  0.6508444  3
  10106  10104  10118  10124     1  0.0000000  1.0460000  1
  10106  10104  10118  10124     1  0.0000000  0.0000000  3
  10106  10104  10118  10122     1  0.0000000  0.6508444  3
  10106  10104  10118  10123     1  0.0000000  0.6508444  3
  10106  10104  10126  10110     1  0.0000000  1.6038667  3
  10107  10105  10104  10118     1  0.0000000  0.6508444  3
  10107  10105  10104  10126     1  0.0000000  1.0460000  1
  10107  10105  10104  10126     1  0.0000000  0.0000000  3
  10107  10105  10108  10109     1  0.0000000  0.6508444  3
  10107  10105  10108  10116     1  0.0000000  1.0460000  1
  10107  10105  10108  10116     1  0.0000000  0.0000000  3
  10107  10105  10108  10112     1  0.0000000  0.6508444  3
  10107  10105  10117  10120     1  0.0000000  0.6973333  3
  10108  10105  10117  10120     1  0.0000000  1.0460000  1
  10108  10105  10117  10120     1  0.0000000  0.6694400  3
  10108  10109  10110  10113     1  0.0000000  0.6508444  3
  10108  10109  10115  10121     1  0.0000000  1.0460000  1
  10108  10109  10115  10121     1  0.0000000  0.6694400  3
  10109  10108  10116  10119     1  0.0000000  1.0460000  1
  10109  10108  10116  10119     1  0.0000000  0.6694400  3
  10110  10109  10108  10112     1  0.0000000  0.6508444  3
  10110  10109  10115  10121     1  0.0000000  1.0460000  1
  10110  10109  10115  10121     1  0.0000000  0.6694400  3
  10111  10109  10108  10116     1  0.0000000  1.0460000  1
  10111  10109  10108  10116     1  0.0000000  0.0000000  3
  10111  10109  10108  10112     1  0.0000000  0.6508444  3
  10111  10109  10110  10114     1  0.0000000  1.0460000  1
  10111  10109  10110  10114     1  0.0000000  0.0000000  3
  10111  10109  10110  10126     1  0.0000000  1.0460000  1
  10111  10109  10110  10126     1  0.0000000  0.0000000  3
  10111  10109  10110  10113     1  0.0000000  0.6508444  3
  10111  10109  10115  10121     1  0.0000000  0.6973333  3
  10112  10108  10105  10117     1  0.0000000  1.0460000  1
  10112  10108  10105  10117     1  0.0000000  0.0000000  3
  10112  10108  10109  10115     1  0.0000000  1.0460000  1
  10112  10108  10109  10115     1  0.0000000  0.0000000  3
  10112  10108  10116  10119     1  0.0000000  0.6973333  3
  10113  10110  10109  10115     1  0.0000000  0.6508444  3
  10122  10118  10104  10126     1  0.0000000  1.0460000  1
  10122  10118  10104  10126     1  0.0000000  0.0000000  3
  10122  10118  10124  10125     1  0.0000000  0.6973333  3
  10123  10118  10104  10126     1  0.0000000  1.0460000  1
  10123  10118  10104  10126     1  0.0000000  0.0000000  3
  10123  10118  10124  10125     1  0.0000000  0.6973333  3
  10127  10128  10131  10135     1  0.0000000  0.6508444  3
  10127  10128  10140  10143     1  0.0000000  1.0460000  1
  10127  10128  10140  10143     1  0.0000000  0.6694400  3
  10127  10141  10147  10148     1  0.0000000  1.0460000  1
  10127  10141  10147  10148     1  0.0000000  0.6694400  3
  10127  10149  10133  10136     1  0.0000000  1.6038667  3
  10128  10131  10132  10134     1  0.0000000  0.6508444  3
  10128  10131  10139  10142     1  0.0000000  1.0460000  1
  10128  10131  10139  10142     1  0.0000000  0.6694400  3
  10128  10127  10141  10145     1  0.0000000  0.6508444  3
  10128  10127  10141  10146     1  0.0000000  0.6508444  3
  10129  10127  10128  10131     1  0.0000000  0.6508444  3
  10129  10127  10128  10140     1  0.0000000  1.0460000  1
  10129  10127  10128  10140     1  0.0000000  0.0000000  3
  10129  10127  10128  10130     1  0.0000000  0.6508444  3
  10129  10127  10141  10147     1  0.0000000  1.0460000  1
  10129  10127  10141  10147     1  0.0000000  0.0000000  3
  10129  10127  10141  10145     1  0.0000000  0.6508444  3
  10129  10127  10141  10146     1  0.0000000  0.6508444  3
  10129  10127  10149  10133     1  0.0000000  1.6038667  3
  10130  10128  10131  10132     1  0.0000000  0.6508444  3
  10130  10128  10131  10139     1  0.0000000  1.0460000  1
  10130  10128  10131  10139     1  0.0000000  0.0000000  3
  10130  10128  10131  10135     1  0.0000000  0.6508444  3
  10130  10128  10140  10143     1  0.0000000  0.6973333  3
  10130  10128  10127  10141     1  0.0000000  0.6508444  3
  10130  10128  10127  10149     1  0.0000000  1.0460000  1
  10130  10128  10127  10149     1  0.0000000  0.0000000  3
  10131  10132  10133  10136     1  0.0000000  0.6508444  3
  10131  10132  10138  10144     1  0.0000000  1.0460000  1
  10131  10132  10138  10144     1  0.0000000  0.6694400  3
  10131  10128  10140  10143     1  0.0000000  1.0460000  1
  10131  10128  10140  10143     1  0.0000000  0.6694400  3
  10132  10131  10139  10142     1  0.0000000  1.0460000  1
  10132  10131  10139  10142     1  0.0000000  0.6694400  3
  10133  10132  10138  10144     1  0.0000000  1.0460000  1
  10133  10132  10138  10144     1  0.0000000  0.6694400  3
  10133  10132  10131  10135     1  0.0000000  0.6508444  3
  10134  10132  10133  10137     1  0.0000000  1.0460000  1
  10134  10132  10133  10137     1  0.0000000  0.0000000  3
  10134  10132  10133  10149     1  0.0000000  1.0460000  1
  10134  10132  10133  10149     1  0.0000000  0.0000000  3
  10134  10132  10133  10136     1  0.0000000  0.6508444  3
  10134  10132  10138  10144     1  0.0000000  0.6973333  3
  10134  10132  10131  10139     1  0.0000000  1.0460000  1
  10134  10132  10131  10139     1  0.0000000  0.0000000  3
  10134  10132  10131  10135     1  0.0000000  0.6508444  3
  10135  10131  10132  10138     1  0.0000000  1.0460000  1
  10135  10131  10132  10138     1  0.0000000  0.0000000  3
  10135  10131  10139  10142     1  0.0000000  0.6973333  3
  10135  10131  10128  10140     1  0.0000000  1.0460000  1
  10135  10131  10128  10140     1  0.0000000  0.0000000  3
  10136  10133  10132  10138     1  0.0000000  0.6508444  3
  10145  10141  10147  10148     1  0.0000000  0.6973333  3
  10145  10141  10127  10149     1  0.0000000  1.0460000  1
  10145  10141  10127  10149     1  0.0000000  0.0000000  3
  10146  10141  10147  10148     1  0.0000000  0.6973333  3
  10146  10141  10127  10149     1  0.0000000  1.0460000  1
  10146  10141  10127  10149     1  0.0000000  0.0000000  3
  10150  10151  10154  10158     1  0.0000000  0.6508444  3
  10150  10151  10163  10166     1  0.0000000  1.0460000  1
  10150  10151  10163  10166     1  0.0000000  0.6694400  3
  10150  10164  10170  10171     1  0.0000000  1.0460000  1
  10150  10164  10170  10171     1  0.0000000  0.6694400  3
  10150  10172  10156  10159     1  0.0000000  1.6038667  3
  10151  10150  10164  10168     1  0.0000000  0.6508444  3
  10151  10150  10164  10169     1  0.0000000  0.6508444  3
  10151  10154  10155  10157     1  0.0000000  0.6508444  3
  10151  10154  10162  10165     1  0.0000000  1.0460000  1
  10151  10154  10162  10165     1  0.0000000  0.6694400  3
  10152  10150  10151  10154     1  0.0000000  0.6508444  3
  10152  10150  10151  10163     1  0.0000000  1.0460000  1
  10152  10150  10151  10163     1  0.0000000  0.0000000  3
  10152  10150  10151  10153     1  0.0000000  0.6508444  3
  10152  10150  10164  10170     1  0.0000000  1.0460000  1
  10152  10150  10164  10170     1  0.0000000  0.0000000  3
  10152  10150  10164  10168     1  0.0000000  0.6508444  3
  10152  10150  10164  10169     1  0.0000000  0.6508444  3
  10152  10150  10172  10156     1  0.0000000  1.6038667  3
  10153  10151  10150  10164     1  0.0000000  0.6508444  3
  10153  10151  10150  10172     1  0.0000000  1.0460000  1
  10153  10151  10150  10172     1  0.0000000  0.0000000  3
  10153  10151  10154  10155     1  0.0000000  0.6508444  3
  10153  10151  10154  10162     1  0.0000000  1.0460000  1
  10153  10151  10154  10162     1  0.0000000  0.0000000  3
  10153  10151  10154  10158     1  0.0000000  0.6508444  3
  10153  10151  10163  10166     1  0.0000000  0.6973333  3
  10154  10151  10163  10166     1  0.0000000  1.0460000  1
  10154  10151  10163  10166     1  0.0000000  0.6694400  3
  10154  10155  10156  10159     1  0.0000000  0.6508444  3
  10154  10155  10161  10167     1  0.0000000  1.0460000  1
  10154  10155  10161  10167     1  0.0000000  0.6694400  3
  10155  10154  10162  10165     1  0.0000000  1.0460000  1
  10155  10154  10162  10165     1  0.0000000  0.6694400  3
  10156  10155  10154  10158     1  0.0000000  0.6508444  3
  10156  10155  10161  10167     1  0.0000000  1.0460000  1
  10156  10155  10161  10167     1  0.0000000  0.6694400  3
  10157  10155  10154  10162     1  0.0000000  1.0460000  1
  10157  10155  10154  10162     1  0.0000000  0.0000000  3
  10157  10155  10154  10158     1  0.0000000  0.6508444  3
  10157  10155  10156  10160     1  0.0000000  1.0460000  1
  10157  10155  10156  10160     1  0.0000000  0.0000000  3
  10157  10155  10156  10172     1  0.0000000  1.0460000  1
  10157  10155  10156  10172     1  0.0000000  0.0000000  3
  10157  10155  10156  10159     1  0.0000000  0.6508444  3
  10157  10155  10161  10167     1  0.0000000  0.6973333  3
  10158  10154  10151  10163     1  0.0000000  1.0460000  1
  10158  10154  10151  10163     1  0.0000000  0.0000000  3
  10158  10154  10155  10161     1  0.0000000  1.0460000  1
  10158  10154  10155  10161     1  0.0000000  0.0000000  3
  10158  10154  10162  10165     1  0.0000000  0.6973333  3
  10159  10156  10155  10161     1  0.0000000  0.6508444  3
  10168  10164  10150  10172     1  0.0000000  1.0460000  1
  10168  10164  10150  10172     1  0.0000000  0.0000000  3
  10168  10164  10170  10171     1  0.0000000  0.6973333  3
  10169  10164  10150  10172     1  0.0000000  1.0460000  1
  10169  10164  10150  10172     1  0.0000000  0.0000000  3
  10169  10164  10170  10171     1  0.0000000  0.6973333  3
  10173  10174  10177  10181     1  0.0000000  0.6508444  3
  10173  10174  10186  10189     1  0.0000000  1.0460000  1
  10173  10174  10186  10189     1  0.0000000  0.6694400  3
  10173  10187  10193  10194     1  0.0000000  1.0460000  1
  10173  10187  10193  10194     1  0.0000000  0.6694400  3
  10173  10195  10179  10182     1  0.0000000  1.6038667  3
  10174  10177  10178  10180     1  0.0000000  0.6508444  3
  10174  10177  10185  10188     1  0.0000000  1.0460000  1
  10174  10177  10185  10188     1  0.0000000  0.6694400  3
  10174  10173  10187  10191     1  0.0000000  0.6508444  3
  10174  10173  10187  10192     1  0.0000000  0.6508444  3
  10175  10173  10174  10177     1  0.0000000  0.6508444  3
  10175  10173  10174  10186     1  0.0000000  1.0460000  1
  10175  10173  10174  10186     1  0.0000000  0.0000000  3
  10175  10173  10174  10176     1  0.0000000  0.6508444  3
  10175  10173  10187  10193     1  0.0000000  1.0460000  1
  10175  10173  10187  10193     1  0.0000000  0.0000000  3
  10175  10173  10187  10191     1  0.0000000  0.6508444  3
  10175  10173  10187  10192     1  0.0000000  0.6508444  3
  10175  10173  10195  10179     1  0.0000000  1.6038667  3
  10176  10174  10177  10178     1  0.0000000  0.6508444  3
  10176  10174  10177  10185     1  0.0000000  1.0460000  1
  10176  10174  10177  10185     1  0.0000000  0.0000000  3
  10176  10174  10177  10181     1  0.0000000  0.6508444  3
  10176  10174  10186  10189     1  0.0000000  0.6973333  3
  10176  10174  10173  10187     1  0.0000000  0.6508444  3
  10176  10174  10173  10195     1  0.0000000  1.0460000  1
  10176  10174  10173  10195     1  0.0000000  0.0000000  3
  10177  10178  10179  10182     1  0.0000000  0.6508444  3
  10177  10178  10184  10190     1  0.0000000  1.0460000  1
  10177  10178  10184  10190     1  0.0000000  0.6694400  3
  10177  10174  10186  10189     1  0.0000000  1.0460000  1
  10177  10174  10186  10189     1  0.0000000  0.6694400  3
  10178  10177  10185  10188     1  0.0000000  1.0460000  1
  10178  10177  10185  10188     1  0.0000000  0.6694400  3
  10179  10178  10184  10190     1  0.0000000  1.0460000  1
  10179  10178  10184  10190     1  0.0000000  0.6694400  3
  10179  10178  10177  10181     1  0.0000000  0.6508444  3
  10180  10178  10179  10183     1  0.0000000  1.0460000  1
  10180  10178  10179  10183     1  0.0000000  0.0000000  3
  10180  10178  10179  10195     1  0.0000000  1.0460000  1
  10180  10178  10179  10195     1  0.0000000  0.0000000  3
  10180  10178  10179  10182     1  0.0000000  0.6508444  3
  10180  10178  10184  10190     1  0.0000000  0.6973333  3
  10180  10178  10177  10185     1  0.0000000  1.0460000  1
  10180  10178  10177  10185     1  0.0000000  0.0000000  3
  10180  10178  10177  10181     1  0.0000000  0.6508444  3
  10181  10177  10178  10184     1  0.0000000  1.0460000  1
  10181  10177  10178  10184     1  0.0000000  0.0000000  3
  10181  10177  10185  10188     1  0.0000000  0.6973333  3
  10181  10177  10174  10186     1  0.0000000  1.0460000  1
  10181  10177  10174  10186     1  0.0000000  0.0000000  3
  10182  10179  10178  10184     1  0.0000000  0.6508444  3
  10191  10187  10193  10194     1  0.0000000  0.6973333  3
  10191  10187  10173  10195     1  0.0000000  1.0460000  1
  10191  10187  10173  10195     1  0.0000000  0.0000000  3
  10192  10187  10193  10194     1  0.0000000  0.6973333  3
  10192  10187  10173  10195     1  0.0000000  1.0460000  1
  10192  10187  10173  10195     1  0.0000000  0.0000000  3
  10196  10197  10200  10204     1  0.0000000  0.6508444  3
  10196  10197  10209  10212     1  0.0000000  1.0460000  1
  10196  10197  10209  10212     1  0.0000000  0.6694400  3
  10196  10210  10216  10217     1  0.0000000  1.0460000  1
  10196  10210  10216  10217     1  0.0000000  0.6694400  3
  10196  10218  10202  10205     1  0.0000000  1.6038667  3
  10197  10196  10210  10214     1  0.0000000  0.6508444  3
  10197  10196  10210  10215     1  0.0000000  0.6508444  3
  10197  10200  10201  10203     1  0.0000000  0.6508444  3
  10197  10200  10208  10211     1  0.0000000  1.0460000  1
  10197  10200  10208  10211     1  0.0000000  0.6694400  3
  10198  10196  10197  10200     1  0.0000000  0.6508444  3
  10198  10196  10197  10209     1  0.0000000  1.0460000  1
  10198  10196  10197  10209     1  0.0000000  0.0000000  3
  10198  10196  10197  10199     1  0.0000000  0.6508444  3
  10198  10196  10210  10216     1  0.0000000  1.0460000  1
  10198  10196  10210  10216     1  0.0000000  0.0000000  3
  10198  10196  10210  10214     1  0.0000000  0.6508444  3
  10198  10196  10210  10215     1  0.0000000  0.6508444  3
  10198  10196  10218  10202     1  0.0000000  1.6038667  3
  10199  10197  10196  10210     1  0.0000000  0.6508444  3
  10199  10197  10196  10218     1  0.0000000  1.0460000  1
  10199  10197  10196  10218     1  0.0000000  0.0000000  3
  10199  10197  10200  10201     1  0.0000000  0.6508444  3
  10199  10197  10200  10208     1  0.0000000  1.0460000  1
  10199  10197  10200  10208     1  0.0000000  0.0000000  3
  10199  10197  10200  10204     1  0.0000000  0.6508444  3
  10199  10197  10209  10212     1  0.0000000  0.6973333  3
  10200  10197  10209  10212     1  0.0000000  1.0460000  1
  10200  10197  10209  10212     1  0.0000000  0.6694400  3
  10200  10201  10202  10205     1  0.0000000  0.6508444  3
  10200  10201  10207  10213     1  0.0000000  1.0460000  1
  10200  10201  10207  10213     1  0.0000000  0.6694400  3
  10201  10200  10208  10211     1  0.0000000  1.0460000  1
  10201  10200  10208  10211     1  0.0000000  0.6694400  3
  10202  10201  10200  10204     1  0.0000000  0.6508444  3
  10202  10201  10207  10213     1  0.0000000  1.0460000  1
  10202  10201  10207  10213     1  0.0000000  0.6694400  3
  10203  10201  10200  10208     1  0.0000000  1.0460000  1
  10203  10201  10200  10208     1  0.0000000  0.0000000  3
  10203  10201  10200  10204     1  0.0000000  0.6508444  3
  10203  10201  10202  10206     1  0.0000000  1.0460000  1
  10203  10201  10202  10206     1  0.0000000  0.0000000  3
  10203  10201  10202  10218     1  0.0000000  1.0460000  1
  10203  10201  10202  10218     1  0.0000000  0.0000000  3
  10203  10201  10202  10205     1  0.0000000  0.6508444  3
  10203  10201  10207  10213     1  0.0000000  0.6973333  3
  10204  10200  10197  10209     1  0.0000000  1.0460000  1
  10204  10200  10197  10209     1  0.0000000  0.0000000  3
  10204  10200  10201  10207     1  0.0000000  1.0460000  1
  10204  10200  10201  10207     1  0.0000000  0.0000000  3
  10204  10200  10208  10211     1  0.0000000  0.6973333  3
  10205  10202  10201  10207     1  0.0000000  0.6508444  3
  10214  10210  10196  10218     1  0.0000000  1.0460000  1
  10214  10210  10196  10218     1  0.0000000  0.0000000  3
  10214  10210  10216  10217     1  0.0000000  0.6973333  3
  10215  10210  10196  10218     1  0.0000000  1.0460000  1
  10215  10210  10196  10218     1  0.0000000  0.0000000  3
  10215  10210  10216  10217     1  0.0000000  0.6973333  3
  10219  10220  10223  10227     1  0.0000000  0.6508444  3
  10219  10220  10232  10235     1  0.0000000  1.0460000  1
  10219  10220  10232  10235     1  0.0000000  0.6694400  3
  10219  10233  10239  10240     1  0.0000000  1.0460000  1
  10219  10233  10239  10240     1  0.0000000  0.6694400  3
  10219  10241  10225  10228     1  0.0000000  1.6038667  3
  10220  10223  10224  10226     1  0.0000000  0.6508444  3
  10220  10223  10231  10234     1  0.0000000  1.0460000  1
  10220  10223  10231  10234     1  0.0000000  0.6694400  3
  10220  10219  10233  10237     1  0.0000000  0.6508444  3
  10220  10219  10233  10238     1  0.0000000  0.6508444  3
  10221  10219  10220  10223     1  0.0000000  0.6508444  3
  10221  10219  10220  10232     1  0.0000000  1.0460000  1
  10221  10219  10220  10232     1  0.0000000  0.0000000  3
  10221  10219  10220  10222     1  0.0000000  0.6508444  3
  10221  10219  10233  10239     1  0.0000000  1.0460000  1
  10221  10219  10233  10239     1  0.0000000  0.0000000  3
  10221  10219  10233  10237     1  0.0000000  0.6508444  3
  10221  10219  10233  10238     1  0.0000000  0.6508444  3
  10221  10219  10241  10225     1  0.0000000  1.6038667  3
  10222  10220  10223  10224     1  0.0000000  0.6508444  3
  10222  10220  10223  10231     1  0.0000000  1.0460000  1
  10222  10220  10223  10231     1  0.0000000  0.0000000  3
  10222  10220  10223  10227     1  0.0000000  0.6508444  3
  10222  10220  10232  10235     1  0.0000000  0.6973333  3
  10222  10220  10219  10233     1  0.0000000  0.6508444  3
  10222  10220  10219  10241     1  0.0000000  1.0460000  1
  10222  10220  10219  10241     1  0.0000000  0.0000000  3
  10223  10224  10225  10228     1  0.0000000  0.6508444  3
  10223  10224  10230  10236     1  0.0000000  1.0460000  1
  10223  10224  10230  10236     1  0.0000000  0.6694400  3
  10223  10220  10232  10235     1  0.0000000  1.0460000  1
  10223  10220  10232  10235     1  0.0000000  0.6694400  3
  10224  10223  10231  10234     1  0.0000000  1.0460000  1
  10224  10223  10231  10234     1  0.0000000  0.6694400  3
  10225  10224  10230  10236     1  0.0000000  1.0460000  1
  10225  10224  10230  10236     1  0.0000000  0.6694400  3
  10225  10224  10223  10227     1  0.0000000  0.6508444  3
  10226  10224  10225  10229     1  0.0000000  1.0460000  1
  10226  10224  10225  10229     1  0.0000000  0.0000000  3
  10226  10224  10225  10241     1  0.0000000  1.0460000  1
  10226  10224  10225  10241     1  0.0000000  0.0000000  3
  10226  10224  10225  10228     1  0.0000000  0.6508444  3
  10226  10224  10230  10236     1  0.0000000  0.6973333  3
  10226  10224  10223  10231     1  0.0000000  1.0460000  1
  10226  10224  10223  10231     1  0.0000000  0.0000000  3
  10226  10224  10223  10227     1  0.0000000  0.6508444  3
  10227  10223  10224  10230     1  0.0000000  1.0460000  1
  10227  10223  10224  10230     1  0.0000000  0.0000000  3
  10227  10223  10231  10234     1  0.0000000  0.6973333  3
  10227  10223  10220  10232     1  0.0000000  1.0460000  1
  10227  10223  10220  10232     1  0.0000000  0.0000000  3
  10228  10225  10224  10230     1  0.0000000  0.6508444  3
  10237  10233  10239  10240     1  0.0000000  0.6973333  3
  10237  10233  10219  10241     1  0.0000000  1.0460000  1
  10237  10233  10219  10241     1  0.0000000  0.0000000  3
  10238  10233  10239  10240     1  0.0000000  0.6973333  3
  10238  10233  10219  10241     1  0.0000000  1.0460000  1
  10238  10233  10219  10241     1  0.0000000  0.0000000  3
  10242  10243  10246  10250     1  0.0000000  0.6508444  3
  10242  10243  10255  10258     1  0.0000000  1.0460000  1
  10242  10243  10255  10258     1  0.0000000  0.6694400  3
  10242  10256  10262  10263     1  0.0000000  1.0460000  1
  10242  10256  10262  10263     1  0.0000000  0.6694400  3
  10242  10264  10248  10251     1  0.0000000  1.6038667  3
  10243  10242  10256  10260     1  0.0000000  0.6508444  3
  10243  10242  10256  10261     1  0.0000000  0.6508444  3
  10243  10246  10247  10249     1  0.0000000  0.6508444  3
  10243  10246  10254  10257     1  0.0000000  1.0460000  1
  10243  10246  10254  10257     1  0.0000000  0.6694400  3
  10244  10242  10243  10246     1  0.0000000  0.6508444  3
  10244  10242  10243  10255     1  0.0000000  1.0460000  1
  10244  10242  10243  10255     1  0.0000000  0.0000000  3
  10244  10242  10243  10245     1  0.0000000  0.6508444  3
  10244  10242  10256  10262     1  0.0000000  1.0460000  1
  10244  10242  10256  10262     1  0.0000000  0.0000000  3
  10244  10242  10256  10260     1  0.0000000  0.6508444  3
  10244  10242  10256  10261     1  0.0000000  0.6508444  3
  10244  10242  10264  10248     1  0.0000000  1.6038667  3
  10245  10243  10242  10256     1  0.0000000  0.6508444  3
  10245  10243  10242  10264     1  0.0000000  1.0460000  1
  10245  10243  10242  10264     1  0.0000000  0.0000000  3
  10245  10243  10246  10247     1  0.0000000  0.6508444  3
  10245  10243  10246  10254     1  0.0000000  1.0460000  1
  10245  10243  10246  10254     1  0.0000000  0.0000000  3
  10245  10243  10246  10250     1  0.0000000  0.6508444  3
  10245  10243  10255  10258     1  0.0000000  0.6973333  3
  10246  10243  10255  10258     1  0.0000000  1.0460000  1
  10246  10243  10255  10258     1  0.0000000  0.6694400  3
  10246  10247  10248  10251     1  0.0000000  0.6508444  3
  10246  10247  10253  10259     1  0.0000000  1.0460000  1
  10246  10247  10253  10259     1  0.0000000  0.6694400  3
  10247  10246  10254  10257     1  0.0000000  1.0460000  1
  10247  10246  10254  10257     1  0.0000000  0.6694400  3
  10248  10247  10246  10250     1  0.0000000  0.6508444  3
  10248  10247  10253  10259     1  0.0000000  1.0460000  1
  10248  10247  10253  10259     1  0.0000000  0.6694400  3
  10249  10247  10246  10254     1  0.0000000  1.0460000  1
  10249  10247  10246  10254     1  0.0000000  0.0000000  3
  10249  10247  10246  10250     1  0.0000000  0.6508444  3
  10249  10247  10248  10252     1  0.0000000  1.0460000  1
  10249  10247  10248  10252     1  0.0000000  0.0000000  3
  10249  10247  10248  10264     1  0.0000000  1.0460000  1
  10249  10247  10248  10264     1  0.0000000  0.0000000  3
  10249  10247  10248  10251     1  0.0000000  0.6508444  3
  10249  10247  10253  10259     1  0.0000000  0.6973333  3
  10250  10246  10243  10255     1  0.0000000  1.0460000  1
  10250  10246  10243  10255     1  0.0000000  0.0000000  3
  10250  10246  10247  10253     1  0.0000000  1.0460000  1
  10250  10246  10247  10253     1  0.0000000  0.0000000  3
  10250  10246  10254  10257     1  0.0000000  0.6973333  3
  10251  10248  10247  10253     1  0.0000000  0.6508444  3
  10260  10256  10242  10264     1  0.0000000  1.0460000  1
  10260  10256  10242  10264     1  0.0000000  0.0000000  3
  10260  10256  10262  10263     1  0.0000000  0.6973333  3
  10261  10256  10242  10264     1  0.0000000  1.0460000  1
  10261  10256  10242  10264     1  0.0000000  0.0000000  3
  10261  10256  10262  10263     1  0.0000000  0.6973333  3
  10265  10266  10269  10273     1  0.0000000  0.6508444  3
  10265  10266  10278  10281     1  0.0000000  1.0460000  1
  10265  10266  10278  10281     1  0.0000000  0.6694400  3
  10265  10279  10285  10286     1  0.0000000  1.0460000  1
  10265  10279  10285  10286     1  0.0000000  0.6694400  3
  10265  10287  10271  10274     1  0.0000000  1.6038667  3
  10266  10269  10270  10272     1  0.0000000  0.6508444  3
  10266  10269  10277  10280     1  0.0000000  1.0460000  1
  10266  10269  10277  10280     1  0.0000000  0.6694400  3
  10266  10265  10279  10283     1  0.0000000  0.6508444  3
  10266  10265  10279  10284     1  0.0000000  0.6508444  3
  10267  10265  10266  10269     1  0.0000000  0.6508444  3
  10267  10265  10266  10278     1  0.0000000  1.0460000  1
  10267  10265  10266  10278     1  0.0000000  0.0000000  3
  10267  10265  10266  10268     1  0.0000000  0.6508444  3
  10267  10265  10279  10285     1  0.0000000  1.0460000  1
  10267  10265  10279  10285     1  0.0000000  0.0000000  3
  10267  10265  10279  10283     1  0.0000000  0.6508444  3
  10267  10265  10279  10284     1  0.0000000  0.6508444  3
  10267  10265  10287  10271     1  0.0000000  1.6038667  3
  10268  10266  10269  10270     1  0.0000000  0.6508444  3
  10268  10266  10269  10277     1  0.0000000  1.0460000  1
  10268  10266  10269  10277     1  0.0000000  0.0000000  3
  10268  10266  10269  10273     1  0.0000000  0.6508444  3
  10268  10266  10278  10281     1  0.0000000  0.6973333  3
  10268  10266  10265  10279     1  0.0000000  0.6508444  3
  10268  10266  10265  10287     1  0.0000000  1.0460000  1
  10268  10266  10265  10287     1  0.0000000  0.0000000  3
  10269  10270  10271  10274     1  0.0000000  0.6508444  3
  10269  10270  10276  10282     1  0.0000000  1.0460000  1
  10269  10270  10276  10282     1  0.0000000  0.6694400  3
  10269  10266  10278  10281     1  0.0000000  1.0460000  1
  10269  10266  10278  10281     1  0.0000000  0.6694400  3
  10270  10269  10277  10280     1  0.0000000  1.0460000  1
  10270  10269  10277  10280     1  0.0000000  0.6694400  3
  10271  10270  10276  10282     1  0.0000000  1.0460000  1
  10271  10270  10276  10282     1  0.0000000  0.6694400  3
  10271  10270  10269  10273     1  0.0000000  0.6508444  3
  10272  10270  10271  10275     1  0.0000000  1.0460000  1
  10272  10270  10271  10275     1  0.0000000  0.0000000  3
  10272  10270  10271  10287     1  0.0000000  1.0460000  1
  10272  10270  10271  10287     1  0.0000000  0.0000000  3
  10272  10270  10271  10274     1  0.0000000  0.6508444  3
  10272  10270  10276  10282     1  0.0000000  0.6973333  3
  10272  10270  10269  10277     1  0.0000000  1.0460000  1
  10272  10270  10269  10277     1  0.0000000  0.0000000  3
  10272  10270  10269  10273     1  0.0000000  0.6508444  3
  10273  10269  10270  10276     1  0.0000000  1.0460000  1
  10273  10269  10270  10276     1  0.0000000  0.0000000  3
  10273  10269  10277  10280     1  0.0000000  0.6973333  3
  10273  10269  10266  10278     1  0.0000000  1.0460000  1
  10273  10269  10266  10278     1  0.0000000  0.0000000  3
  10274  10271  10270  10276     1  0.0000000  0.6508444  3
  10283  10279  10285  10286     1  0.0000000  0.6973333  3
  10283  10279  10265  10287     1  0.0000000  1.0460000  1
  10283  10279  10265  10287     1  0.0000000  0.0000000  3
  10284  10279  10285  10286     1  0.0000000  0.6973333  3
  10284  10279  10265  10287     1  0.0000000  1.0460000  1
  10284  10279  10265  10287     1  0.0000000  0.0000000  3
  10288  10289  10292  10296     1  0.0000000  0.6508444  3
  10288  10289  10301  10304     1  0.0000000  1.0460000  1
  10288  10289  10301  10304     1  0.0000000  0.6694400  3
  10288  10302  10308  10309     1  0.0000000  1.0460000  1
  10288  10302  10308  10309     1  0.0000000  0.6694400  3
  10288  10310  10294  10297     1  0.0000000  1.6038667  3
  10289  10288  10302  10306     1  0.0000000  0.6508444  3
  10289  10288  10302  10307     1  0.0000000  0.6508444  3
  10289  10292  10293  10295     1  0.0000000  0.6508444  3
  10289  10292  10300  10303     1  0.0000000  1.0460000  1
  10289  10292  10300  10303     1  0.0000000  0.6694400  3
  10290  10288  10289  10292     1  0.0000000  0.6508444  3
  10290  10288  10289  10301     1  0.0000000  1.0460000  1
  10290  10288  10289  10301     1  0.0000000  0.0000000  3
  10290  10288  10289  10291     1  0.0000000  0.6508444  3
  10290  10288  10302  10308     1  0.0000000  1.0460000  1
  10290  10288  10302  10308     1  0.0000000  0.0000000  3
  10290  10288  10302  10306     1  0.0000000  0.6508444  3
  10290  10288  10302  10307     1  0.0000000  0.6508444  3
  10290  10288  10310  10294     1  0.0000000  1.6038667  3
  10291  10289  10288  10302     1  0.0000000  0.6508444  3
  10291  10289  10288  10310     1  0.0000000  1.0460000  1
  10291  10289  10288  10310     1  0.0000000  0.0000000  3
  10291  10289  10292  10293     1  0.0000000  0.6508444  3
  10291  10289  10292  10300     1  0.0000000  1.0460000  1
  10291  10289  10292  10300     1  0.0000000  0.0000000  3
  10291  10289  10292  10296     1  0.0000000  0.6508444  3
  10291  10289  10301  10304     1  0.0000000  0.6973333  3
  10292  10289  10301  10304     1  0.0000000  1.0460000  1
  10292  10289  10301  10304     1  0.0000000  0.6694400  3
  10292  10293  10294  10297     1  0.0000000  0.6508444  3
  10292  10293  10299  10305     1  0.0000000  1.0460000  1
  10292  10293  10299  10305     1  0.0000000  0.6694400  3
  10293  10292  10300  10303     1  0.0000000  1.0460000  1
  10293  10292  10300  10303     1  0.0000000  0.6694400  3
  10294  10293  10292  10296     1  0.0000000  0.6508444  3
  10294  10293  10299  10305     1  0.0000000  1.0460000  1
  10294  10293  10299  10305     1  0.0000000  0.6694400  3
  10295  10293  10292  10300     1  0.0000000  1.0460000  1
  10295  10293  10292  10300     1  0.0000000  0.0000000  3
  10295  10293  10292  10296     1  0.0000000  0.6508444  3
  10295  10293  10294  10298     1  0.0000000  1.0460000  1
  10295  10293  10294  10298     1  0.0000000  0.0000000  3
  10295  10293  10294  10310     1  0.0000000  1.0460000  1
  10295  10293  10294  10310     1  0.0000000  0.0000000  3
  10295  10293  10294  10297     1  0.0000000  0.6508444  3
  10295  10293  10299  10305     1  0.0000000  0.6973333  3
  10296  10292  10289  10301     1  0.0000000  1.0460000  1
  10296  10292  10289  10301     1  0.0000000  0.0000000  3
  10296  10292  10293  10299     1  0.0000000  1.0460000  1
  10296  10292  10293  10299     1  0.0000000  0.0000000  3
  10296  10292  10300  10303     1  0.0000000  0.6973333  3
  10297  10294  10293  10299     1  0.0000000  0.6508444  3
  10306  10302  10288  10310     1  0.0000000  1.0460000  1
  10306  10302  10288  10310     1  0.0000000  0.0000000  3
  10306  10302  10308  10309     1  0.0000000  0.6973333  3
  10307  10302  10288  10310     1  0.0000000  1.0460000  1
  10307  10302  10288  10310     1  0.0000000  0.0000000  3
  10307  10302  10308  10309     1  0.0000000  0.6973333  3
  10311  10312  10315  10319     1  0.0000000  0.6508444  3
  10311  10312  10324  10327     1  0.0000000  1.0460000  1
  10311  10312  10324  10327     1  0.0000000  0.6694400  3
  10311  10325  10331  10332     1  0.0000000  1.0460000  1
  10311  10325  10331  10332     1  0.0000000  0.6694400  3
  10311  10333  10317  10320     1  0.0000000  1.6038667  3
  10312  10315  10316  10318     1  0.0000000  0.6508444  3
  10312  10315  10323  10326     1  0.0000000  1.0460000  1
  10312  10315  10323  10326     1  0.0000000  0.6694400  3
  10312  10311  10325  10329     1  0.0000000  0.6508444  3
  10312  10311  10325  10330     1  0.0000000  0.6508444  3
  10313  10311  10312  10315     1  0.0000000  0.6508444  3
  10313  10311  10312  10324     1  0.0000000  1.0460000  1
  10313  10311  10312  10324     1  0.0000000  0.0000000  3
  10313  10311  10312  10314     1  0.0000000  0.6508444  3
  10313  10311  10325  10331     1  0.0000000  1.0460000  1
  10313  10311  10325  10331     1  0.0000000  0.0000000  3
  10313  10311  10325  10329     1  0.0000000  0.6508444  3
  10313  10311  10325  10330     1  0.0000000  0.6508444  3
  10313  10311  10333  10317     1  0.0000000  1.6038667  3
  10314  10312  10315  10316     1  0.0000000  0.6508444  3
  10314  10312  10315  10323     1  0.0000000  1.0460000  1
  10314  10312  10315  10323     1  0.0000000  0.0000000  3
  10314  10312  10315  10319     1  0.0000000  0.6508444  3
  10314  10312  10324  10327     1  0.0000000  0.6973333  3
  10314  10312  10311  10325     1  0.0000000  0.6508444  3
  10314  10312  10311  10333     1  0.0000000  1.0460000  1
  10314  10312  10311  10333     1  0.0000000  0.0000000  3
  10315  10316  10317  10320     1  0.0000000  0.6508444  3
  10315  10316  10322  10328     1  0.0000000  1.0460000  1
  10315  10316  10322  10328     1  0.0000000  0.6694400  3
  10315  10312  10324  10327     1  0.0000000  1.0460000  1
  10315  10312  10324  10327     1  0.0000000  0.6694400  3
  10316  10315  10323  10326     1  0.0000000  1.0460000  1
  10316  10315  10323  10326     1  0.0000000  0.6694400  3
  10317  10316  10322  10328     1  0.0000000  1.0460000  1
  10317  10316  10322  10328     1  0.0000000  0.6694400  3
  10317  10316  10315  10319     1  0.0000000  0.6508444  3
  10318  10316  10317  10321     1  0.0000000  1.0460000  1
  10318  10316  10317  10321     1  0.0000000  0.0000000  3
  10318  10316  10317  10333     1  0.0000000  1.0460000  1
  10318  10316  10317  10333     1  0.0000000  0.0000000  3
  10318  10316  10317  10320     1  0.0000000  0.6508444  3
  10318  10316  10322  10328     1  0.0000000  0.6973333  3
  10318  10316  10315  10323     1  0.0000000  1.0460000  1
  10318  10316  10315  10323     1  0.0000000  0.0000000  3
  10318  10316  10315  10319     1  0.0000000  0.6508444  3
  10319  10315  10316  10322     1  0.0000000  1.0460000  1
  10319  10315  10316  10322     1  0.0000000  0.0000000  3
  10319  10315  10323  10326     1  0.0000000  0.6973333  3
  10319  10315  10312  10324     1  0.0000000  1.0460000  1
  10319  10315  10312  10324     1  0.0000000  0.0000000  3
  10320  10317  10316  10322     1  0.0000000  0.6508444  3
  10329  10325  10331  10332     1  0.0000000  0.6973333  3
  10329  10325  10311  10333     1  0.0000000  1.0460000  1
  10329  10325  10311  10333     1  0.0000000  0.0000000  3
  10330  10325  10331  10332     1  0.0000000  0.6973333  3
  10330  10325  10311  10333     1  0.0000000  1.0460000  1
  10330  10325  10311  10333     1  0.0000000  0.0000000  3
  10334  10335  10338  10342     1  0.0000000  0.6508444  3
  10334  10335  10347  10350     1  0.0000000  1.0460000  1
  10334  10335  10347  10350     1  0.0000000  0.6694400  3
  10334  10348  10354  10355     1  0.0000000  1.0460000  1
  10334  10348  10354  10355     1  0.0000000  0.6694400  3
  10334  10356  10340  10343     1  0.0000000  1.6038667  3
  10335  10334  10348  10352     1  0.0000000  0.6508444  3
  10335  10334  10348  10353     1  0.0000000  0.6508444  3
  10335  10338  10339  10341     1  0.0000000  0.6508444  3
  10335  10338  10346  10349     1  0.0000000  1.0460000  1
  10335  10338  10346  10349     1  0.0000000  0.6694400  3
  10336  10334  10335  10338     1  0.0000000  0.6508444  3
  10336  10334  10335  10347     1  0.0000000  1.0460000  1
  10336  10334  10335  10347     1  0.0000000  0.0000000  3
  10336  10334  10335  10337     1  0.0000000  0.6508444  3
  10336  10334  10348  10354     1  0.0000000  1.0460000  1
  10336  10334  10348  10354     1  0.0000000  0.0000000  3
  10336  10334  10348  10352     1  0.0000000  0.6508444  3
  10336  10334  10348  10353     1  0.0000000  0.6508444  3
  10336  10334  10356  10340     1  0.0000000  1.6038667  3
  10337  10335  10334  10348     1  0.0000000  0.6508444  3
  10337  10335  10334  10356     1  0.0000000  1.0460000  1
  10337  10335  10334  10356     1  0.0000000  0.0000000  3
  10337  10335  10338  10339     1  0.0000000  0.6508444  3
  10337  10335  10338  10346     1  0.0000000  1.0460000  1
  10337  10335  10338  10346     1  0.0000000  0.0000000  3
  10337  10335  10338  10342     1  0.0000000  0.6508444  3
  10337  10335  10347  10350     1  0.0000000  0.6973333  3
  10338  10335  10347  10350     1  0.0000000  1.0460000  1
  10338  10335  10347  10350     1  0.0000000  0.6694400  3
  10338  10339  10340  10343     1  0.0000000  0.6508444  3
  10338  10339  10345  10351     1  0.0000000  1.0460000  1
  10338  10339  10345  10351     1  0.0000000  0.6694400  3
  10339  10338  10346  10349     1  0.0000000  1.0460000  1
  10339  10338  10346  10349     1  0.0000000  0.6694400  3
  10340  10339  10338  10342     1  0.0000000  0.6508444  3
  10340  10339  10345  10351     1  0.0000000  1.0460000  1
  10340  10339  10345  10351     1  0.0000000  0.6694400  3
  10341  10339  10338  10346     1  0.0000000  1.0460000  1
  10341  10339  10338  10346     1  0.0000000  0.0000000  3
  10341  10339  10338  10342     1  0.0000000  0.6508444  3
  10341  10339  10340  10344     1  0.0000000  1.0460000  1
  10341  10339  10340  10344     1  0.0000000  0.0000000  3
  10341  10339  10340  10356     1  0.0000000  1.0460000  1
  10341  10339  10340  10356     1  0.0000000  0.0000000  3
  10341  10339  10340  10343     1  0.0000000  0.6508444  3
  10341  10339  10345  10351     1  0.0000000  0.6973333  3
  10342  10338  10335  10347     1  0.0000000  1.0460000  1
  10342  10338  10335  10347     1  0.0000000  0.0000000  3
  10342  10338  10339  10345     1  0.0000000  1.0460000  1
  10342  10338  10339  10345     1  0.0000000  0.0000000  3
  10342  10338  10346  10349     1  0.0000000  0.6973333  3
  10343  10340  10339  10345     1  0.0000000  0.6508444  3
  10352  10348  10334  10356     1  0.0000000  1.0460000  1
  10352  10348  10334  10356     1  0.0000000  0.0000000  3
  10352  10348  10354  10355     1  0.0000000  0.6973333  3
  10353  10348  10334  10356     1  0.0000000  1.0460000  1
  10353  10348  10334  10356     1  0.0000000  0.0000000  3
  10353  10348  10354  10355     1  0.0000000  0.6973333  3
  10357  10358  10361  10365     1  0.0000000  0.6508444  3
  10357  10358  10370  10373     1  0.0000000  1.0460000  1
  10357  10358  10370  10373     1  0.0000000  0.6694400  3
  10357  10371  10377  10378     1  0.0000000  1.0460000  1
  10357  10371  10377  10378     1  0.0000000  0.6694400  3
  10357  10379  10363  10366     1  0.0000000  1.6038667  3
  10358  10361  10362  10364     1  0.0000000  0.6508444  3
  10358  10361  10369  10372     1  0.0000000  1.0460000  1
  10358  10361  10369  10372     1  0.0000000  0.6694400  3
  10358  10357  10371  10375     1  0.0000000  0.6508444  3
  10358  10357  10371  10376     1  0.0000000  0.6508444  3
  10359  10357  10358  10361     1  0.0000000  0.6508444  3
  10359  10357  10358  10370     1  0.0000000  1.0460000  1
  10359  10357  10358  10370     1  0.0000000  0.0000000  3
  10359  10357  10358  10360     1  0.0000000  0.6508444  3
  10359  10357  10371  10377     1  0.0000000  1.0460000  1
  10359  10357  10371  10377     1  0.0000000  0.0000000  3
  10359  10357  10371  10375     1  0.0000000  0.6508444  3
  10359  10357  10371  10376     1  0.0000000  0.6508444  3
  10359  10357  10379  10363     1  0.0000000  1.6038667  3
  10360  10358  10361  10362     1  0.0000000  0.6508444  3
  10360  10358  10361  10369     1  0.0000000  1.0460000  1
  10360  10358  10361  10369     1  0.0000000  0.0000000  3
  10360  10358  10361  10365     1  0.0000000  0.6508444  3
  10360  10358  10370  10373     1  0.0000000  0.6973333  3
  10360  10358  10357  10371     1  0.0000000  0.6508444  3
  10360  10358  10357  10379     1  0.0000000  1.0460000  1
  10360  10358  10357  10379     1  0.0000000  0.0000000  3
  10361  10362  10363  10366     1  0.0000000  0.6508444  3
  10361  10362  10368  10374     1  0.0000000  1.0460000  1
  10361  10362  10368  10374     1  0.0000000  0.6694400  3
  10361  10358  10370  10373     1  0.0000000  1.0460000  1
  10361  10358  10370  10373     1  0.0000000  0.6694400  3
  10362  10361  10369  10372     1  0.0000000  1.0460000  1
  10362  10361  10369  10372     1  0.0000000  0.6694400  3
  10363  10362  10368  10374     1  0.0000000  1.0460000  1
  10363  10362  10368  10374     1  0.0000000  0.6694400  3
  10363  10362  10361  10365     1  0.0000000  0.6508444  3
  10364  10362  10363  10367     1  0.0000000  1.0460000  1
  10364  10362  10363  10367     1  0.0000000  0.0000000  3
  10364  10362  10363  10379     1  0.0000000  1.0460000  1
  10364  10362  10363  10379     1  0.0000000  0.0000000  3
  10364  10362  10363  10366     1  0.0000000  0.6508444  3
  10364  10362  10368  10374     1  0.0000000  0.6973333  3
  10364  10362  10361  10369     1  0.0000000  1.0460000  1
  10364  10362  10361  10369     1  0.0000000  0.0000000  3
  10364  10362  10361  10365     1  0.0000000  0.6508444  3
  10365  10361  10362  10368     1  0.0000000  1.0460000  1
  10365  10361  10362  10368     1  0.0000000  0.0000000  3
  10365  10361  10369  10372     1  0.0000000  0.6973333  3
  10365  10361  10358  10370     1  0.0000000  1.0460000  1
  10365  10361  10358  10370     1  0.0000000  0.0000000  3
  10366  10363  10362  10368     1  0.0000000  0.6508444  3
  10375  10371  10377  10378     1  0.0000000  0.6973333  3
  10375  10371  10357  10379     1  0.0000000  1.0460000  1
  10375  10371  10357  10379     1  0.0000000  0.0000000  3
  10376  10371  10377  10378     1  0.0000000  0.6973333  3
  10376  10371  10357  10379     1  0.0000000  1.0460000  1
  10376  10371  10357  10379     1  0.0000000  0.0000000  3
  10380  10381  10384  10388     1  0.0000000  0.6508444  3
  10380  10381  10393  10396     1  0.0000000  1.0460000  1
  10380  10381  10393  10396     1  0.0000000  0.6694400  3
  10380  10394  10400  10401     1  0.0000000  1.0460000  1
  10380  10394  10400  10401     1  0.0000000  0.6694400  3
  10380  10402  10386  10389     1  0.0000000  1.6038667  3
  10381  10380  10394  10398     1  0.0000000  0.6508444  3
  10381  10380  10394  10399     1  0.0000000  0.6508444  3
  10381  10384  10385  10387     1  0.0000000  0.6508444  3
  10381  10384  10392  10395     1  0.0000000  1.0460000  1
  10381  10384  10392  10395     1  0.0000000  0.6694400  3
  10382  10380  10381  10384     1  0.0000000  0.6508444  3
  10382  10380  10381  10393     1  0.0000000  1.0460000  1
  10382  10380  10381  10393     1  0.0000000  0.0000000  3
  10382  10380  10381  10383     1  0.0000000  0.6508444  3
  10382  10380  10394  10400     1  0.0000000  1.0460000  1
  10382  10380  10394  10400     1  0.0000000  0.0000000  3
  10382  10380  10394  10398     1  0.0000000  0.6508444  3
  10382  10380  10394  10399     1  0.0000000  0.6508444  3
  10382  10380  10402  10386     1  0.0000000  1.6038667  3
  10383  10381  10380  10394     1  0.0000000  0.6508444  3
  10383  10381  10380  10402     1  0.0000000  1.0460000  1
  10383  10381  10380  10402     1  0.0000000  0.0000000  3
  10383  10381  10384  10385     1  0.0000000  0.6508444  3
  10383  10381  10384  10392     1  0.0000000  1.0460000  1
  10383  10381  10384  10392     1  0.0000000  0.0000000  3
  10383  10381  10384  10388     1  0.0000000  0.6508444  3
  10383  10381  10393  10396     1  0.0000000  0.6973333  3
  10384  10381  10393  10396     1  0.0000000  1.0460000  1
  10384  10381  10393  10396     1  0.0000000  0.6694400  3
  10384  10385  10386  10389     1  0.0000000  0.6508444  3
  10384  10385  10391  10397     1  0.0000000  1.0460000  1
  10384  10385  10391  10397     1  0.0000000  0.6694400  3
  10385  10384  10392  10395     1  0.0000000  1.0460000  1
  10385  10384  10392  10395     1  0.0000000  0.6694400  3
  10386  10385  10384  10388     1  0.0000000  0.6508444  3
  10386  10385  10391  10397     1  0.0000000  1.0460000  1
  10386  10385  10391  10397     1  0.0000000  0.6694400  3
  10387  10385  10384  10392     1  0.0000000  1.0460000  1
  10387  10385  10384  10392     1  0.0000000  0.0000000  3
  10387  10385  10384  10388     1  0.0000000  0.6508444  3
  10387  10385  10386  10390     1  0.0000000  1.0460000  1
  10387  10385  10386  10390     1  0.0000000  0.0000000  3
  10387  10385  10386  10402     1  0.0000000  1.0460000  1
  10387  10385  10386  10402     1  0.0000000  0.0000000  3
  10387  10385  10386  10389     1  0.0000000  0.6508444  3
  10387  10385  10391  10397     1  0.0000000  0.6973333  3
  10388  10384  10381  10393     1  0.0000000  1.0460000  1
  10388  10384  10381  10393     1  0.0000000  0.0000000  3
  10388  10384  10385  10391     1  0.0000000  1.0460000  1
  10388  10384  10385  10391     1  0.0000000  0.0000000  3
  10388  10384  10392  10395     1  0.0000000  0.6973333  3
  10389  10386  10385  10391     1  0.0000000  0.6508444  3
  10398  10394  10380  10402     1  0.0000000  1.0460000  1
  10398  10394  10380  10402     1  0.0000000  0.0000000  3
  10398  10394  10400  10401     1  0.0000000  0.6973333  3
  10399  10394  10380  10402     1  0.0000000  1.0460000  1
  10399  10394  10380  10402     1  0.0000000  0.0000000  3
  10399  10394  10400  10401     1  0.0000000  0.6973333  3
  10403  10404  10407  10411     1  0.0000000  0.6508444  3
  10403  10404  10416  10419     1  0.0000000  1.0460000  1
  10403  10404  10416  10419     1  0.0000000  0.6694400  3
  10403  10417  10423  10424     1  0.0000000  1.0460000  1
  10403  10417  10423  10424     1  0.0000000  0.6694400  3
  10403  10425  10409  10412     1  0.0000000  1.6038667  3
  10404  10407  10408  10410     1  0.0000000  0.6508444  3
  10404  10407  10415  10418     1  0.0000000  1.0460000  1
  10404  10407  10415  10418     1  0.0000000  0.6694400  3
  10404  10403  10417  10421     1  0.0000000  0.6508444  3
  10404  10403  10417  10422     1  0.0000000  0.6508444  3
  10405  10403  10404  10407     1  0.0000000  0.6508444  3
  10405  10403  10404  10416     1  0.0000000  1.0460000  1
  10405  10403  10404  10416     1  0.0000000  0.0000000  3
  10405  10403  10404  10406     1  0.0000000  0.6508444  3
  10405  10403  10417  10423     1  0.0000000  1.0460000  1
  10405  10403  10417  10423     1  0.0000000  0.0000000  3
  10405  10403  10417  10421     1  0.0000000  0.6508444  3
  10405  10403  10417  10422     1  0.0000000  0.6508444  3
  10405  10403  10425  10409     1  0.0000000  1.6038667  3
  10406  10404  10407  10408     1  0.0000000  0.6508444  3
  10406  10404  10407  10415     1  0.0000000  1.0460000  1
  10406  10404  10407  10415     1  0.0000000  0.0000000  3
  10406  10404  10407  10411     1  0.0000000  0.6508444  3
  10406  10404  10416  10419     1  0.0000000  0.6973333  3
  10406  10404  10403  10417     1  0.0000000  0.6508444  3
  10406  10404  10403  10425     1  0.0000000  1.0460000  1
  10406  10404  10403  10425     1  0.0000000  0.0000000  3
  10407  10408  10409  10412     1  0.0000000  0.6508444  3
  10407  10408  10414  10420     1  0.0000000  1.0460000  1
  10407  10408  10414  10420     1  0.0000000  0.6694400  3
  10407  10404  10416  10419     1  0.0000000  1.0460000  1
  10407  10404  10416  10419     1  0.0000000  0.6694400  3
  10408  10407  10415  10418     1  0.0000000  1.0460000  1
  10408  10407  10415  10418     1  0.0000000  0.6694400  3
  10409  10408  10414  10420     1  0.0000000  1.0460000  1
  10409  10408  10414  10420     1  0.0000000  0.6694400  3
  10409  10408  10407  10411     1  0.0000000  0.6508444  3
  10410  10408  10409  10413     1  0.0000000  1.0460000  1
  10410  10408  10409  10413     1  0.0000000  0.0000000  3
  10410  10408  10409  10425     1  0.0000000  1.0460000  1
  10410  10408  10409  10425     1  0.0000000  0.0000000  3
  10410  10408  10409  10412     1  0.0000000  0.6508444  3
  10410  10408  10414  10420     1  0.0000000  0.6973333  3
  10410  10408  10407  10415     1  0.0000000  1.0460000  1
  10410  10408  10407  10415     1  0.0000000  0.0000000  3
  10410  10408  10407  10411     1  0.0000000  0.6508444  3
  10411  10407  10408  10414     1  0.0000000  1.0460000  1
  10411  10407  10408  10414     1  0.0000000  0.0000000  3
  10411  10407  10415  10418     1  0.0000000  0.6973333  3
  10411  10407  10404  10416     1  0.0000000  1.0460000  1
  10411  10407  10404  10416     1  0.0000000  0.0000000  3
  10412  10409  10408  10414     1  0.0000000  0.6508444  3
  10421  10417  10423  10424     1  0.0000000  0.6973333  3
  10421  10417  10403  10425     1  0.0000000  1.0460000  1
  10421  10417  10403  10425     1  0.0000000  0.0000000  3
  10422  10417  10423  10424     1  0.0000000  0.6973333  3
  10422  10417  10403  10425     1  0.0000000  1.0460000  1
  10422  10417  10403  10425     1  0.0000000  0.0000000  3
  10426  10427  10430  10434     1  0.0000000  0.6508444  3
  10426  10427  10439  10442     1  0.0000000  1.0460000  1
  10426  10427  10439  10442     1  0.0000000  0.6694400  3
  10426  10440  10446  10447     1  0.0000000  1.0460000  1
  10426  10440  10446  10447     1  0.0000000  0.6694400  3
  10426  10448  10432  10435     1  0.0000000  1.6038667  3
  10427  10426  10440  10444     1  0.0000000  0.6508444  3
  10427  10426  10440  10445     1  0.0000000  0.6508444  3
  10427  10430  10431  10433     1  0.0000000  0.6508444  3
  10427  10430  10438  10441     1  0.0000000  1.0460000  1
  10427  10430  10438  10441     1  0.0000000  0.6694400  3
  10428  10426  10427  10430     1  0.0000000  0.6508444  3
  10428  10426  10427  10439     1  0.0000000  1.0460000  1
  10428  10426  10427  10439     1  0.0000000  0.0000000  3
  10428  10426  10427  10429     1  0.0000000  0.6508444  3
  10428  10426  10440  10446     1  0.0000000  1.0460000  1
  10428  10426  10440  10446     1  0.0000000  0.0000000  3
  10428  10426  10440  10444     1  0.0000000  0.6508444  3
  10428  10426  10440  10445     1  0.0000000  0.6508444  3
  10428  10426  10448  10432     1  0.0000000  1.6038667  3
  10429  10427  10426  10440     1  0.0000000  0.6508444  3
  10429  10427  10426  10448     1  0.0000000  1.0460000  1
  10429  10427  10426  10448     1  0.0000000  0.0000000  3
  10429  10427  10430  10431     1  0.0000000  0.6508444  3
  10429  10427  10430  10438     1  0.0000000  1.0460000  1
  10429  10427  10430  10438     1  0.0000000  0.0000000  3
  10429  10427  10430  10434     1  0.0000000  0.6508444  3
  10429  10427  10439  10442     1  0.0000000  0.6973333  3
  10430  10427  10439  10442     1  0.0000000  1.0460000  1
  10430  10427  10439  10442     1  0.0000000  0.6694400  3
  10430  10431  10432  10435     1  0.0000000  0.6508444  3
  10430  10431  10437  10443     1  0.0000000  1.0460000  1
  10430  10431  10437  10443     1  0.0000000  0.6694400  3
  10431  10430  10438  10441     1  0.0000000  1.0460000  1
  10431  10430  10438  10441     1  0.0000000  0.6694400  3
  10432  10431  10430  10434     1  0.0000000  0.6508444  3
  10432  10431  10437  10443     1  0.0000000  1.0460000  1
  10432  10431  10437  10443     1  0.0000000  0.6694400  3
  10433  10431  10430  10438     1  0.0000000  1.0460000  1
  10433  10431  10430  10438     1  0.0000000  0.0000000  3
  10433  10431  10430  10434     1  0.0000000  0.6508444  3
  10433  10431  10432  10436     1  0.0000000  1.0460000  1
  10433  10431  10432  10436     1  0.0000000  0.0000000  3
  10433  10431  10432  10448     1  0.0000000  1.0460000  1
  10433  10431  10432  10448     1  0.0000000  0.0000000  3
  10433  10431  10432  10435     1  0.0000000  0.6508444  3
  10433  10431  10437  10443     1  0.0000000  0.6973333  3
  10434  10430  10427  10439     1  0.0000000  1.0460000  1
  10434  10430  10427  10439     1  0.0000000  0.0000000  3
  10434  10430  10431  10437     1  0.0000000  1.0460000  1
  10434  10430  10431  10437     1  0.0000000  0.0000000  3
  10434  10430  10438  10441     1  0.0000000  0.6973333  3
  10435  10432  10431  10437     1  0.0000000  0.6508444  3
  10444  10440  10426  10448     1  0.0000000  1.0460000  1
  10444  10440  10426  10448     1  0.0000000  0.0000000  3
  10444  10440  10446  10447     1  0.0000000  0.6973333  3
  10445  10440  10426  10448     1  0.0000000  1.0460000  1
  10445  10440  10426  10448     1  0.0000000  0.0000000  3
  10445  10440  10446  10447     1  0.0000000  0.6973333  3
  10449  10450  10453  10457     1  0.0000000  0.6508444  3
  10449  10450  10462  10465     1  0.0000000  1.0460000  1
  10449  10450  10462  10465     1  0.0000000  0.6694400  3
  10449  10463  10469  10470     1  0.0000000  1.0460000  1
  10449  10463  10469  10470     1  0.0000000  0.6694400  3
  10449  10471  10455  10458     1  0.0000000  1.6038667  3
  10450  10453  10454  10456     1  0.0000000  0.6508444  3
  10450  10453  10461  10464     1  0.0000000  1.0460000  1
  10450  10453  10461  10464     1  0.0000000  0.6694400  3
  10450  10449  10463  10467     1  0.0000000  0.6508444  3
  10450  10449  10463  10468     1  0.0000000  0.6508444  3
  10451  10449  10450  10453     1  0.0000000  0.6508444  3
  10451  10449  10450  10462     1  0.0000000  1.0460000  1
  10451  10449  10450  10462     1  0.0000000  0.0000000  3
  10451  10449  10450  10452     1  0.0000000  0.6508444  3
  10451  10449  10463  10469     1  0.0000000  1.0460000  1
  10451  10449  10463  10469     1  0.0000000  0.0000000  3
  10451  10449  10463  10467     1  0.0000000  0.6508444  3
  10451  10449  10463  10468     1  0.0000000  0.6508444  3
  10451  10449  10471  10455     1  0.0000000  1.6038667  3
  10452  10450  10453  10454     1  0.0000000  0.6508444  3
  10452  10450  10453  10461     1  0.0000000  1.0460000  1
  10452  10450  10453  10461     1  0.0000000  0.0000000  3
  10452  10450  10453  10457     1  0.0000000  0.6508444  3
  10452  10450  10462  10465     1  0.0000000  0.6973333  3
  10452  10450  10449  10463     1  0.0000000  0.6508444  3
  10452  10450  10449  10471     1  0.0000000  1.0460000  1
  10452  10450  10449  10471     1  0.0000000  0.0000000  3
  10453  10454  10455  10458     1  0.0000000  0.6508444  3
  10453  10454  10460  10466     1  0.0000000  1.0460000  1
  10453  10454  10460  10466     1  0.0000000  0.6694400  3
  10453  10450  10462  10465     1  0.0000000  1.0460000  1
  10453  10450  10462  10465     1  0.0000000  0.6694400  3
  10454  10453  10461  10464     1  0.0000000  1.0460000  1
  10454  10453  10461  10464     1  0.0000000  0.6694400  3
  10455  10454  10460  10466     1  0.0000000  1.0460000  1
  10455  10454  10460  10466     1  0.0000000  0.6694400  3
  10455  10454  10453  10457     1  0.0000000  0.6508444  3
  10456  10454  10455  10459     1  0.0000000  1.0460000  1
  10456  10454  10455  10459     1  0.0000000  0.0000000  3
  10456  10454  10455  10471     1  0.0000000  1.0460000  1
  10456  10454  10455  10471     1  0.0000000  0.0000000  3
  10456  10454  10455  10458     1  0.0000000  0.6508444  3
  10456  10454  10460  10466     1  0.0000000  0.6973333  3
  10456  10454  10453  10461     1  0.0000000  1.0460000  1
  10456  10454  10453  10461     1  0.0000000  0.0000000  3
  10456  10454  10453  10457     1  0.0000000  0.6508444  3
  10457  10453  10454  10460     1  0.0000000  1.0460000  1
  10457  10453  10454  10460     1  0.0000000  0.0000000  3
  10457  10453  10461  10464     1  0.0000000  0.6973333  3
  10457  10453  10450  10462     1  0.0000000  1.0460000  1
  10457  10453  10450  10462     1  0.0000000  0.0000000  3
  10458  10455  10454  10460     1  0.0000000  0.6508444  3
  10467  10463  10469  10470     1  0.0000000  0.6973333  3
  10467  10463  10449  10471     1  0.0000000  1.0460000  1
  10467  10463  10449  10471     1  0.0000000  0.0000000  3
  10468  10463  10469  10470     1  0.0000000  0.6973333  3
  10468  10463  10449  10471     1  0.0000000  1.0460000  1
  10468  10463  10449  10471     1  0.0000000  0.0000000  3
  10472  10473  10476  10480     1  0.0000000  0.6508444  3
  10472  10473  10485  10488     1  0.0000000  1.0460000  1
  10472  10473  10485  10488     1  0.0000000  0.6694400  3
  10472  10486  10492  10493     1  0.0000000  1.0460000  1
  10472  10486  10492  10493     1  0.0000000  0.6694400  3
  10472  10494  10478  10481     1  0.0000000  1.6038667  3
  10473  10472  10486  10490     1  0.0000000  0.6508444  3
  10473  10472  10486  10491     1  0.0000000  0.6508444  3
  10473  10476  10477  10479     1  0.0000000  0.6508444  3
  10473  10476  10484  10487     1  0.0000000  1.0460000  1
  10473  10476  10484  10487     1  0.0000000  0.6694400  3
  10474  10472  10473  10476     1  0.0000000  0.6508444  3
  10474  10472  10473  10485     1  0.0000000  1.0460000  1
  10474  10472  10473  10485     1  0.0000000  0.0000000  3
  10474  10472  10473  10475     1  0.0000000  0.6508444  3
  10474  10472  10486  10492     1  0.0000000  1.0460000  1
  10474  10472  10486  10492     1  0.0000000  0.0000000  3
  10474  10472  10486  10490     1  0.0000000  0.6508444  3
  10474  10472  10486  10491     1  0.0000000  0.6508444  3
  10474  10472  10494  10478     1  0.0000000  1.6038667  3
  10475  10473  10472  10486     1  0.0000000  0.6508444  3
  10475  10473  10472  10494     1  0.0000000  1.0460000  1
  10475  10473  10472  10494     1  0.0000000  0.0000000  3
  10475  10473  10476  10477     1  0.0000000  0.6508444  3
  10475  10473  10476  10484     1  0.0000000  1.0460000  1
  10475  10473  10476  10484     1  0.0000000  0.0000000  3
  10475  10473  10476  10480     1  0.0000000  0.6508444  3
  10475  10473  10485  10488     1  0.0000000  0.6973333  3
  10476  10473  10485  10488     1  0.0000000  1.0460000  1
  10476  10473  10485  10488     1  0.0000000  0.6694400  3
  10476  10477  10478  10481     1  0.0000000  0.6508444  3
  10476  10477  10483  10489     1  0.0000000  1.0460000  1
  10476  10477  10483  10489     1  0.0000000  0.6694400  3
  10477  10476  10484  10487     1  0.0000000  1.0460000  1
  10477  10476  10484  10487     1  0.0000000  0.6694400  3
  10478  10477  10476  10480     1  0.0000000  0.6508444  3
  10478  10477  10483  10489     1  0.0000000  1.0460000  1
  10478  10477  10483  10489     1  0.0000000  0.6694400  3
  10479  10477  10476  10484     1  0.0000000  1.0460000  1
  10479  10477  10476  10484     1  0.0000000  0.0000000  3
  10479  10477  10476  10480     1  0.0000000  0.6508444  3
  10479  10477  10478  10482     1  0.0000000  1.0460000  1
  10479  10477  10478  10482     1  0.0000000  0.0000000  3
  10479  10477  10478  10494     1  0.0000000  1.0460000  1
  10479  10477  10478  10494     1  0.0000000  0.0000000  3
  10479  10477  10478  10481     1  0.0000000  0.6508444  3
  10479  10477  10483  10489     1  0.0000000  0.6973333  3
  10480  10476  10473  10485     1  0.0000000  1.0460000  1
  10480  10476  10473  10485     1  0.0000000  0.0000000  3
  10480  10476  10477  10483     1  0.0000000  1.0460000  1
  10480  10476  10477  10483     1  0.0000000  0.0000000  3
  10480  10476  10484  10487     1  0.0000000  0.6973333  3
  10481  10478  10477  10483     1  0.0000000  0.6508444  3
  10490  10486  10472  10494     1  0.0000000  1.0460000  1
  10490  10486  10472  10494     1  0.0000000  0.0000000  3
  10490  10486  10492  10493     1  0.0000000  0.6973333  3
  10491  10486  10472  10494     1  0.0000000  1.0460000  1
  10491  10486  10472  10494     1  0.0000000  0.0000000  3
  10491  10486  10492  10493     1  0.0000000  0.6973333  3
  10495  10496  10499  10503     1  0.0000000  0.6508444  3
  10495  10496  10508  10511     1  0.0000000  1.0460000  1
  10495  10496  10508  10511     1  0.0000000  0.6694400  3
  10495  10509  10515  10516     1  0.0000000  1.0460000  1
  10495  10509  10515  10516     1  0.0000000  0.6694400  3
  10495  10517  10501  10504     1  0.0000000  1.6038667  3
  10496  10499  10500  10502     1  0.0000000  0.6508444  3
  10496  10499  10507  10510     1  0.0000000  1.0460000  1
  10496  10499  10507  10510     1  0.0000000  0.6694400  3
  10496  10495  10509  10513     1  0.0000000  0.6508444  3
  10496  10495  10509  10514     1  0.0000000  0.6508444  3
  10497  10495  10496  10499     1  0.0000000  0.6508444  3
  10497  10495  10496  10508     1  0.0000000  1.0460000  1
  10497  10495  10496  10508     1  0.0000000  0.0000000  3
  10497  10495  10496  10498     1  0.0000000  0.6508444  3
  10497  10495  10509  10515     1  0.0000000  1.0460000  1
  10497  10495  10509  10515     1  0.0000000  0.0000000  3
  10497  10495  10509  10513     1  0.0000000  0.6508444  3
  10497  10495  10509  10514     1  0.0000000  0.6508444  3
  10497  10495  10517  10501     1  0.0000000  1.6038667  3
  10498  10496  10499  10500     1  0.0000000  0.6508444  3
  10498  10496  10499  10507     1  0.0000000  1.0460000  1
  10498  10496  10499  10507     1  0.0000000  0.0000000  3
  10498  10496  10499  10503     1  0.0000000  0.6508444  3
  10498  10496  10508  10511     1  0.0000000  0.6973333  3
  10498  10496  10495  10509     1  0.0000000  0.6508444  3
  10498  10496  10495  10517     1  0.0000000  1.0460000  1
  10498  10496  10495  10517     1  0.0000000  0.0000000  3
  10499  10500  10501  10504     1  0.0000000  0.6508444  3
  10499  10500  10506  10512     1  0.0000000  1.0460000  1
  10499  10500  10506  10512     1  0.0000000  0.6694400  3
  10499  10496  10508  10511     1  0.0000000  1.0460000  1
  10499  10496  10508  10511     1  0.0000000  0.6694400  3
  10500  10499  10507  10510     1  0.0000000  1.0460000  1
  10500  10499  10507  10510     1  0.0000000  0.6694400  3
  10501  10500  10506  10512     1  0.0000000  1.0460000  1
  10501  10500  10506  10512     1  0.0000000  0.6694400  3
  10501  10500  10499  10503     1  0.0000000  0.6508444  3
  10502  10500  10501  10505     1  0.0000000  1.0460000  1
  10502  10500  10501  10505     1  0.0000000  0.0000000  3
  10502  10500  10501  10517     1  0.0000000  1.0460000  1
  10502  10500  10501  10517     1  0.0000000  0.0000000  3
  10502  10500  10501  10504     1  0.0000000  0.6508444  3
  10502  10500  10506  10512     1  0.0000000  0.6973333  3
  10502  10500  10499  10507     1  0.0000000  1.0460000  1
  10502  10500  10499  10507     1  0.0000000  0.0000000  3
  10502  10500  10499  10503     1  0.0000000  0.6508444  3
  10503  10499  10500  10506     1  0.0000000  1.0460000  1
  10503  10499  10500  10506     1  0.0000000  0.0000000  3
  10503  10499  10507  10510     1  0.0000000  0.6973333  3
  10503  10499  10496  10508     1  0.0000000  1.0460000  1
  10503  10499  10496  10508     1  0.0000000  0.0000000  3
  10504  10501  10500  10506     1  0.0000000  0.6508444  3
  10513  10509  10515  10516     1  0.0000000  0.6973333  3
  10513  10509  10495  10517     1  0.0000000  1.0460000  1
  10513  10509  10495  10517     1  0.0000000  0.0000000  3
  10514  10509  10515  10516     1  0.0000000  0.6973333  3
  10514  10509  10495  10517     1  0.0000000  1.0460000  1
  10514  10509  10495  10517     1  0.0000000  0.0000000  3
  10518  10519  10522  10526     1  0.0000000  0.6508444  3
  10518  10519  10531  10534     1  0.0000000  1.0460000  1
  10518  10519  10531  10534     1  0.0000000  0.6694400  3
  10518  10532  10538  10539     1  0.0000000  1.0460000  1
  10518  10532  10538  10539     1  0.0000000  0.6694400  3
  10518  10540  10524  10527     1  0.0000000  1.6038667  3
  10519  10518  10532  10536     1  0.0000000  0.6508444  3
  10519  10518  10532  10537     1  0.0000000  0.6508444  3
  10519  10522  10523  10525     1  0.0000000  0.6508444  3
  10519  10522  10530  10533     1  0.0000000  1.0460000  1
  10519  10522  10530  10533     1  0.0000000  0.6694400  3
  10520  10518  10519  10522     1  0.0000000  0.6508444  3
  10520  10518  10519  10531     1  0.0000000  1.0460000  1
  10520  10518  10519  10531     1  0.0000000  0.0000000  3
  10520  10518  10519  10521     1  0.0000000  0.6508444  3
  10520  10518  10532  10538     1  0.0000000  1.0460000  1
  10520  10518  10532  10538     1  0.0000000  0.0000000  3
  10520  10518  10532  10536     1  0.0000000  0.6508444  3
  10520  10518  10532  10537     1  0.0000000  0.6508444  3
  10520  10518  10540  10524     1  0.0000000  1.6038667  3
  10521  10519  10518  10532     1  0.0000000  0.6508444  3
  10521  10519  10518  10540     1  0.0000000  1.0460000  1
  10521  10519  10518  10540     1  0.0000000  0.0000000  3
  10521  10519  10522  10523     1  0.0000000  0.6508444  3
  10521  10519  10522  10530     1  0.0000000  1.0460000  1
  10521  10519  10522  10530     1  0.0000000  0.0000000  3
  10521  10519  10522  10526     1  0.0000000  0.6508444  3
  10521  10519  10531  10534     1  0.0000000  0.6973333  3
  10522  10519  10531  10534     1  0.0000000  1.0460000  1
  10522  10519  10531  10534     1  0.0000000  0.6694400  3
  10522  10523  10524  10527     1  0.0000000  0.6508444  3
  10522  10523  10529  10535     1  0.0000000  1.0460000  1
  10522  10523  10529  10535     1  0.0000000  0.6694400  3
  10523  10522  10530  10533     1  0.0000000  1.0460000  1
  10523  10522  10530  10533     1  0.0000000  0.6694400  3
  10524  10523  10522  10526     1  0.0000000  0.6508444  3
  10524  10523  10529  10535     1  0.0000000  1.0460000  1
  10524  10523  10529  10535     1  0.0000000  0.6694400  3
  10525  10523  10522  10530     1  0.0000000  1.0460000  1
  10525  10523  10522  10530     1  0.0000000  0.0000000  3
  10525  10523  10522  10526     1  0.0000000  0.6508444  3
  10525  10523  10524  10528     1  0.0000000  1.0460000  1
  10525  10523  10524  10528     1  0.0000000  0.0000000  3
  10525  10523  10524  10540     1  0.0000000  1.0460000  1
  10525  10523  10524  10540     1  0.0000000  0.0000000  3
  10525  10523  10524  10527     1  0.0000000  0.6508444  3
  10525  10523  10529  10535     1  0.0000000  0.6973333  3
  10526  10522  10519  10531     1  0.0000000  1.0460000  1
  10526  10522  10519  10531     1  0.0000000  0.0000000  3
  10526  10522  10523  10529     1  0.0000000  1.0460000  1
  10526  10522  10523  10529     1  0.0000000  0.0000000  3
  10526  10522  10530  10533     1  0.0000000  0.6973333  3
  10527  10524  10523  10529     1  0.0000000  0.6508444  3
  10536  10532  10518  10540     1  0.0000000  1.0460000  1
  10536  10532  10518  10540     1  0.0000000  0.0000000  3
  10536  10532  10538  10539     1  0.0000000  0.6973333  3
  10537  10532  10518  10540     1  0.0000000  1.0460000  1
  10537  10532  10518  10540     1  0.0000000  0.0000000  3
  10537  10532  10538  10539     1  0.0000000  0.6973333  3
  10541  10542  10545  10549     1  0.0000000  0.6508444  3
  10541  10542  10554  10557     1  0.0000000  1.0460000  1
  10541  10542  10554  10557     1  0.0000000  0.6694400  3
  10541  10555  10561  10562     1  0.0000000  1.0460000  1
  10541  10555  10561  10562     1  0.0000000  0.6694400  3
  10541  10563  10547  10550     1  0.0000000  1.6038667  3
  10542  10545  10546  10548     1  0.0000000  0.6508444  3
  10542  10545  10553  10556     1  0.0000000  1.0460000  1
  10542  10545  10553  10556     1  0.0000000  0.6694400  3
  10542  10541  10555  10559     1  0.0000000  0.6508444  3
  10542  10541  10555  10560     1  0.0000000  0.6508444  3
  10543  10541  10542  10545     1  0.0000000  0.6508444  3
  10543  10541  10542  10554     1  0.0000000  1.0460000  1
  10543  10541  10542  10554     1  0.0000000  0.0000000  3
  10543  10541  10542  10544     1  0.0000000  0.6508444  3
  10543  10541  10555  10561     1  0.0000000  1.0460000  1
  10543  10541  10555  10561     1  0.0000000  0.0000000  3
  10543  10541  10555  10559     1  0.0000000  0.6508444  3
  10543  10541  10555  10560     1  0.0000000  0.6508444  3
  10543  10541  10563  10547     1  0.0000000  1.6038667  3
  10544  10542  10545  10546     1  0.0000000  0.6508444  3
  10544  10542  10545  10553     1  0.0000000  1.0460000  1
  10544  10542  10545  10553     1  0.0000000  0.0000000  3
  10544  10542  10545  10549     1  0.0000000  0.6508444  3
  10544  10542  10554  10557     1  0.0000000  0.6973333  3
  10544  10542  10541  10555     1  0.0000000  0.6508444  3
  10544  10542  10541  10563     1  0.0000000  1.0460000  1
  10544  10542  10541  10563     1  0.0000000  0.0000000  3
  10545  10546  10547  10550     1  0.0000000  0.6508444  3
  10545  10546  10552  10558     1  0.0000000  1.0460000  1
  10545  10546  10552  10558     1  0.0000000  0.6694400  3
  10545  10542  10554  10557     1  0.0000000  1.0460000  1
  10545  10542  10554  10557     1  0.0000000  0.6694400  3
  10546  10545  10553  10556     1  0.0000000  1.0460000  1
  10546  10545  10553  10556     1  0.0000000  0.6694400  3
  10547  10546  10552  10558     1  0.0000000  1.0460000  1
  10547  10546  10552  10558     1  0.0000000  0.6694400  3
  10547  10546  10545  10549     1  0.0000000  0.6508444  3
  10548  10546  10547  10551     1  0.0000000  1.0460000  1
  10548  10546  10547  10551     1  0.0000000  0.0000000  3
  10548  10546  10547  10563     1  0.0000000  1.0460000  1
  10548  10546  10547  10563     1  0.0000000  0.0000000  3
  10548  10546  10547  10550     1  0.0000000  0.6508444  3
  10548  10546  10552  10558     1  0.0000000  0.6973333  3
  10548  10546  10545  10553     1  0.0000000  1.0460000  1
  10548  10546  10545  10553     1  0.0000000  0.0000000  3
  10548  10546  10545  10549     1  0.0000000  0.6508444  3
  10549  10545  10546  10552     1  0.0000000  1.0460000  1
  10549  10545  10546  10552     1  0.0000000  0.0000000  3
  10549  10545  10553  10556     1  0.0000000  0.6973333  3
  10549  10545  10542  10554     1  0.0000000  1.0460000  1
  10549  10545  10542  10554     1  0.0000000  0.0000000  3
  10550  10547  10546  10552     1  0.0000000  0.6508444  3
  10559  10555  10561  10562     1  0.0000000  0.6973333  3
  10559  10555  10541  10563     1  0.0000000  1.0460000  1
  10559  10555  10541  10563     1  0.0000000  0.0000000  3
  10560  10555  10561  10562     1  0.0000000  0.6973333  3
  10560  10555  10541  10563     1  0.0000000  1.0460000  1
  10560  10555  10541  10563     1  0.0000000  0.0000000  3
  10564  10565  10568  10572     1  0.0000000  0.6508444  3
  10564  10565  10577  10580     1  0.0000000  1.0460000  1
  10564  10565  10577  10580     1  0.0000000  0.6694400  3
  10564  10578  10584  10585     1  0.0000000  1.0460000  1
  10564  10578  10584  10585     1  0.0000000  0.6694400  3
  10564  10586  10570  10573     1  0.0000000  1.6038667  3
  10565  10564  10578  10582     1  0.0000000  0.6508444  3
  10565  10564  10578  10583     1  0.0000000  0.6508444  3
  10565  10568  10569  10571     1  0.0000000  0.6508444  3
  10565  10568  10576  10579     1  0.0000000  1.0460000  1
  10565  10568  10576  10579     1  0.0000000  0.6694400  3
  10566  10564  10565  10568     1  0.0000000  0.6508444  3
  10566  10564  10565  10577     1  0.0000000  1.0460000  1
  10566  10564  10565  10577     1  0.0000000  0.0000000  3
  10566  10564  10565  10567     1  0.0000000  0.6508444  3
  10566  10564  10578  10584     1  0.0000000  1.0460000  1
  10566  10564  10578  10584     1  0.0000000  0.0000000  3
  10566  10564  10578  10582     1  0.0000000  0.6508444  3
  10566  10564  10578  10583     1  0.0000000  0.6508444  3
  10566  10564  10586  10570     1  0.0000000  1.6038667  3
  10567  10565  10564  10578     1  0.0000000  0.6508444  3
  10567  10565  10564  10586     1  0.0000000  1.0460000  1
  10567  10565  10564  10586     1  0.0000000  0.0000000  3
  10567  10565  10568  10569     1  0.0000000  0.6508444  3
  10567  10565  10568  10576     1  0.0000000  1.0460000  1
  10567  10565  10568  10576     1  0.0000000  0.0000000  3
  10567  10565  10568  10572     1  0.0000000  0.6508444  3
  10567  10565  10577  10580     1  0.0000000  0.6973333  3
  10568  10565  10577  10580     1  0.0000000  1.0460000  1
  10568  10565  10577  10580     1  0.0000000  0.6694400  3
  10568  10569  10570  10573     1  0.0000000  0.6508444  3
  10568  10569  10575  10581     1  0.0000000  1.0460000  1
  10568  10569  10575  10581     1  0.0000000  0.6694400  3
  10569  10568  10576  10579     1  0.0000000  1.0460000  1
  10569  10568  10576  10579     1  0.0000000  0.6694400  3
  10570  10569  10568  10572     1  0.0000000  0.6508444  3
  10570  10569  10575  10581     1  0.0000000  1.0460000  1
  10570  10569  10575  10581     1  0.0000000  0.6694400  3
  10571  10569  10568  10576     1  0.0000000  1.0460000  1
  10571  10569  10568  10576     1  0.0000000  0.0000000  3
  10571  10569  10568  10572     1  0.0000000  0.6508444  3
  10571  10569  10570  10574     1  0.0000000  1.0460000  1
  10571  10569  10570  10574     1  0.0000000  0.0000000  3
  10571  10569  10570  10586     1  0.0000000  1.0460000  1
  10571  10569  10570  10586     1  0.0000000  0.0000000  3
  10571  10569  10570  10573     1  0.0000000  0.6508444  3
  10571  10569  10575  10581     1  0.0000000  0.6973333  3
  10572  10568  10565  10577     1  0.0000000  1.0460000  1
  10572  10568  10565  10577     1  0.0000000  0.0000000  3
  10572  10568  10569  10575     1  0.0000000  1.0460000  1
  10572  10568  10569  10575     1  0.0000000  0.0000000  3
  10572  10568  10576  10579     1  0.0000000  0.6973333  3
  10573  10570  10569  10575     1  0.0000000  0.6508444  3
  10582  10578  10564  10586     1  0.0000000  1.0460000  1
  10582  10578  10564  10586     1  0.0000000  0.0000000  3
  10582  10578  10584  10585     1  0.0000000  0.6973333  3
  10583  10578  10564  10586     1  0.0000000  1.0460000  1
  10583  10578  10564  10586     1  0.0000000  0.0000000  3
  10583  10578  10584  10585     1  0.0000000  0.6973333  3
  10587  10588  10591  10595     1  0.0000000  0.6508444  3
  10587  10588  10600  10603     1  0.0000000  1.0460000  1
  10587  10588  10600  10603     1  0.0000000  0.6694400  3
  10587  10601  10607  10608     1  0.0000000  1.0460000  1
  10587  10601  10607  10608     1  0.0000000  0.6694400  3
  10587  10609  10593  10596     1  0.0000000  1.6038667  3
  10588  10591  10592  10594     1  0.0000000  0.6508444  3
  10588  10591  10599  10602     1  0.0000000  1.0460000  1
  10588  10591  10599  10602     1  0.0000000  0.6694400  3
  10588  10587  10601  10605     1  0.0000000  0.6508444  3
  10588  10587  10601  10606     1  0.0000000  0.6508444  3
  10589  10587  10588  10591     1  0.0000000  0.6508444  3
  10589  10587  10588  10600     1  0.0000000  1.0460000  1
  10589  10587  10588  10600     1  0.0000000  0.0000000  3
  10589  10587  10588  10590     1  0.0000000  0.6508444  3
  10589  10587  10601  10607     1  0.0000000  1.0460000  1
  10589  10587  10601  10607     1  0.0000000  0.0000000  3
  10589  10587  10601  10605     1  0.0000000  0.6508444  3
  10589  10587  10601  10606     1  0.0000000  0.6508444  3
  10589  10587  10609  10593     1  0.0000000  1.6038667  3
  10590  10588  10591  10592     1  0.0000000  0.6508444  3
  10590  10588  10591  10599     1  0.0000000  1.0460000  1
  10590  10588  10591  10599     1  0.0000000  0.0000000  3
  10590  10588  10591  10595     1  0.0000000  0.6508444  3
  10590  10588  10600  10603     1  0.0000000  0.6973333  3
  10590  10588  10587  10601     1  0.0000000  0.6508444  3
  10590  10588  10587  10609     1  0.0000000  1.0460000  1
  10590  10588  10587  10609     1  0.0000000  0.0000000  3
  10591  10592  10593  10596     1  0.0000000  0.6508444  3
  10591  10592  10598  10604     1  0.0000000  1.0460000  1
  10591  10592  10598  10604     1  0.0000000  0.6694400  3
  10591  10588  10600  10603     1  0.0000000  1.0460000  1
  10591  10588  10600  10603     1  0.0000000  0.6694400  3
  10592  10591  10599  10602     1  0.0000000  1.0460000  1
  10592  10591  10599  10602     1  0.0000000  0.6694400  3
  10593  10592  10598  10604     1  0.0000000  1.0460000  1
  10593  10592  10598  10604     1  0.0000000  0.6694400  3
  10593  10592  10591  10595     1  0.0000000  0.6508444  3
  10594  10592  10593  10597     1  0.0000000  1.0460000  1
  10594  10592  10593  10597     1  0.0000000  0.0000000  3
  10594  10592  10593  10609     1  0.0000000  1.0460000  1
  10594  10592  10593  10609     1  0.0000000  0.0000000  3
  10594  10592  10593  10596     1  0.0000000  0.6508444  3
  10594  10592  10598  10604     1  0.0000000  0.6973333  3
  10594  10592  10591  10599     1  0.0000000  1.0460000  1
  10594  10592  10591  10599     1  0.0000000  0.0000000  3
  10594  10592  10591  10595     1  0.0000000  0.6508444  3
  10595  10591  10592  10598     1  0.0000000  1.0460000  1
  10595  10591  10592  10598     1  0.0000000  0.0000000  3
  10595  10591  10599  10602     1  0.0000000  0.6973333  3
  10595  10591  10588  10600     1  0.0000000  1.0460000  1
  10595  10591  10588  10600     1  0.0000000  0.0000000  3
  10596  10593  10592  10598     1  0.0000000  0.6508444  3
  10605  10601  10607  10608     1  0.0000000  0.6973333  3
  10605  10601  10587  10609     1  0.0000000  1.0460000  1
  10605  10601  10587  10609     1  0.0000000  0.0000000  3
  10606  10601  10607  10608     1  0.0000000  0.6973333  3
  10606  10601  10587  10609     1  0.0000000  1.0460000  1
  10606  10601  10587  10609     1  0.0000000  0.0000000  3
  10610  10611  10614  10618     1  0.0000000  0.6508444  3
  10610  10611  10623  10626     1  0.0000000  1.0460000  1
  10610  10611  10623  10626     1  0.0000000  0.6694400  3
  10610  10624  10630  10631     1  0.0000000  1.0460000  1
  10610  10624  10630  10631     1  0.0000000  0.6694400  3
  10610  10632  10616  10619     1  0.0000000  1.6038667  3
  10611  10610  10624  10628     1  0.0000000  0.6508444  3
  10611  10610  10624  10629     1  0.0000000  0.6508444  3
  10611  10614  10615  10617     1  0.0000000  0.6508444  3
  10611  10614  10622  10625     1  0.0000000  1.0460000  1
  10611  10614  10622  10625     1  0.0000000  0.6694400  3
  10612  10610  10611  10614     1  0.0000000  0.6508444  3
  10612  10610  10611  10623     1  0.0000000  1.0460000  1
  10612  10610  10611  10623     1  0.0000000  0.0000000  3
  10612  10610  10611  10613     1  0.0000000  0.6508444  3
  10612  10610  10624  10630     1  0.0000000  1.0460000  1
  10612  10610  10624  10630     1  0.0000000  0.0000000  3
  10612  10610  10624  10628     1  0.0000000  0.6508444  3
  10612  10610  10624  10629     1  0.0000000  0.6508444  3
  10612  10610  10632  10616     1  0.0000000  1.6038667  3
  10613  10611  10610  10624     1  0.0000000  0.6508444  3
  10613  10611  10610  10632     1  0.0000000  1.0460000  1
  10613  10611  10610  10632     1  0.0000000  0.0000000  3
  10613  10611  10614  10615     1  0.0000000  0.6508444  3
  10613  10611  10614  10622     1  0.0000000  1.0460000  1
  10613  10611  10614  10622     1  0.0000000  0.0000000  3
  10613  10611  10614  10618     1  0.0000000  0.6508444  3
  10613  10611  10623  10626     1  0.0000000  0.6973333  3
  10614  10611  10623  10626     1  0.0000000  1.0460000  1
  10614  10611  10623  10626     1  0.0000000  0.6694400  3
  10614  10615  10616  10619     1  0.0000000  0.6508444  3
  10614  10615  10621  10627     1  0.0000000  1.0460000  1
  10614  10615  10621  10627     1  0.0000000  0.6694400  3
  10615  10614  10622  10625     1  0.0000000  1.0460000  1
  10615  10614  10622  10625     1  0.0000000  0.6694400  3
  10616  10615  10614  10618     1  0.0000000  0.6508444  3
  10616  10615  10621  10627     1  0.0000000  1.0460000  1
  10616  10615  10621  10627     1  0.0000000  0.6694400  3
  10617  10615  10614  10622     1  0.0000000  1.0460000  1
  10617  10615  10614  10622     1  0.0000000  0.0000000  3
  10617  10615  10614  10618     1  0.0000000  0.6508444  3
  10617  10615  10616  10620     1  0.0000000  1.0460000  1
  10617  10615  10616  10620     1  0.0000000  0.0000000  3
  10617  10615  10616  10632     1  0.0000000  1.0460000  1
  10617  10615  10616  10632     1  0.0000000  0.0000000  3
  10617  10615  10616  10619     1  0.0000000  0.6508444  3
  10617  10615  10621  10627     1  0.0000000  0.6973333  3
  10618  10614  10611  10623     1  0.0000000  1.0460000  1
  10618  10614  10611  10623     1  0.0000000  0.0000000  3
  10618  10614  10615  10621     1  0.0000000  1.0460000  1
  10618  10614  10615  10621     1  0.0000000  0.0000000  3
  10618  10614  10622  10625     1  0.0000000  0.6973333  3
  10619  10616  10615  10621     1  0.0000000  0.6508444  3
  10628  10624  10610  10632     1  0.0000000  1.0460000  1
  10628  10624  10610  10632     1  0.0000000  0.0000000  3
  10628  10624  10630  10631     1  0.0000000  0.6973333  3
  10629  10624  10610  10632     1  0.0000000  1.0460000  1
  10629  10624  10610  10632     1  0.0000000  0.0000000  3
  10629  10624  10630  10631     1  0.0000000  0.6973333  3
  10633  10634  10637  10641     1  0.0000000  0.6508444  3
  10633  10634  10646  10649     1  0.0000000  1.0460000  1
  10633  10634  10646  10649     1  0.0000000  0.6694400  3
  10633  10647  10653  10654     1  0.0000000  1.0460000  1
  10633  10647  10653  10654     1  0.0000000  0.6694400  3
  10633  10655  10639  10642     1  0.0000000  1.6038667  3
  10634  10637  10638  10640     1  0.0000000  0.6508444  3
  10634  10637  10645  10648     1  0.0000000  1.0460000  1
  10634  10637  10645  10648     1  0.0000000  0.6694400  3
  10634  10633  10647  10651     1  0.0000000  0.6508444  3
  10634  10633  10647  10652     1  0.0000000  0.6508444  3
  10635  10633  10634  10637     1  0.0000000  0.6508444  3
  10635  10633  10634  10646     1  0.0000000  1.0460000  1
  10635  10633  10634  10646     1  0.0000000  0.0000000  3
  10635  10633  10634  10636     1  0.0000000  0.6508444  3
  10635  10633  10647  10653     1  0.0000000  1.0460000  1
  10635  10633  10647  10653     1  0.0000000  0.0000000  3
  10635  10633  10647  10651     1  0.0000000  0.6508444  3
  10635  10633  10647  10652     1  0.0000000  0.6508444  3
  10635  10633  10655  10639     1  0.0000000  1.6038667  3
  10636  10634  10637  10638     1  0.0000000  0.6508444  3
  10636  10634  10637  10645     1  0.0000000  1.0460000  1
  10636  10634  10637  10645     1  0.0000000  0.0000000  3
  10636  10634  10637  10641     1  0.0000000  0.6508444  3
  10636  10634  10646  10649     1  0.0000000  0.6973333  3
  10636  10634  10633  10647     1  0.0000000  0.6508444  3
  10636  10634  10633  10655     1  0.0000000  1.0460000  1
  10636  10634  10633  10655     1  0.0000000  0.0000000  3
  10637  10638  10639  10642     1  0.0000000  0.6508444  3
  10637  10638  10644  10650     1  0.0000000  1.0460000  1
  10637  10638  10644  10650     1  0.0000000  0.6694400  3
  10637  10634  10646  10649     1  0.0000000  1.0460000  1
  10637  10634  10646  10649     1  0.0000000  0.6694400  3
  10638  10637  10645  10648     1  0.0000000  1.0460000  1
  10638  10637  10645  10648     1  0.0000000  0.6694400  3
  10639  10638  10644  10650     1  0.0000000  1.0460000  1
  10639  10638  10644  10650     1  0.0000000  0.6694400  3
  10639  10638  10637  10641     1  0.0000000  0.6508444  3
  10640  10638  10639  10643     1  0.0000000  1.0460000  1
  10640  10638  10639  10643     1  0.0000000  0.0000000  3
  10640  10638  10639  10655     1  0.0000000  1.0460000  1
  10640  10638  10639  10655     1  0.0000000  0.0000000  3
  10640  10638  10639  10642     1  0.0000000  0.6508444  3
  10640  10638  10644  10650     1  0.0000000  0.6973333  3
  10640  10638  10637  10645     1  0.0000000  1.0460000  1
  10640  10638  10637  10645     1  0.0000000  0.0000000  3
  10640  10638  10637  10641     1  0.0000000  0.6508444  3
  10641  10637  10638  10644     1  0.0000000  1.0460000  1
  10641  10637  10638  10644     1  0.0000000  0.0000000  3
  10641  10637  10645  10648     1  0.0000000  0.6973333  3
  10641  10637  10634  10646     1  0.0000000  1.0460000  1
  10641  10637  10634  10646     1  0.0000000  0.0000000  3
  10642  10639  10638  10644     1  0.0000000  0.6508444  3
  10651  10647  10653  10654     1  0.0000000  0.6973333  3
  10651  10647  10633  10655     1  0.0000000  1.0460000  1
  10651  10647  10633  10655     1  0.0000000  0.0000000  3
  10652  10647  10653  10654     1  0.0000000  0.6973333  3
  10652  10647  10633  10655     1  0.0000000  1.0460000  1
  10652  10647  10633  10655     1  0.0000000  0.0000000  3
  10656  10657  10660  10664     1  0.0000000  0.6508444  3
  10656  10657  10669  10672     1  0.0000000  1.0460000  1
  10656  10657  10669  10672     1  0.0000000  0.6694400  3
  10656  10670  10676  10677     1  0.0000000  1.0460000  1
  10656  10670  10676  10677     1  0.0000000  0.6694400  3
  10656  10678  10662  10665     1  0.0000000  1.6038667  3
  10657  10656  10670  10674     1  0.0000000  0.6508444  3
  10657  10656  10670  10675     1  0.0000000  0.6508444  3
  10657  10660  10661  10663     1  0.0000000  0.6508444  3
  10657  10660  10668  10671     1  0.0000000  1.0460000  1
  10657  10660  10668  10671     1  0.0000000  0.6694400  3
  10658  10656  10657  10660     1  0.0000000  0.6508444  3
  10658  10656  10657  10669     1  0.0000000  1.0460000  1
  10658  10656  10657  10669     1  0.0000000  0.0000000  3
  10658  10656  10657  10659     1  0.0000000  0.6508444  3
  10658  10656  10670  10676     1  0.0000000  1.0460000  1
  10658  10656  10670  10676     1  0.0000000  0.0000000  3
  10658  10656  10670  10674     1  0.0000000  0.6508444  3
  10658  10656  10670  10675     1  0.0000000  0.6508444  3
  10658  10656  10678  10662     1  0.0000000  1.6038667  3
  10659  10657  10656  10670     1  0.0000000  0.6508444  3
  10659  10657  10656  10678     1  0.0000000  1.0460000  1
  10659  10657  10656  10678     1  0.0000000  0.0000000  3
  10659  10657  10660  10661     1  0.0000000  0.6508444  3
  10659  10657  10660  10668     1  0.0000000  1.0460000  1
  10659  10657  10660  10668     1  0.0000000  0.0000000  3
  10659  10657  10660  10664     1  0.0000000  0.6508444  3
  10659  10657  10669  10672     1  0.0000000  0.6973333  3
  10660  10657  10669  10672     1  0.0000000  1.0460000  1
  10660  10657  10669  10672     1  0.0000000  0.6694400  3
  10660  10661  10662  10665     1  0.0000000  0.6508444  3
  10660  10661  10667  10673     1  0.0000000  1.0460000  1
  10660  10661  10667  10673     1  0.0000000  0.6694400  3
  10661  10660  10668  10671     1  0.0000000  1.0460000  1
  10661  10660  10668  10671     1  0.0000000  0.6694400  3
  10662  10661  10660  10664     1  0.0000000  0.6508444  3
  10662  10661  10667  10673     1  0.0000000  1.0460000  1
  10662  10661  10667  10673     1  0.0000000  0.6694400  3
  10663  10661  10660  10668     1  0.0000000  1.0460000  1
  10663  10661  10660  10668     1  0.0000000  0.0000000  3
  10663  10661  10660  10664     1  0.0000000  0.6508444  3
  10663  10661  10662  10666     1  0.0000000  1.0460000  1
  10663  10661  10662  10666     1  0.0000000  0.0000000  3
  10663  10661  10662  10678     1  0.0000000  1.0460000  1
  10663  10661  10662  10678     1  0.0000000  0.0000000  3
  10663  10661  10662  10665     1  0.0000000  0.6508444  3
  10663  10661  10667  10673     1  0.0000000  0.6973333  3
  10664  10660  10657  10669     1  0.0000000  1.0460000  1
  10664  10660  10657  10669     1  0.0000000  0.0000000  3
  10664  10660  10661  10667     1  0.0000000  1.0460000  1
  10664  10660  10661  10667     1  0.0000000  0.0000000  3
  10664  10660  10668  10671     1  0.0000000  0.6973333  3
  10665  10662  10661  10667     1  0.0000000  0.6508444  3
  10674  10670  10656  10678     1  0.0000000  1.0460000  1
  10674  10670  10656  10678     1  0.0000000  0.0000000  3
  10674  10670  10676  10677     1  0.0000000  0.6973333  3
  10675  10670  10656  10678     1  0.0000000  1.0460000  1
  10675  10670  10656  10678     1  0.0000000  0.0000000  3
  10675  10670  10676  10677     1  0.0000000  0.6973333  3
  10679  10680  10683  10687     1  0.0000000  0.6508444  3
  10679  10680  10692  10695     1  0.0000000  1.0460000  1
  10679  10680  10692  10695     1  0.0000000  0.6694400  3
  10679  10693  10699  10700     1  0.0000000  1.0460000  1
  10679  10693  10699  10700     1  0.0000000  0.6694400  3
  10679  10701  10685  10688     1  0.0000000  1.6038667  3
  10680  10683  10684  10686     1  0.0000000  0.6508444  3
  10680  10683  10691  10694     1  0.0000000  1.0460000  1
  10680  10683  10691  10694     1  0.0000000  0.6694400  3
  10680  10679  10693  10697     1  0.0000000  0.6508444  3
  10680  10679  10693  10698     1  0.0000000  0.6508444  3
  10681  10679  10680  10683     1  0.0000000  0.6508444  3
  10681  10679  10680  10692     1  0.0000000  1.0460000  1
  10681  10679  10680  10692     1  0.0000000  0.0000000  3
  10681  10679  10680  10682     1  0.0000000  0.6508444  3
  10681  10679  10693  10699     1  0.0000000  1.0460000  1
  10681  10679  10693  10699     1  0.0000000  0.0000000  3
  10681  10679  10693  10697     1  0.0000000  0.6508444  3
  10681  10679  10693  10698     1  0.0000000  0.6508444  3
  10681  10679  10701  10685     1  0.0000000  1.6038667  3
  10682  10680  10683  10684     1  0.0000000  0.6508444  3
  10682  10680  10683  10691     1  0.0000000  1.0460000  1
  10682  10680  10683  10691     1  0.0000000  0.0000000  3
  10682  10680  10683  10687     1  0.0000000  0.6508444  3
  10682  10680  10692  10695     1  0.0000000  0.6973333  3
  10682  10680  10679  10693     1  0.0000000  0.6508444  3
  10682  10680  10679  10701     1  0.0000000  1.0460000  1
  10682  10680  10679  10701     1  0.0000000  0.0000000  3
  10683  10684  10685  10688     1  0.0000000  0.6508444  3
  10683  10684  10690  10696     1  0.0000000  1.0460000  1
  10683  10684  10690  10696     1  0.0000000  0.6694400  3
  10683  10680  10692  10695     1  0.0000000  1.0460000  1
  10683  10680  10692  10695     1  0.0000000  0.6694400  3
  10684  10683  10691  10694     1  0.0000000  1.0460000  1
  10684  10683  10691  10694     1  0.0000000  0.6694400  3
  10685  10684  10690  10696     1  0.0000000  1.0460000  1
  10685  10684  10690  10696     1  0.0000000  0.6694400  3
  10685  10684  10683  10687     1  0.0000000  0.6508444  3
  10686  10684  10685  10689     1  0.0000000  1.0460000  1
  10686  10684  10685  10689     1  0.0000000  0.0000000  3
  10686  10684  10685  10701     1  0.0000000  1.0460000  1
  10686  10684  10685  10701     1  0.0000000  0.0000000  3
  10686  10684  10685  10688     1  0.0000000  0.6508444  3
  10686  10684  10690  10696     1  0.0000000  0.6973333  3
  10686  10684  10683  10691     1  0.0000000  1.0460000  1
  10686  10684  10683  10691     1  0.0000000  0.0000000  3
  10686  10684  10683  10687     1  0.0000000  0.6508444  3
  10687  10683  10684  10690     1  0.0000000  1.0460000  1
  10687  10683  10684  10690     1  0.0000000  0.0000000  3
  10687  10683  10691  10694     1  0.0000000  0.6973333  3
  10687  10683  10680  10692     1  0.0000000  1.0460000  1
  10687  10683  10680  10692     1  0.0000000  0.0000000  3
  10688  10685  10684  10690     1  0.0000000  0.6508444  3
  10697  10693  10699  10700     1  0.0000000  0.6973333  3
  10697  10693  10679  10701     1  0.0000000  1.0460000  1
  10697  10693  10679  10701     1  0.0000000  0.0000000  3
  10698  10693  10699  10700     1  0.0000000  0.6973333  3
  10698  10693  10679  10701     1  0.0000000  1.0460000  1
  10698  10693  10679  10701     1  0.0000000  0.0000000  3
  10702  10703  10706  10710     1  0.0000000  0.6508444  3
  10702  10703  10715  10718     1  0.0000000  1.0460000  1
  10702  10703  10715  10718     1  0.0000000  0.6694400  3
  10702  10716  10722  10723     1  0.0000000  1.0460000  1
  10702  10716  10722  10723     1  0.0000000  0.6694400  3
  10702  10724  10708  10711     1  0.0000000  1.6038667  3
  10703  10702  10716  10720     1  0.0000000  0.6508444  3
  10703  10702  10716  10721     1  0.0000000  0.6508444  3
  10703  10706  10707  10709     1  0.0000000  0.6508444  3
  10703  10706  10714  10717     1  0.0000000  1.0460000  1
  10703  10706  10714  10717     1  0.0000000  0.6694400  3
  10704  10702  10703  10706     1  0.0000000  0.6508444  3
  10704  10702  10703  10715     1  0.0000000  1.0460000  1
  10704  10702  10703  10715     1  0.0000000  0.0000000  3
  10704  10702  10703  10705     1  0.0000000  0.6508444  3
  10704  10702  10716  10722     1  0.0000000  1.0460000  1
  10704  10702  10716  10722     1  0.0000000  0.0000000  3
  10704  10702  10716  10720     1  0.0000000  0.6508444  3
  10704  10702  10716  10721     1  0.0000000  0.6508444  3
  10704  10702  10724  10708     1  0.0000000  1.6038667  3
  10705  10703  10702  10716     1  0.0000000  0.6508444  3
  10705  10703  10702  10724     1  0.0000000  1.0460000  1
  10705  10703  10702  10724     1  0.0000000  0.0000000  3
  10705  10703  10706  10707     1  0.0000000  0.6508444  3
  10705  10703  10706  10714     1  0.0000000  1.0460000  1
  10705  10703  10706  10714     1  0.0000000  0.0000000  3
  10705  10703  10706  10710     1  0.0000000  0.6508444  3
  10705  10703  10715  10718     1  0.0000000  0.6973333  3
  10706  10703  10715  10718     1  0.0000000  1.0460000  1
  10706  10703  10715  10718     1  0.0000000  0.6694400  3
  10706  10707  10708  10711     1  0.0000000  0.6508444  3
  10706  10707  10713  10719     1  0.0000000  1.0460000  1
  10706  10707  10713  10719     1  0.0000000  0.6694400  3
  10707  10706  10714  10717     1  0.0000000  1.0460000  1
  10707  10706  10714  10717     1  0.0000000  0.6694400  3
  10708  10707  10706  10710     1  0.0000000  0.6508444  3
  10708  10707  10713  10719     1  0.0000000  1.0460000  1
  10708  10707  10713  10719     1  0.0000000  0.6694400  3
  10709  10707  10706  10714     1  0.0000000  1.0460000  1
  10709  10707  10706  10714     1  0.0000000  0.0000000  3
  10709  10707  10706  10710     1  0.0000000  0.6508444  3
  10709  10707  10708  10712     1  0.0000000  1.0460000  1
  10709  10707  10708  10712     1  0.0000000  0.0000000  3
  10709  10707  10708  10724     1  0.0000000  1.0460000  1
  10709  10707  10708  10724     1  0.0000000  0.0000000  3
  10709  10707  10708  10711     1  0.0000000  0.6508444  3
  10709  10707  10713  10719     1  0.0000000  0.6973333  3
  10710  10706  10703  10715     1  0.0000000  1.0460000  1
  10710  10706  10703  10715     1  0.0000000  0.0000000  3
  10710  10706  10707  10713     1  0.0000000  1.0460000  1
  10710  10706  10707  10713     1  0.0000000  0.0000000  3
  10710  10706  10714  10717     1  0.0000000  0.6973333  3
  10711  10708  10707  10713     1  0.0000000  0.6508444  3
  10720  10716  10702  10724     1  0.0000000  1.0460000  1
  10720  10716  10702  10724     1  0.0000000  0.0000000  3
  10720  10716  10722  10723     1  0.0000000  0.6973333  3
  10721  10716  10702  10724     1  0.0000000  1.0460000  1
  10721  10716  10702  10724     1  0.0000000  0.0000000  3
  10721  10716  10722  10723     1  0.0000000  0.6973333  3
  10725  10726  10729  10733     1  0.0000000  0.6508444  3
  10725  10726  10738  10741     1  0.0000000  1.0460000  1
  10725  10726  10738  10741     1  0.0000000  0.6694400  3
  10725  10739  10745  10746     1  0.0000000  1.0460000  1
  10725  10739  10745  10746     1  0.0000000  0.6694400  3
  10725  10747  10731  10734     1  0.0000000  1.6038667  3
  10726  10729  10730  10732     1  0.0000000  0.6508444  3
  10726  10729  10737  10740     1  0.0000000  1.0460000  1
  10726  10729  10737  10740     1  0.0000000  0.6694400  3
  10726  10725  10739  10743     1  0.0000000  0.6508444  3
  10726  10725  10739  10744     1  0.0000000  0.6508444  3
  10727  10725  10726  10729     1  0.0000000  0.6508444  3
  10727  10725  10726  10738     1  0.0000000  1.0460000  1
  10727  10725  10726  10738     1  0.0000000  0.0000000  3
  10727  10725  10726  10728     1  0.0000000  0.6508444  3
  10727  10725  10739  10745     1  0.0000000  1.0460000  1
  10727  10725  10739  10745     1  0.0000000  0.0000000  3
  10727  10725  10739  10743     1  0.0000000  0.6508444  3
  10727  10725  10739  10744     1  0.0000000  0.6508444  3
  10727  10725  10747  10731     1  0.0000000  1.6038667  3
  10728  10726  10729  10730     1  0.0000000  0.6508444  3
  10728  10726  10729  10737     1  0.0000000  1.0460000  1
  10728  10726  10729  10737     1  0.0000000  0.0000000  3
  10728  10726  10729  10733     1  0.0000000  0.6508444  3
  10728  10726  10738  10741     1  0.0000000  0.6973333  3
  10728  10726  10725  10739     1  0.0000000  0.6508444  3
  10728  10726  10725  10747     1  0.0000000  1.0460000  1
  10728  10726  10725  10747     1  0.0000000  0.0000000  3
  10729  10730  10731  10734     1  0.0000000  0.6508444  3
  10729  10730  10736  10742     1  0.0000000  1.0460000  1
  10729  10730  10736  10742     1  0.0000000  0.6694400  3
  10729  10726  10738  10741     1  0.0000000  1.0460000  1
  10729  10726  10738  10741     1  0.0000000  0.6694400  3
  10730  10729  10737  10740     1  0.0000000  1.0460000  1
  10730  10729  10737  10740     1  0.0000000  0.6694400  3
  10731  10730  10736  10742     1  0.0000000  1.0460000  1
  10731  10730  10736  10742     1  0.0000000  0.6694400  3
  10731  10730  10729  10733     1  0.0000000  0.6508444  3
  10732  10730  10731  10735     1  0.0000000  1.0460000  1
  10732  10730  10731  10735     1  0.0000000  0.0000000  3
  10732  10730  10731  10747     1  0.0000000  1.0460000  1
  10732  10730  10731  10747     1  0.0000000  0.0000000  3
  10732  10730  10731  10734     1  0.0000000  0.6508444  3
  10732  10730  10736  10742     1  0.0000000  0.6973333  3
  10732  10730  10729  10737     1  0.0000000  1.0460000  1
  10732  10730  10729  10737     1  0.0000000  0.0000000  3
  10732  10730  10729  10733     1  0.0000000  0.6508444  3
  10733  10729  10730  10736     1  0.0000000  1.0460000  1
  10733  10729  10730  10736     1  0.0000000  0.0000000  3
  10733  10729  10737  10740     1  0.0000000  0.6973333  3
  10733  10729  10726  10738     1  0.0000000  1.0460000  1
  10733  10729  10726  10738     1  0.0000000  0.0000000  3
  10734  10731  10730  10736     1  0.0000000  0.6508444  3
  10743  10739  10745  10746     1  0.0000000  0.6973333  3
  10743  10739  10725  10747     1  0.0000000  1.0460000  1
  10743  10739  10725  10747     1  0.0000000  0.0000000  3
  10744  10739  10745  10746     1  0.0000000  0.6973333  3
  10744  10739  10725  10747     1  0.0000000  1.0460000  1
  10744  10739  10725  10747     1  0.0000000  0.0000000  3
  10748  10749  10752  10756     1  0.0000000  0.6508444  3
  10748  10749  10761  10764     1  0.0000000  1.0460000  1
  10748  10749  10761  10764     1  0.0000000  0.6694400  3
  10748  10762  10768  10769     1  0.0000000  1.0460000  1
  10748  10762  10768  10769     1  0.0000000  0.6694400  3
  10748  10770  10754  10757     1  0.0000000  1.6038667  3
  10749  10748  10762  10766     1  0.0000000  0.6508444  3
  10749  10748  10762  10767     1  0.0000000  0.6508444  3
  10749  10752  10753  10755     1  0.0000000  0.6508444  3
  10749  10752  10760  10763     1  0.0000000  1.0460000  1
  10749  10752  10760  10763     1  0.0000000  0.6694400  3
  10750  10748  10749  10752     1  0.0000000  0.6508444  3
  10750  10748  10749  10761     1  0.0000000  1.0460000  1
  10750  10748  10749  10761     1  0.0000000  0.0000000  3
  10750  10748  10749  10751     1  0.0000000  0.6508444  3
  10750  10748  10762  10768     1  0.0000000  1.0460000  1
  10750  10748  10762  10768     1  0.0000000  0.0000000  3
  10750  10748  10762  10766     1  0.0000000  0.6508444  3
  10750  10748  10762  10767     1  0.0000000  0.6508444  3
  10750  10748  10770  10754     1  0.0000000  1.6038667  3
  10751  10749  10748  10762     1  0.0000000  0.6508444  3
  10751  10749  10748  10770     1  0.0000000  1.0460000  1
  10751  10749  10748  10770     1  0.0000000  0.0000000  3
  10751  10749  10752  10753     1  0.0000000  0.6508444  3
  10751  10749  10752  10760     1  0.0000000  1.0460000  1
  10751  10749  10752  10760     1  0.0000000  0.0000000  3
  10751  10749  10752  10756     1  0.0000000  0.6508444  3
  10751  10749  10761  10764     1  0.0000000  0.6973333  3
  10752  10749  10761  10764     1  0.0000000  1.0460000  1
  10752  10749  10761  10764     1  0.0000000  0.6694400  3
  10752  10753  10754  10757     1  0.0000000  0.6508444  3
  10752  10753  10759  10765     1  0.0000000  1.0460000  1
  10752  10753  10759  10765     1  0.0000000  0.6694400  3
  10753  10752  10760  10763     1  0.0000000  1.0460000  1
  10753  10752  10760  10763     1  0.0000000  0.6694400  3
  10754  10753  10752  10756     1  0.0000000  0.6508444  3
  10754  10753  10759  10765     1  0.0000000  1.0460000  1
  10754  10753  10759  10765     1  0.0000000  0.6694400  3
  10755  10753  10752  10760     1  0.0000000  1.0460000  1
  10755  10753  10752  10760     1  0.0000000  0.0000000  3
  10755  10753  10752  10756     1  0.0000000  0.6508444  3
  10755  10753  10754  10758     1  0.0000000  1.0460000  1
  10755  10753  10754  10758     1  0.0000000  0.0000000  3
  10755  10753  10754  10770     1  0.0000000  1.0460000  1
  10755  10753  10754  10770     1  0.0000000  0.0000000  3
  10755  10753  10754  10757     1  0.0000000  0.6508444  3
  10755  10753  10759  10765     1  0.0000000  0.6973333  3
  10756  10752  10749  10761     1  0.0000000  1.0460000  1
  10756  10752  10749  10761     1  0.0000000  0.0000000  3
  10756  10752  10753  10759     1  0.0000000  1.0460000  1
  10756  10752  10753  10759     1  0.0000000  0.0000000  3
  10756  10752  10760  10763     1  0.0000000  0.6973333  3
  10757  10754  10753  10759     1  0.0000000  0.6508444  3
  10766  10762  10748  10770     1  0.0000000  1.0460000  1
  10766  10762  10748  10770     1  0.0000000  0.0000000  3
  10766  10762  10768  10769     1  0.0000000  0.6973333  3
  10767  10762  10748  10770     1  0.0000000  1.0460000  1
  10767  10762  10748  10770     1  0.0000000  0.0000000  3
  10767  10762  10768  10769     1  0.0000000  0.6973333  3
  10771  10772  10775  10779     1  0.0000000  0.6508444  3
  10771  10772  10784  10787     1  0.0000000  1.0460000  1
  10771  10772  10784  10787     1  0.0000000  0.6694400  3
  10771  10785  10791  10792     1  0.0000000  1.0460000  1
  10771  10785  10791  10792     1  0.0000000  0.6694400  3
  10771  10793  10777  10780     1  0.0000000  1.6038667  3
  10772  10775  10776  10778     1  0.0000000  0.6508444  3
  10772  10775  10783  10786     1  0.0000000  1.0460000  1
  10772  10775  10783  10786     1  0.0000000  0.6694400  3
  10772  10771  10785  10789     1  0.0000000  0.6508444  3
  10772  10771  10785  10790     1  0.0000000  0.6508444  3
  10773  10771  10772  10775     1  0.0000000  0.6508444  3
  10773  10771  10772  10784     1  0.0000000  1.0460000  1
  10773  10771  10772  10784     1  0.0000000  0.0000000  3
  10773  10771  10772  10774     1  0.0000000  0.6508444  3
  10773  10771  10785  10791     1  0.0000000  1.0460000  1
  10773  10771  10785  10791     1  0.0000000  0.0000000  3
  10773  10771  10785  10789     1  0.0000000  0.6508444  3
  10773  10771  10785  10790     1  0.0000000  0.6508444  3
  10773  10771  10793  10777     1  0.0000000  1.6038667  3
  10774  10772  10775  10776     1  0.0000000  0.6508444  3
  10774  10772  10775  10783     1  0.0000000  1.0460000  1
  10774  10772  10775  10783     1  0.0000000  0.0000000  3
  10774  10772  10775  10779     1  0.0000000  0.6508444  3
  10774  10772  10784  10787     1  0.0000000  0.6973333  3
  10774  10772  10771  10785     1  0.0000000  0.6508444  3
  10774  10772  10771  10793     1  0.0000000  1.0460000  1
  10774  10772  10771  10793     1  0.0000000  0.0000000  3
  10775  10776  10777  10780     1  0.0000000  0.6508444  3
  10775  10776  10782  10788     1  0.0000000  1.0460000  1
  10775  10776  10782  10788     1  0.0000000  0.6694400  3
  10775  10772  10784  10787     1  0.0000000  1.0460000  1
  10775  10772  10784  10787     1  0.0000000  0.6694400  3
  10776  10775  10783  10786     1  0.0000000  1.0460000  1
  10776  10775  10783  10786     1  0.0000000  0.6694400  3
  10777  10776  10782  10788     1  0.0000000  1.0460000  1
  10777  10776  10782  10788     1  0.0000000  0.6694400  3
  10777  10776  10775  10779     1  0.0000000  0.6508444  3
  10778  10776  10777  10781     1  0.0000000  1.0460000  1
  10778  10776  10777  10781     1  0.0000000  0.0000000  3
  10778  10776  10777  10793     1  0.0000000  1.0460000  1
  10778  10776  10777  10793     1  0.0000000  0.0000000  3
  10778  10776  10777  10780     1  0.0000000  0.6508444  3
  10778  10776  10782  10788     1  0.0000000  0.6973333  3
  10778  10776  10775  10783     1  0.0000000  1.0460000  1
  10778  10776  10775  10783     1  0.0000000  0.0000000  3
  10778  10776  10775  10779     1  0.0000000  0.6508444  3
  10779  10775  10776  10782     1  0.0000000  1.0460000  1
  10779  10775  10776  10782     1  0.0000000  0.0000000  3
  10779  10775  10783  10786     1  0.0000000  0.6973333  3
  10779  10775  10772  10784     1  0.0000000  1.0460000  1
  10779  10775  10772  10784     1  0.0000000  0.0000000  3
  10780  10777  10776  10782     1  0.0000000  0.6508444  3
  10789  10785  10791  10792     1  0.0000000  0.6973333  3
  10789  10785  10771  10793     1  0.0000000  1.0460000  1
  10789  10785  10771  10793     1  0.0000000  0.0000000  3
  10790  10785  10791  10792     1  0.0000000  0.6973333  3
  10790  10785  10771  10793     1  0.0000000  1.0460000  1
  10790  10785  10771  10793     1  0.0000000  0.0000000  3
  10794  10795  10798  10802     1  0.0000000  0.6508444  3
  10794  10795  10807  10810     1  0.0000000  1.0460000  1
  10794  10795  10807  10810     1  0.0000000  0.6694400  3
  10794  10808  10814  10815     1  0.0000000  1.0460000  1
  10794  10808  10814  10815     1  0.0000000  0.6694400  3
  10794  10816  10800  10803     1  0.0000000  1.6038667  3
  10795  10794  10808  10812     1  0.0000000  0.6508444  3
  10795  10794  10808  10813     1  0.0000000  0.6508444  3
  10795  10798  10799  10801     1  0.0000000  0.6508444  3
  10795  10798  10806  10809     1  0.0000000  1.0460000  1
  10795  10798  10806  10809     1  0.0000000  0.6694400  3
  10796  10794  10795  10798     1  0.0000000  0.6508444  3
  10796  10794  10795  10807     1  0.0000000  1.0460000  1
  10796  10794  10795  10807     1  0.0000000  0.0000000  3
  10796  10794  10795  10797     1  0.0000000  0.6508444  3
  10796  10794  10808  10814     1  0.0000000  1.0460000  1
  10796  10794  10808  10814     1  0.0000000  0.0000000  3
  10796  10794  10808  10812     1  0.0000000  0.6508444  3
  10796  10794  10808  10813     1  0.0000000  0.6508444  3
  10796  10794  10816  10800     1  0.0000000  1.6038667  3
  10797  10795  10794  10808     1  0.0000000  0.6508444  3
  10797  10795  10794  10816     1  0.0000000  1.0460000  1
  10797  10795  10794  10816     1  0.0000000  0.0000000  3
  10797  10795  10798  10799     1  0.0000000  0.6508444  3
  10797  10795  10798  10806     1  0.0000000  1.0460000  1
  10797  10795  10798  10806     1  0.0000000  0.0000000  3
  10797  10795  10798  10802     1  0.0000000  0.6508444  3
  10797  10795  10807  10810     1  0.0000000  0.6973333  3
  10798  10795  10807  10810     1  0.0000000  1.0460000  1
  10798  10795  10807  10810     1  0.0000000  0.6694400  3
  10798  10799  10800  10803     1  0.0000000  0.6508444  3
  10798  10799  10805  10811     1  0.0000000  1.0460000  1
  10798  10799  10805  10811     1  0.0000000  0.6694400  3
  10799  10798  10806  10809     1  0.0000000  1.0460000  1
  10799  10798  10806  10809     1  0.0000000  0.6694400  3
  10800  10799  10798  10802     1  0.0000000  0.6508444  3
  10800  10799  10805  10811     1  0.0000000  1.0460000  1
  10800  10799  10805  10811     1  0.0000000  0.6694400  3
  10801  10799  10798  10806     1  0.0000000  1.0460000  1
  10801  10799  10798  10806     1  0.0000000  0.0000000  3
  10801  10799  10798  10802     1  0.0000000  0.6508444  3
  10801  10799  10800  10804     1  0.0000000  1.0460000  1
  10801  10799  10800  10804     1  0.0000000  0.0000000  3
  10801  10799  10800  10816     1  0.0000000  1.0460000  1
  10801  10799  10800  10816     1  0.0000000  0.0000000  3
  10801  10799  10800  10803     1  0.0000000  0.6508444  3
  10801  10799  10805  10811     1  0.0000000  0.6973333  3
  10802  10798  10795  10807     1  0.0000000  1.0460000  1
  10802  10798  10795  10807     1  0.0000000  0.0000000  3
  10802  10798  10799  10805     1  0.0000000  1.0460000  1
  10802  10798  10799  10805     1  0.0000000  0.0000000  3
  10802  10798  10806  10809     1  0.0000000  0.6973333  3
  10803  10800  10799  10805     1  0.0000000  0.6508444  3
  10812  10808  10794  10816     1  0.0000000  1.0460000  1
  10812  10808  10794  10816     1  0.0000000  0.0000000  3
  10812  10808  10814  10815     1  0.0000000  0.6973333  3
  10813  10808  10794  10816     1  0.0000000  1.0460000  1
  10813  10808  10794  10816     1  0.0000000  0.0000000  3
  10813  10808  10814  10815     1  0.0000000  0.6973333  3
  10817  10818  10821  10825     1  0.0000000  0.6508444  3
  10817  10818  10830  10833     1  0.0000000  1.0460000  1
  10817  10818  10830  10833     1  0.0000000  0.6694400  3
  10817  10831  10837  10838     1  0.0000000  1.0460000  1
  10817  10831  10837  10838     1  0.0000000  0.6694400  3
  10817  10839  10823  10826     1  0.0000000  1.6038667  3
  10818  10821  10822  10824     1  0.0000000  0.6508444  3
  10818  10821  10829  10832     1  0.0000000  1.0460000  1
  10818  10821  10829  10832     1  0.0000000  0.6694400  3
  10818  10817  10831  10835     1  0.0000000  0.6508444  3
  10818  10817  10831  10836     1  0.0000000  0.6508444  3
  10819  10817  10818  10821     1  0.0000000  0.6508444  3
  10819  10817  10818  10830     1  0.0000000  1.0460000  1
  10819  10817  10818  10830     1  0.0000000  0.0000000  3
  10819  10817  10818  10820     1  0.0000000  0.6508444  3
  10819  10817  10831  10837     1  0.0000000  1.0460000  1
  10819  10817  10831  10837     1  0.0000000  0.0000000  3
  10819  10817  10831  10835     1  0.0000000  0.6508444  3
  10819  10817  10831  10836     1  0.0000000  0.6508444  3
  10819  10817  10839  10823     1  0.0000000  1.6038667  3
  10820  10818  10821  10822     1  0.0000000  0.6508444  3
  10820  10818  10821  10829     1  0.0000000  1.0460000  1
  10820  10818  10821  10829     1  0.0000000  0.0000000  3
  10820  10818  10821  10825     1  0.0000000  0.6508444  3
  10820  10818  10830  10833     1  0.0000000  0.6973333  3
  10820  10818  10817  10831     1  0.0000000  0.6508444  3
  10820  10818  10817  10839     1  0.0000000  1.0460000  1
  10820  10818  10817  10839     1  0.0000000  0.0000000  3
  10821  10822  10823  10826     1  0.0000000  0.6508444  3
  10821  10822  10828  10834     1  0.0000000  1.0460000  1
  10821  10822  10828  10834     1  0.0000000  0.6694400  3
  10821  10818  10830  10833     1  0.0000000  1.0460000  1
  10821  10818  10830  10833     1  0.0000000  0.6694400  3
  10822  10821  10829  10832     1  0.0000000  1.0460000  1
  10822  10821  10829  10832     1  0.0000000  0.6694400  3
  10823  10822  10828  10834     1  0.0000000  1.0460000  1
  10823  10822  10828  10834     1  0.0000000  0.6694400  3
  10823  10822  10821  10825     1  0.0000000  0.6508444  3
  10824  10822  10823  10827     1  0.0000000  1.0460000  1
  10824  10822  10823  10827     1  0.0000000  0.0000000  3
  10824  10822  10823  10839     1  0.0000000  1.0460000  1
  10824  10822  10823  10839     1  0.0000000  0.0000000  3
  10824  10822  10823  10826     1  0.0000000  0.6508444  3
  10824  10822  10828  10834     1  0.0000000  0.6973333  3
  10824  10822  10821  10829     1  0.0000000  1.0460000  1
  10824  10822  10821  10829     1  0.0000000  0.0000000  3
  10824  10822  10821  10825     1  0.0000000  0.6508444  3
  10825  10821  10822  10828     1  0.0000000  1.0460000  1
  10825  10821  10822  10828     1  0.0000000  0.0000000  3
  10825  10821  10829  10832     1  0.0000000  0.6973333  3
  10825  10821  10818  10830     1  0.0000000  1.0460000  1
  10825  10821  10818  10830     1  0.0000000  0.0000000  3
  10826  10823  10822  10828     1  0.0000000  0.6508444  3
  10835  10831  10837  10838     1  0.0000000  0.6973333  3
  10835  10831  10817  10839     1  0.0000000  1.0460000  1
  10835  10831  10817  10839     1  0.0000000  0.0000000  3
  10836  10831  10837  10838     1  0.0000000  0.6973333  3
  10836  10831  10817  10839     1  0.0000000  1.0460000  1
  10836  10831  10817  10839     1  0.0000000  0.0000000  3
  10840  10841  10844  10848     1  0.0000000  0.6508444  3
  10840  10841  10853  10856     1  0.0000000  1.0460000  1
  10840  10841  10853  10856     1  0.0000000  0.6694400  3
  10840  10854  10860  10861     1  0.0000000  1.0460000  1
  10840  10854  10860  10861     1  0.0000000  0.6694400  3
  10840  10862  10846  10849     1  0.0000000  1.6038667  3
  10841  10840  10854  10858     1  0.0000000  0.6508444  3
  10841  10840  10854  10859     1  0.0000000  0.6508444  3
  10841  10844  10845  10847     1  0.0000000  0.6508444  3
  10841  10844  10852  10855     1  0.0000000  1.0460000  1
  10841  10844  10852  10855     1  0.0000000  0.6694400  3
  10842  10840  10841  10844     1  0.0000000  0.6508444  3
  10842  10840  10841  10853     1  0.0000000  1.0460000  1
  10842  10840  10841  10853     1  0.0000000  0.0000000  3
  10842  10840  10841  10843     1  0.0000000  0.6508444  3
  10842  10840  10854  10860     1  0.0000000  1.0460000  1
  10842  10840  10854  10860     1  0.0000000  0.0000000  3
  10842  10840  10854  10858     1  0.0000000  0.6508444  3
  10842  10840  10854  10859     1  0.0000000  0.6508444  3
  10842  10840  10862  10846     1  0.0000000  1.6038667  3
  10843  10841  10840  10854     1  0.0000000  0.6508444  3
  10843  10841  10840  10862     1  0.0000000  1.0460000  1
  10843  10841  10840  10862     1  0.0000000  0.0000000  3
  10843  10841  10844  10845     1  0.0000000  0.6508444  3
  10843  10841  10844  10852     1  0.0000000  1.0460000  1
  10843  10841  10844  10852     1  0.0000000  0.0000000  3
  10843  10841  10844  10848     1  0.0000000  0.6508444  3
  10843  10841  10853  10856     1  0.0000000  0.6973333  3
  10844  10841  10853  10856     1  0.0000000  1.0460000  1
  10844  10841  10853  10856     1  0.0000000  0.6694400  3
  10844  10845  10846  10849     1  0.0000000  0.6508444  3
  10844  10845  10851  10857     1  0.0000000  1.0460000  1
  10844  10845  10851  10857     1  0.0000000  0.6694400  3
  10845  10844  10852  10855     1  0.0000000  1.0460000  1
  10845  10844  10852  10855     1  0.0000000  0.6694400  3
  10846  10845  10844  10848     1  0.0000000  0.6508444  3
  10846  10845  10851  10857     1  0.0000000  1.0460000  1
  10846  10845  10851  10857     1  0.0000000  0.6694400  3
  10847  10845  10844  10852     1  0.0000000  1.0460000  1
  10847  10845  10844  10852     1  0.0000000  0.0000000  3
  10847  10845  10844  10848     1  0.0000000  0.6508444  3
  10847  10845  10846  10850     1  0.0000000  1.0460000  1
  10847  10845  10846  10850     1  0.0000000  0.0000000  3
  10847  10845  10846  10862     1  0.0000000  1.0460000  1
  10847  10845  10846  10862     1  0.0000000  0.0000000  3
  10847  10845  10846  10849     1  0.0000000  0.6508444  3
  10847  10845  10851  10857     1  0.0000000  0.6973333  3
  10848  10844  10841  10853     1  0.0000000  1.0460000  1
  10848  10844  10841  10853     1  0.0000000  0.0000000  3
  10848  10844  10845  10851     1  0.0000000  1.0460000  1
  10848  10844  10845  10851     1  0.0000000  0.0000000  3
  10848  10844  10852  10855     1  0.0000000  0.6973333  3
  10849  10846  10845  10851     1  0.0000000  0.6508444  3
  10858  10854  10840  10862     1  0.0000000  1.0460000  1
  10858  10854  10840  10862     1  0.0000000  0.0000000  3
  10858  10854  10860  10861     1  0.0000000  0.6973333  3
  10859  10854  10840  10862     1  0.0000000  1.0460000  1
  10859  10854  10840  10862     1  0.0000000  0.0000000  3
  10859  10854  10860  10861     1  0.0000000  0.6973333  3
  10863  10864  10867  10871     1  0.0000000  0.6508444  3
  10863  10864  10876  10879     1  0.0000000  1.0460000  1
  10863  10864  10876  10879     1  0.0000000  0.6694400  3
  10863  10877  10883  10884     1  0.0000000  1.0460000  1
  10863  10877  10883  10884     1  0.0000000  0.6694400  3
  10863  10885  10869  10872     1  0.0000000  1.6038667  3
  10864  10867  10868  10870     1  0.0000000  0.6508444  3
  10864  10867  10875  10878     1  0.0000000  1.0460000  1
  10864  10867  10875  10878     1  0.0000000  0.6694400  3
  10864  10863  10877  10881     1  0.0000000  0.6508444  3
  10864  10863  10877  10882     1  0.0000000  0.6508444  3
  10865  10863  10864  10867     1  0.0000000  0.6508444  3
  10865  10863  10864  10876     1  0.0000000  1.0460000  1
  10865  10863  10864  10876     1  0.0000000  0.0000000  3
  10865  10863  10864  10866     1  0.0000000  0.6508444  3
  10865  10863  10877  10883     1  0.0000000  1.0460000  1
  10865  10863  10877  10883     1  0.0000000  0.0000000  3
  10865  10863  10877  10881     1  0.0000000  0.6508444  3
  10865  10863  10877  10882     1  0.0000000  0.6508444  3
  10865  10863  10885  10869     1  0.0000000  1.6038667  3
  10866  10864  10867  10868     1  0.0000000  0.6508444  3
  10866  10864  10867  10875     1  0.0000000  1.0460000  1
  10866  10864  10867  10875     1  0.0000000  0.0000000  3
  10866  10864  10867  10871     1  0.0000000  0.6508444  3
  10866  10864  10876  10879     1  0.0000000  0.6973333  3
  10866  10864  10863  10877     1  0.0000000  0.6508444  3
  10866  10864  10863  10885     1  0.0000000  1.0460000  1
  10866  10864  10863  10885     1  0.0000000  0.0000000  3
  10867  10868  10869  10872     1  0.0000000  0.6508444  3
  10867  10868  10874  10880     1  0.0000000  1.0460000  1
  10867  10868  10874  10880     1  0.0000000  0.6694400  3
  10867  10864  10876  10879     1  0.0000000  1.0460000  1
  10867  10864  10876  10879     1  0.0000000  0.6694400  3
  10868  10867  10875  10878     1  0.0000000  1.0460000  1
  10868  10867  10875  10878     1  0.0000000  0.6694400  3
  10869  10868  10874  10880     1  0.0000000  1.0460000  1
  10869  10868  10874  10880     1  0.0000000  0.6694400  3
  10869  10868  10867  10871     1  0.0000000  0.6508444  3
  10870  10868  10869  10873     1  0.0000000  1.0460000  1
  10870  10868  10869  10873     1  0.0000000  0.0000000  3
  10870  10868  10869  10885     1  0.0000000  1.0460000  1
  10870  10868  10869  10885     1  0.0000000  0.0000000  3
  10870  10868  10869  10872     1  0.0000000  0.6508444  3
  10870  10868  10874  10880     1  0.0000000  0.6973333  3
  10870  10868  10867  10875     1  0.0000000  1.0460000  1
  10870  10868  10867  10875     1  0.0000000  0.0000000  3
  10870  10868  10867  10871     1  0.0000000  0.6508444  3
  10871  10867  10868  10874     1  0.0000000  1.0460000  1
  10871  10867  10868  10874     1  0.0000000  0.0000000  3
  10871  10867  10875  10878     1  0.0000000  0.6973333  3
  10871  10867  10864  10876     1  0.0000000  1.0460000  1
  10871  10867  10864  10876     1  0.0000000  0.0000000  3
  10872  10869  10868  10874     1  0.0000000  0.6508444  3
  10881  10877  10883  10884     1  0.0000000  0.6973333  3
  10881  10877  10863  10885     1  0.0000000  1.0460000  1
  10881  10877  10863  10885     1  0.0000000  0.0000000  3
  10882  10877  10883  10884     1  0.0000000  0.6973333  3
  10882  10877  10863  10885     1  0.0000000  1.0460000  1
  10882  10877  10863  10885     1  0.0000000  0.0000000  3
  10886  10887  10890  10894     1  0.0000000  0.6508444  3
  10886  10887  10899  10902     1  0.0000000  1.0460000  1
  10886  10887  10899  10902     1  0.0000000  0.6694400  3
  10886  10900  10906  10907     1  0.0000000  1.0460000  1
  10886  10900  10906  10907     1  0.0000000  0.6694400  3
  10886  10908  10892  10895     1  0.0000000  1.6038667  3
  10887  10886  10900  10904     1  0.0000000  0.6508444  3
  10887  10886  10900  10905     1  0.0000000  0.6508444  3
  10887  10890  10891  10893     1  0.0000000  0.6508444  3
  10887  10890  10898  10901     1  0.0000000  1.0460000  1
  10887  10890  10898  10901     1  0.0000000  0.6694400  3
  10888  10886  10887  10890     1  0.0000000  0.6508444  3
  10888  10886  10887  10899     1  0.0000000  1.0460000  1
  10888  10886  10887  10899     1  0.0000000  0.0000000  3
  10888  10886  10887  10889     1  0.0000000  0.6508444  3
  10888  10886  10900  10906     1  0.0000000  1.0460000  1
  10888  10886  10900  10906     1  0.0000000  0.0000000  3
  10888  10886  10900  10904     1  0.0000000  0.6508444  3
  10888  10886  10900  10905     1  0.0000000  0.6508444  3
  10888  10886  10908  10892     1  0.0000000  1.6038667  3
  10889  10887  10886  10900     1  0.0000000  0.6508444  3
  10889  10887  10886  10908     1  0.0000000  1.0460000  1
  10889  10887  10886  10908     1  0.0000000  0.0000000  3
  10889  10887  10890  10891     1  0.0000000  0.6508444  3
  10889  10887  10890  10898     1  0.0000000  1.0460000  1
  10889  10887  10890  10898     1  0.0000000  0.0000000  3
  10889  10887  10890  10894     1  0.0000000  0.6508444  3
  10889  10887  10899  10902     1  0.0000000  0.6973333  3
  10890  10887  10899  10902     1  0.0000000  1.0460000  1
  10890  10887  10899  10902     1  0.0000000  0.6694400  3
  10890  10891  10892  10895     1  0.0000000  0.6508444  3
  10890  10891  10897  10903     1  0.0000000  1.0460000  1
  10890  10891  10897  10903     1  0.0000000  0.6694400  3
  10891  10890  10898  10901     1  0.0000000  1.0460000  1
  10891  10890  10898  10901     1  0.0000000  0.6694400  3
  10892  10891  10890  10894     1  0.0000000  0.6508444  3
  10892  10891  10897  10903     1  0.0000000  1.0460000  1
  10892  10891  10897  10903     1  0.0000000  0.6694400  3
  10893  10891  10890  10898     1  0.0000000  1.0460000  1
  10893  10891  10890  10898     1  0.0000000  0.0000000  3
  10893  10891  10890  10894     1  0.0000000  0.6508444  3
  10893  10891  10892  10896     1  0.0000000  1.0460000  1
  10893  10891  10892  10896     1  0.0000000  0.0000000  3
  10893  10891  10892  10908     1  0.0000000  1.0460000  1
  10893  10891  10892  10908     1  0.0000000  0.0000000  3
  10893  10891  10892  10895     1  0.0000000  0.6508444  3
  10893  10891  10897  10903     1  0.0000000  0.6973333  3
  10894  10890  10887  10899     1  0.0000000  1.0460000  1
  10894  10890  10887  10899     1  0.0000000  0.0000000  3
  10894  10890  10891  10897     1  0.0000000  1.0460000  1
  10894  10890  10891  10897     1  0.0000000  0.0000000  3
  10894  10890  10898  10901     1  0.0000000  0.6973333  3
  10895  10892  10891  10897     1  0.0000000  0.6508444  3
  10904  10900  10886  10908     1  0.0000000  1.0460000  1
  10904  10900  10886  10908     1  0.0000000  0.0000000  3
  10904  10900  10906  10907     1  0.0000000  0.6973333  3
  10905  10900  10886  10908     1  0.0000000  1.0460000  1
  10905  10900  10886  10908     1  0.0000000  0.0000000  3
  10905  10900  10906  10907     1  0.0000000  0.6973333  3
  10909  10910  10913  10917     1  0.0000000  0.6508444  3
  10909  10910  10922  10925     1  0.0000000  1.0460000  1
  10909  10910  10922  10925     1  0.0000000  0.6694400  3
  10909  10923  10929  10930     1  0.0000000  1.0460000  1
  10909  10923  10929  10930     1  0.0000000  0.6694400  3
  10909  10931  10915  10918     1  0.0000000  1.6038667  3
  10910  10913  10914  10916     1  0.0000000  0.6508444  3
  10910  10913  10921  10924     1  0.0000000  1.0460000  1
  10910  10913  10921  10924     1  0.0000000  0.6694400  3
  10910  10909  10923  10927     1  0.0000000  0.6508444  3
  10910  10909  10923  10928     1  0.0000000  0.6508444  3
  10911  10909  10910  10913     1  0.0000000  0.6508444  3
  10911  10909  10910  10922     1  0.0000000  1.0460000  1
  10911  10909  10910  10922     1  0.0000000  0.0000000  3
  10911  10909  10910  10912     1  0.0000000  0.6508444  3
  10911  10909  10923  10929     1  0.0000000  1.0460000  1
  10911  10909  10923  10929     1  0.0000000  0.0000000  3
  10911  10909  10923  10927     1  0.0000000  0.6508444  3
  10911  10909  10923  10928     1  0.0000000  0.6508444  3
  10911  10909  10931  10915     1  0.0000000  1.6038667  3
  10912  10910  10913  10914     1  0.0000000  0.6508444  3
  10912  10910  10913  10921     1  0.0000000  1.0460000  1
  10912  10910  10913  10921     1  0.0000000  0.0000000  3
  10912  10910  10913  10917     1  0.0000000  0.6508444  3
  10912  10910  10922  10925     1  0.0000000  0.6973333  3
  10912  10910  10909  10923     1  0.0000000  0.6508444  3
  10912  10910  10909  10931     1  0.0000000  1.0460000  1
  10912  10910  10909  10931     1  0.0000000  0.0000000  3
  10913  10914  10915  10918     1  0.0000000  0.6508444  3
  10913  10914  10920  10926     1  0.0000000  1.0460000  1
  10913  10914  10920  10926     1  0.0000000  0.6694400  3
  10913  10910  10922  10925     1  0.0000000  1.0460000  1
  10913  10910  10922  10925     1  0.0000000  0.6694400  3
  10914  10913  10921  10924     1  0.0000000  1.0460000  1
  10914  10913  10921  10924     1  0.0000000  0.6694400  3
  10915  10914  10920  10926     1  0.0000000  1.0460000  1
  10915  10914  10920  10926     1  0.0000000  0.6694400  3
  10915  10914  10913  10917     1  0.0000000  0.6508444  3
  10916  10914  10915  10919     1  0.0000000  1.0460000  1
  10916  10914  10915  10919     1  0.0000000  0.0000000  3
  10916  10914  10915  10931     1  0.0000000  1.0460000  1
  10916  10914  10915  10931     1  0.0000000  0.0000000  3
  10916  10914  10915  10918     1  0.0000000  0.6508444  3
  10916  10914  10920  10926     1  0.0000000  0.6973333  3
  10916  10914  10913  10921     1  0.0000000  1.0460000  1
  10916  10914  10913  10921     1  0.0000000  0.0000000  3
  10916  10914  10913  10917     1  0.0000000  0.6508444  3
  10917  10913  10914  10920     1  0.0000000  1.0460000  1
  10917  10913  10914  10920     1  0.0000000  0.0000000  3
  10917  10913  10921  10924     1  0.0000000  0.6973333  3
  10917  10913  10910  10922     1  0.0000000  1.0460000  1
  10917  10913  10910  10922     1  0.0000000  0.0000000  3
  10918  10915  10914  10920     1  0.0000000  0.6508444  3
  10927  10923  10929  10930     1  0.0000000  0.6973333  3
  10927  10923  10909  10931     1  0.0000000  1.0460000  1
  10927  10923  10909  10931     1  0.0000000  0.0000000  3
  10928  10923  10929  10930     1  0.0000000  0.6973333  3
  10928  10923  10909  10931     1  0.0000000  1.0460000  1
  10928  10923  10909  10931     1  0.0000000  0.0000000  3
  10932  10933  10936  10940     1  0.0000000  0.6508444  3
  10932  10933  10945  10948     1  0.0000000  1.0460000  1
  10932  10933  10945  10948     1  0.0000000  0.6694400  3
  10932  10946  10952  10953     1  0.0000000  1.0460000  1
  10932  10946  10952  10953     1  0.0000000  0.6694400  3
  10932  10954  10938  10941     1  0.0000000  1.6038667  3
  10933  10932  10946  10950     1  0.0000000  0.6508444  3
  10933  10932  10946  10951     1  0.0000000  0.6508444  3
  10933  10936  10937  10939     1  0.0000000  0.6508444  3
  10933  10936  10944  10947     1  0.0000000  1.0460000  1
  10933  10936  10944  10947     1  0.0000000  0.6694400  3
  10934  10932  10933  10936     1  0.0000000  0.6508444  3
  10934  10932  10933  10945     1  0.0000000  1.0460000  1
  10934  10932  10933  10945     1  0.0000000  0.0000000  3
  10934  10932  10933  10935     1  0.0000000  0.6508444  3
  10934  10932  10946  10952     1  0.0000000  1.0460000  1
  10934  10932  10946  10952     1  0.0000000  0.0000000  3
  10934  10932  10946  10950     1  0.0000000  0.6508444  3
  10934  10932  10946  10951     1  0.0000000  0.6508444  3
  10934  10932  10954  10938     1  0.0000000  1.6038667  3
  10935  10933  10932  10946     1  0.0000000  0.6508444  3
  10935  10933  10932  10954     1  0.0000000  1.0460000  1
  10935  10933  10932  10954     1  0.0000000  0.0000000  3
  10935  10933  10936  10937     1  0.0000000  0.6508444  3
  10935  10933  10936  10944     1  0.0000000  1.0460000  1
  10935  10933  10936  10944     1  0.0000000  0.0000000  3
  10935  10933  10936  10940     1  0.0000000  0.6508444  3
  10935  10933  10945  10948     1  0.0000000  0.6973333  3
  10936  10933  10945  10948     1  0.0000000  1.0460000  1
  10936  10933  10945  10948     1  0.0000000  0.6694400  3
  10936  10937  10938  10941     1  0.0000000  0.6508444  3
  10936  10937  10943  10949     1  0.0000000  1.0460000  1
  10936  10937  10943  10949     1  0.0000000  0.6694400  3
  10937  10936  10944  10947     1  0.0000000  1.0460000  1
  10937  10936  10944  10947     1  0.0000000  0.6694400  3
  10938  10937  10936  10940     1  0.0000000  0.6508444  3
  10938  10937  10943  10949     1  0.0000000  1.0460000  1
  10938  10937  10943  10949     1  0.0000000  0.6694400  3
  10939  10937  10936  10944     1  0.0000000  1.0460000  1
  10939  10937  10936  10944     1  0.0000000  0.0000000  3
  10939  10937  10936  10940     1  0.0000000  0.6508444  3
  10939  10937  10938  10942     1  0.0000000  1.0460000  1
  10939  10937  10938  10942     1  0.0000000  0.0000000  3
  10939  10937  10938  10954     1  0.0000000  1.0460000  1
  10939  10937  10938  10954     1  0.0000000  0.0000000  3
  10939  10937  10938  10941     1  0.0000000  0.6508444  3
  10939  10937  10943  10949     1  0.0000000  0.6973333  3
  10940  10936  10933  10945     1  0.0000000  1.0460000  1
  10940  10936  10933  10945     1  0.0000000  0.0000000  3
  10940  10936  10937  10943     1  0.0000000  1.0460000  1
  10940  10936  10937  10943     1  0.0000000  0.0000000  3
  10940  10936  10944  10947     1  0.0000000  0.6973333  3
  10941  10938  10937  10943     1  0.0000000  0.6508444  3
  10950  10946  10932  10954     1  0.0000000  1.0460000  1
  10950  10946  10932  10954     1  0.0000000  0.0000000  3
  10950  10946  10952  10953     1  0.0000000  0.6973333  3
  10951  10946  10932  10954     1  0.0000000  1.0460000  1
  10951  10946  10932  10954     1  0.0000000  0.0000000  3
  10951  10946  10952  10953     1  0.0000000  0.6973333  3
  10955  10956  10959  10963     1  0.0000000  0.6508444  3
  10955  10956  10968  10971     1  0.0000000  1.0460000  1
  10955  10956  10968  10971     1  0.0000000  0.6694400  3
  10955  10969  10975  10976     1  0.0000000  1.0460000  1
  10955  10969  10975  10976     1  0.0000000  0.6694400  3
  10955  10977  10961  10964     1  0.0000000  1.6038667  3
  10956  10959  10960  10962     1  0.0000000  0.6508444  3
  10956  10959  10967  10970     1  0.0000000  1.0460000  1
  10956  10959  10967  10970     1  0.0000000  0.6694400  3
  10956  10955  10969  10973     1  0.0000000  0.6508444  3
  10956  10955  10969  10974     1  0.0000000  0.6508444  3
  10957  10955  10956  10959     1  0.0000000  0.6508444  3
  10957  10955  10956  10968     1  0.0000000  1.0460000  1
  10957  10955  10956  10968     1  0.0000000  0.0000000  3
  10957  10955  10956  10958     1  0.0000000  0.6508444  3
  10957  10955  10969  10975     1  0.0000000  1.0460000  1
  10957  10955  10969  10975     1  0.0000000  0.0000000  3
  10957  10955  10969  10973     1  0.0000000  0.6508444  3
  10957  10955  10969  10974     1  0.0000000  0.6508444  3
  10957  10955  10977  10961     1  0.0000000  1.6038667  3
  10958  10956  10959  10960     1  0.0000000  0.6508444  3
  10958  10956  10959  10967     1  0.0000000  1.0460000  1
  10958  10956  10959  10967     1  0.0000000  0.0000000  3
  10958  10956  10959  10963     1  0.0000000  0.6508444  3
  10958  10956  10968  10971     1  0.0000000  0.6973333  3
  10958  10956  10955  10969     1  0.0000000  0.6508444  3
  10958  10956  10955  10977     1  0.0000000  1.0460000  1
  10958  10956  10955  10977     1  0.0000000  0.0000000  3
  10959  10960  10961  10964     1  0.0000000  0.6508444  3
  10959  10960  10966  10972     1  0.0000000  1.0460000  1
  10959  10960  10966  10972     1  0.0000000  0.6694400  3
  10959  10956  10968  10971     1  0.0000000  1.0460000  1
  10959  10956  10968  10971     1  0.0000000  0.6694400  3
  10960  10959  10967  10970     1  0.0000000  1.0460000  1
  10960  10959  10967  10970     1  0.0000000  0.6694400  3
  10961  10960  10966  10972     1  0.0000000  1.0460000  1
  10961  10960  10966  10972     1  0.0000000  0.6694400  3
  10961  10960  10959  10963     1  0.0000000  0.6508444  3
  10962  10960  10961  10965     1  0.0000000  1.0460000  1
  10962  10960  10961  10965     1  0.0000000  0.0000000  3
  10962  10960  10961  10977     1  0.0000000  1.0460000  1
  10962  10960  10961  10977     1  0.0000000  0.0000000  3
  10962  10960  10961  10964     1  0.0000000  0.6508444  3
  10962  10960  10966  10972     1  0.0000000  0.6973333  3
  10962  10960  10959  10967     1  0.0000000  1.0460000  1
  10962  10960  10959  10967     1  0.0000000  0.0000000  3
  10962  10960  10959  10963     1  0.0000000  0.6508444  3
  10963  10959  10960  10966     1  0.0000000  1.0460000  1
  10963  10959  10960  10966     1  0.0000000  0.0000000  3
  10963  10959  10967  10970     1  0.0000000  0.6973333  3
  10963  10959  10956  10968     1  0.0000000  1.0460000  1
  10963  10959  10956  10968     1  0.0000000  0.0000000  3
  10964  10961  10960  10966     1  0.0000000  0.6508444  3
  10973  10969  10975  10976     1  0.0000000  0.6973333  3
  10973  10969  10955  10977     1  0.0000000  1.0460000  1
  10973  10969  10955  10977     1  0.0000000  0.0000000  3
  10974  10969  10975  10976     1  0.0000000  0.6973333  3
  10974  10969  10955  10977     1  0.0000000  1.0460000  1
  10974  10969  10955  10977     1  0.0000000  0.0000000  3
  10978  10979  10982  10986     1  0.0000000  0.6508444  3
  10978  10979  10991  10994     1  0.0000000  1.0460000  1
  10978  10979  10991  10994     1  0.0000000  0.6694400  3
  10978  10992  10998  10999     1  0.0000000  1.0460000  1
  10978  10992  10998  10999     1  0.0000000  0.6694400  3
  10978  11000  10984  10987     1  0.0000000  1.6038667  3
  10979  10978  10992  10996     1  0.0000000  0.6508444  3
  10979  10978  10992  10997     1  0.0000000  0.6508444  3
  10979  10982  10983  10985     1  0.0000000  0.6508444  3
  10979  10982  10990  10993     1  0.0000000  1.0460000  1
  10979  10982  10990  10993     1  0.0000000  0.6694400  3
  10980  10978  10979  10982     1  0.0000000  0.6508444  3
  10980  10978  10979  10991     1  0.0000000  1.0460000  1
  10980  10978  10979  10991     1  0.0000000  0.0000000  3
  10980  10978  10979  10981     1  0.0000000  0.6508444  3
  10980  10978  10992  10998     1  0.0000000  1.0460000  1
  10980  10978  10992  10998     1  0.0000000  0.0000000  3
  10980  10978  10992  10996     1  0.0000000  0.6508444  3
  10980  10978  10992  10997     1  0.0000000  0.6508444  3
  10980  10978  11000  10984     1  0.0000000  1.6038667  3
  10981  10979  10978  10992     1  0.0000000  0.6508444  3
  10981  10979  10978  11000     1  0.0000000  1.0460000  1
  10981  10979  10978  11000     1  0.0000000  0.0000000  3
  10981  10979  10982  10983     1  0.0000000  0.6508444  3
  10981  10979  10982  10990     1  0.0000000  1.0460000  1
  10981  10979  10982  10990     1  0.0000000  0.0000000  3
  10981  10979  10982  10986     1  0.0000000  0.6508444  3
  10981  10979  10991  10994     1  0.0000000  0.6973333  3
  10982  10979  10991  10994     1  0.0000000  1.0460000  1
  10982  10979  10991  10994     1  0.0000000  0.6694400  3
  10982  10983  10984  10987     1  0.0000000  0.6508444  3
  10982  10983  10989  10995     1  0.0000000  1.0460000  1
  10982  10983  10989  10995     1  0.0000000  0.6694400  3
  10983  10982  10990  10993     1  0.0000000  1.0460000  1
  10983  10982  10990  10993     1  0.0000000  0.6694400  3
  10984  10983  10982  10986     1  0.0000000  0.6508444  3
  10984  10983  10989  10995     1  0.0000000  1.0460000  1
  10984  10983  10989  10995     1  0.0000000  0.6694400  3
  10985  10983  10982  10990     1  0.0000000  1.0460000  1
  10985  10983  10982  10990     1  0.0000000  0.0000000  3
  10985  10983  10982  10986     1  0.0000000  0.6508444  3
  10985  10983  10984  10988     1  0.0000000  1.0460000  1
  10985  10983  10984  10988     1  0.0000000  0.0000000  3
  10985  10983  10984  11000     1  0.0000000  1.0460000  1
  10985  10983  10984  11000     1  0.0000000  0.0000000  3
  10985  10983  10984  10987     1  0.0000000  0.6508444  3
  10985  10983  10989  10995     1  0.0000000  0.6973333  3
  10986  10982  10979  10991     1  0.0000000  1.0460000  1
  10986  10982  10979  10991     1  0.0000000  0.0000000  3
  10986  10982  10983  10989     1  0.0000000  1.0460000  1
  10986  10982  10983  10989     1  0.0000000  0.0000000  3
  10986  10982  10990  10993     1  0.0000000  0.6973333  3
  10987  10984  10983  10989     1  0.0000000  0.6508444  3
  10996  10992  10978  11000     1  0.0000000  1.0460000  1
  10996  10992  10978  11000     1  0.0000000  0.0000000  3
  10996  10992  10998  10999     1  0.0000000  0.6973333  3
  10997  10992  10978  11000     1  0.0000000  1.0460000  1
  10997  10992  10978  11000     1  0.0000000  0.0000000  3
  10997  10992  10998  10999     1  0.0000000  0.6973333  3
  11001  11002  11005  11009     1  0.0000000  0.6508444  3
  11001  11002  11014  11017     1  0.0000000  1.0460000  1
  11001  11002  11014  11017     1  0.0000000  0.6694400  3
  11001  11015  11021  11022     1  0.0000000  1.0460000  1
  11001  11015  11021  11022     1  0.0000000  0.6694400  3
  11001  11023  11007  11010     1  0.0000000  1.6038667  3
  11002  11005  11006  11008     1  0.0000000  0.6508444  3
  11002  11005  11013  11016     1  0.0000000  1.0460000  1
  11002  11005  11013  11016     1  0.0000000  0.6694400  3
  11002  11001  11015  11019     1  0.0000000  0.6508444  3
  11002  11001  11015  11020     1  0.0000000  0.6508444  3
  11003  11001  11002  11005     1  0.0000000  0.6508444  3
  11003  11001  11002  11014     1  0.0000000  1.0460000  1
  11003  11001  11002  11014     1  0.0000000  0.0000000  3
  11003  11001  11002  11004     1  0.0000000  0.6508444  3
  11003  11001  11015  11021     1  0.0000000  1.0460000  1
  11003  11001  11015  11021     1  0.0000000  0.0000000  3
  11003  11001  11015  11019     1  0.0000000  0.6508444  3
  11003  11001  11015  11020     1  0.0000000  0.6508444  3
  11003  11001  11023  11007     1  0.0000000  1.6038667  3
  11004  11002  11005  11006     1  0.0000000  0.6508444  3
  11004  11002  11005  11013     1  0.0000000  1.0460000  1
  11004  11002  11005  11013     1  0.0000000  0.0000000  3
  11004  11002  11005  11009     1  0.0000000  0.6508444  3
  11004  11002  11014  11017     1  0.0000000  0.6973333  3
  11004  11002  11001  11015     1  0.0000000  0.6508444  3
  11004  11002  11001  11023     1  0.0000000  1.0460000  1
  11004  11002  11001  11023     1  0.0000000  0.0000000  3
  11005  11006  11007  11010     1  0.0000000  0.6508444  3
  11005  11006  11012  11018     1  0.0000000  1.0460000  1
  11005  11006  11012  11018     1  0.0000000  0.6694400  3
  11005  11002  11014  11017     1  0.0000000  1.0460000  1
  11005  11002  11014  11017     1  0.0000000  0.6694400  3
  11006  11005  11013  11016     1  0.0000000  1.0460000  1
  11006  11005  11013  11016     1  0.0000000  0.6694400  3
  11007  11006  11012  11018     1  0.0000000  1.0460000  1
  11007  11006  11012  11018     1  0.0000000  0.6694400  3
  11007  11006  11005  11009     1  0.0000000  0.6508444  3
  11008  11006  11007  11011     1  0.0000000  1.0460000  1
  11008  11006  11007  11011     1  0.0000000  0.0000000  3
  11008  11006  11007  11023     1  0.0000000  1.0460000  1
  11008  11006  11007  11023     1  0.0000000  0.0000000  3
  11008  11006  11007  11010     1  0.0000000  0.6508444  3
  11008  11006  11012  11018     1  0.0000000  0.6973333  3
  11008  11006  11005  11013     1  0.0000000  1.0460000  1
  11008  11006  11005  11013     1  0.0000000  0.0000000  3
  11008  11006  11005  11009     1  0.0000000  0.6508444  3
  11009  11005  11006  11012     1  0.0000000  1.0460000  1
  11009  11005  11006  11012     1  0.0000000  0.0000000  3
  11009  11005  11013  11016     1  0.0000000  0.6973333  3
  11009  11005  11002  11014     1  0.0000000  1.0460000  1
  11009  11005  11002  11014     1  0.0000000  0.0000000  3
  11010  11007  11006  11012     1  0.0000000  0.6508444  3
  11019  11015  11021  11022     1  0.0000000  0.6973333  3
  11019  11015  11001  11023     1  0.0000000  1.0460000  1
  11019  11015  11001  11023     1  0.0000000  0.0000000  3
  11020  11015  11021  11022     1  0.0000000  0.6973333  3
  11020  11015  11001  11023     1  0.0000000  1.0460000  1
  11020  11015  11001  11023     1  0.0000000  0.0000000  3
  11024  11025  11028  11032     1  0.0000000  0.6508444  3
  11024  11025  11037  11040     1  0.0000000  1.0460000  1
  11024  11025  11037  11040     1  0.0000000  0.6694400  3
  11024  11038  11044  11045     1  0.0000000  1.0460000  1
  11024  11038  11044  11045     1  0.0000000  0.6694400  3
  11024  11046  11030  11033     1  0.0000000  1.6038667  3
  11025  11024  11038  11042     1  0.0000000  0.6508444  3
  11025  11024  11038  11043     1  0.0000000  0.6508444  3
  11025  11028  11029  11031     1  0.0000000  0.6508444  3
  11025  11028  11036  11039     1  0.0000000  1.0460000  1
  11025  11028  11036  11039     1  0.0000000  0.6694400  3
  11026  11024  11025  11028     1  0.0000000  0.6508444  3
  11026  11024  11025  11037     1  0.0000000  1.0460000  1
  11026  11024  11025  11037     1  0.0000000  0.0000000  3
  11026  11024  11025  11027     1  0.0000000  0.6508444  3
  11026  11024  11038  11044     1  0.0000000  1.0460000  1
  11026  11024  11038  11044     1  0.0000000  0.0000000  3
  11026  11024  11038  11042     1  0.0000000  0.6508444  3
  11026  11024  11038  11043     1  0.0000000  0.6508444  3
  11026  11024  11046  11030     1  0.0000000  1.6038667  3
  11027  11025  11024  11038     1  0.0000000  0.6508444  3
  11027  11025  11024  11046     1  0.0000000  1.0460000  1
  11027  11025  11024  11046     1  0.0000000  0.0000000  3
  11027  11025  11028  11029     1  0.0000000  0.6508444  3
  11027  11025  11028  11036     1  0.0000000  1.0460000  1
  11027  11025  11028  11036     1  0.0000000  0.0000000  3
  11027  11025  11028  11032     1  0.0000000  0.6508444  3
  11027  11025  11037  11040     1  0.0000000  0.6973333  3
  11028  11025  11037  11040     1  0.0000000  1.0460000  1
  11028  11025  11037  11040     1  0.0000000  0.6694400  3
  11028  11029  11030  11033     1  0.0000000  0.6508444  3
  11028  11029  11035  11041     1  0.0000000  1.0460000  1
  11028  11029  11035  11041     1  0.0000000  0.6694400  3
  11029  11028  11036  11039     1  0.0000000  1.0460000  1
  11029  11028  11036  11039     1  0.0000000  0.6694400  3
  11030  11029  11028  11032     1  0.0000000  0.6508444  3
  11030  11029  11035  11041     1  0.0000000  1.0460000  1
  11030  11029  11035  11041     1  0.0000000  0.6694400  3
  11031  11029  11028  11036     1  0.0000000  1.0460000  1
  11031  11029  11028  11036     1  0.0000000  0.0000000  3
  11031  11029  11028  11032     1  0.0000000  0.6508444  3
  11031  11029  11030  11034     1  0.0000000  1.0460000  1
  11031  11029  11030  11034     1  0.0000000  0.0000000  3
  11031  11029  11030  11046     1  0.0000000  1.0460000  1
  11031  11029  11030  11046     1  0.0000000  0.0000000  3
  11031  11029  11030  11033     1  0.0000000  0.6508444  3
  11031  11029  11035  11041     1  0.0000000  0.6973333  3
  11032  11028  11025  11037     1  0.0000000  1.0460000  1
  11032  11028  11025  11037     1  0.0000000  0.0000000  3
  11032  11028  11029  11035     1  0.0000000  1.0460000  1
  11032  11028  11029  11035     1  0.0000000  0.0000000  3
  11032  11028  11036  11039     1  0.0000000  0.6973333  3
  11033  11030  11029  11035     1  0.0000000  0.6508444  3
  11042  11038  11024  11046     1  0.0000000  1.0460000  1
  11042  11038  11024  11046     1  0.0000000  0.0000000  3
  11042  11038  11044  11045     1  0.0000000  0.6973333  3
  11043  11038  11024  11046     1  0.0000000  1.0460000  1
  11043  11038  11024  11046     1  0.0000000  0.0000000  3
  11043  11038  11044  11045     1  0.0000000  0.6973333  3
  11047  11048  11051  11055     1  0.0000000  0.6508444  3
  11047  11048  11060  11063     1  0.0000000  1.0460000  1
  11047  11048  11060  11063     1  0.0000000  0.6694400  3
  11047  11061  11067  11068     1  0.0000000  1.0460000  1
  11047  11061  11067  11068     1  0.0000000  0.6694400  3
  11047  11069  11053  11056     1  0.0000000  1.6038667  3
  11048  11051  11052  11054     1  0.0000000  0.6508444  3
  11048  11051  11059  11062     1  0.0000000  1.0460000  1
  11048  11051  11059  11062     1  0.0000000  0.6694400  3
  11048  11047  11061  11065     1  0.0000000  0.6508444  3
  11048  11047  11061  11066     1  0.0000000  0.6508444  3
  11049  11047  11048  11051     1  0.0000000  0.6508444  3
  11049  11047  11048  11060     1  0.0000000  1.0460000  1
  11049  11047  11048  11060     1  0.0000000  0.0000000  3
  11049  11047  11048  11050     1  0.0000000  0.6508444  3
  11049  11047  11061  11067     1  0.0000000  1.0460000  1
  11049  11047  11061  11067     1  0.0000000  0.0000000  3
  11049  11047  11061  11065     1  0.0000000  0.6508444  3
  11049  11047  11061  11066     1  0.0000000  0.6508444  3
  11049  11047  11069  11053     1  0.0000000  1.6038667  3
  11050  11048  11051  11052     1  0.0000000  0.6508444  3
  11050  11048  11051  11059     1  0.0000000  1.0460000  1
  11050  11048  11051  11059     1  0.0000000  0.0000000  3
  11050  11048  11051  11055     1  0.0000000  0.6508444  3
  11050  11048  11060  11063     1  0.0000000  0.6973333  3
  11050  11048  11047  11061     1  0.0000000  0.6508444  3
  11050  11048  11047  11069     1  0.0000000  1.0460000  1
  11050  11048  11047  11069     1  0.0000000  0.0000000  3
  11051  11052  11053  11056     1  0.0000000  0.6508444  3
  11051  11052  11058  11064     1  0.0000000  1.0460000  1
  11051  11052  11058  11064     1  0.0000000  0.6694400  3
  11051  11048  11060  11063     1  0.0000000  1.0460000  1
  11051  11048  11060  11063     1  0.0000000  0.6694400  3
  11052  11051  11059  11062     1  0.0000000  1.0460000  1
  11052  11051  11059  11062     1  0.0000000  0.6694400  3
  11053  11052  11058  11064     1  0.0000000  1.0460000  1
  11053  11052  11058  11064     1  0.0000000  0.6694400  3
  11053  11052  11051  11055     1  0.0000000  0.6508444  3
  11054  11052  11053  11057     1  0.0000000  1.0460000  1
  11054  11052  11053  11057     1  0.0000000  0.0000000  3
  11054  11052  11053  11069     1  0.0000000  1.0460000  1
  11054  11052  11053  11069     1  0.0000000  0.0000000  3
  11054  11052  11053  11056     1  0.0000000  0.6508444  3
  11054  11052  11058  11064     1  0.0000000  0.6973333  3
  11054  11052  11051  11059     1  0.0000000  1.0460000  1
  11054  11052  11051  11059     1  0.0000000  0.0000000  3
  11054  11052  11051  11055     1  0.0000000  0.6508444  3
  11055  11051  11052  11058     1  0.0000000  1.0460000  1
  11055  11051  11052  11058     1  0.0000000  0.0000000  3
  11055  11051  11059  11062     1  0.0000000  0.6973333  3
  11055  11051  11048  11060     1  0.0000000  1.0460000  1
  11055  11051  11048  11060     1  0.0000000  0.0000000  3
  11056  11053  11052  11058     1  0.0000000  0.6508444  3
  11065  11061  11067  11068     1  0.0000000  0.6973333  3
  11065  11061  11047  11069     1  0.0000000  1.0460000  1
  11065  11061  11047  11069     1  0.0000000  0.0000000  3
  11066  11061  11067  11068     1  0.0000000  0.6973333  3
  11066  11061  11047  11069     1  0.0000000  1.0460000  1
  11066  11061  11047  11069     1  0.0000000  0.0000000  3
  11070  11071  11074  11078     1  0.0000000  0.6508444  3
  11070  11071  11083  11086     1  0.0000000  1.0460000  1
  11070  11071  11083  11086     1  0.0000000  0.6694400  3
  11070  11084  11090  11091     1  0.0000000  1.0460000  1
  11070  11084  11090  11091     1  0.0000000  0.6694400  3
  11070  11092  11076  11079     1  0.0000000  1.6038667  3
  11071  11070  11084  11088     1  0.0000000  0.6508444  3
  11071  11070  11084  11089     1  0.0000000  0.6508444  3
  11071  11074  11075  11077     1  0.0000000  0.6508444  3
  11071  11074  11082  11085     1  0.0000000  1.0460000  1
  11071  11074  11082  11085     1  0.0000000  0.6694400  3
  11072  11070  11071  11074     1  0.0000000  0.6508444  3
  11072  11070  11071  11083     1  0.0000000  1.0460000  1
  11072  11070  11071  11083     1  0.0000000  0.0000000  3
  11072  11070  11071  11073     1  0.0000000  0.6508444  3
  11072  11070  11084  11090     1  0.0000000  1.0460000  1
  11072  11070  11084  11090     1  0.0000000  0.0000000  3
  11072  11070  11084  11088     1  0.0000000  0.6508444  3
  11072  11070  11084  11089     1  0.0000000  0.6508444  3
  11072  11070  11092  11076     1  0.0000000  1.6038667  3
  11073  11071  11070  11084     1  0.0000000  0.6508444  3
  11073  11071  11070  11092     1  0.0000000  1.0460000  1
  11073  11071  11070  11092     1  0.0000000  0.0000000  3
  11073  11071  11074  11075     1  0.0000000  0.6508444  3
  11073  11071  11074  11082     1  0.0000000  1.0460000  1
  11073  11071  11074  11082     1  0.0000000  0.0000000  3
  11073  11071  11074  11078     1  0.0000000  0.6508444  3
  11073  11071  11083  11086     1  0.0000000  0.6973333  3
  11074  11071  11083  11086     1  0.0000000  1.0460000  1
  11074  11071  11083  11086     1  0.0000000  0.6694400  3
  11074  11075  11076  11079     1  0.0000000  0.6508444  3
  11074  11075  11081  11087     1  0.0000000  1.0460000  1
  11074  11075  11081  11087     1  0.0000000  0.6694400  3
  11075  11074  11082  11085     1  0.0000000  1.0460000  1
  11075  11074  11082  11085     1  0.0000000  0.6694400  3
  11076  11075  11074  11078     1  0.0000000  0.6508444  3
  11076  11075  11081  11087     1  0.0000000  1.0460000  1
  11076  11075  11081  11087     1  0.0000000  0.6694400  3
  11077  11075  11074  11082     1  0.0000000  1.0460000  1
  11077  11075  11074  11082     1  0.0000000  0.0000000  3
  11077  11075  11074  11078     1  0.0000000  0.6508444  3
  11077  11075  11076  11080     1  0.0000000  1.0460000  1
  11077  11075  11076  11080     1  0.0000000  0.0000000  3
  11077  11075  11076  11092     1  0.0000000  1.0460000  1
  11077  11075  11076  11092     1  0.0000000  0.0000000  3
  11077  11075  11076  11079     1  0.0000000  0.6508444  3
  11077  11075  11081  11087     1  0.0000000  0.6973333  3
  11078  11074  11071  11083     1  0.0000000  1.0460000  1
  11078  11074  11071  11083     1  0.0000000  0.0000000  3
  11078  11074  11075  11081     1  0.0000000  1.0460000  1
  11078  11074  11075  11081     1  0.0000000  0.0000000  3
  11078  11074  11082  11085     1  0.0000000  0.6973333  3
  11079  11076  11075  11081     1  0.0000000  0.6508444  3
  11088  11084  11070  11092     1  0.0000000  1.0460000  1
  11088  11084  11070  11092     1  0.0000000  0.0000000  3
  11088  11084  11090  11091     1  0.0000000  0.6973333  3
  11089  11084  11070  11092     1  0.0000000  1.0460000  1
  11089  11084  11070  11092     1  0.0000000  0.0000000  3
  11089  11084  11090  11091     1  0.0000000  0.6973333  3
  11093  11094  11097  11101     1  0.0000000  0.6508444  3
  11093  11094  11106  11109     1  0.0000000  1.0460000  1
  11093  11094  11106  11109     1  0.0000000  0.6694400  3
  11093  11107  11113  11114     1  0.0000000  1.0460000  1
  11093  11107  11113  11114     1  0.0000000  0.6694400  3
  11093  11115  11099  11102     1  0.0000000  1.6038667  3
  11094  11097  11098  11100     1  0.0000000  0.6508444  3
  11094  11097  11105  11108     1  0.0000000  1.0460000  1
  11094  11097  11105  11108     1  0.0000000  0.6694400  3
  11094  11093  11107  11111     1  0.0000000  0.6508444  3
  11094  11093  11107  11112     1  0.0000000  0.6508444  3
  11095  11093  11094  11097     1  0.0000000  0.6508444  3
  11095  11093  11094  11106     1  0.0000000  1.0460000  1
  11095  11093  11094  11106     1  0.0000000  0.0000000  3
  11095  11093  11094  11096     1  0.0000000  0.6508444  3
  11095  11093  11107  11113     1  0.0000000  1.0460000  1
  11095  11093  11107  11113     1  0.0000000  0.0000000  3
  11095  11093  11107  11111     1  0.0000000  0.6508444  3
  11095  11093  11107  11112     1  0.0000000  0.6508444  3
  11095  11093  11115  11099     1  0.0000000  1.6038667  3
  11096  11094  11097  11098     1  0.0000000  0.6508444  3
  11096  11094  11097  11105     1  0.0000000  1.0460000  1
  11096  11094  11097  11105     1  0.0000000  0.0000000  3
  11096  11094  11097  11101     1  0.0000000  0.6508444  3
  11096  11094  11106  11109     1  0.0000000  0.6973333  3
  11096  11094  11093  11107     1  0.0000000  0.6508444  3
  11096  11094  11093  11115     1  0.0000000  1.0460000  1
  11096  11094  11093  11115     1  0.0000000  0.0000000  3
  11097  11098  11099  11102     1  0.0000000  0.6508444  3
  11097  11098  11104  11110     1  0.0000000  1.0460000  1
  11097  11098  11104  11110     1  0.0000000  0.6694400  3
  11097  11094  11106  11109     1  0.0000000  1.0460000  1
  11097  11094  11106  11109     1  0.0000000  0.6694400  3
  11098  11097  11105  11108     1  0.0000000  1.0460000  1
  11098  11097  11105  11108     1  0.0000000  0.6694400  3
  11099  11098  11104  11110     1  0.0000000  1.0460000  1
  11099  11098  11104  11110     1  0.0000000  0.6694400  3
  11099  11098  11097  11101     1  0.0000000  0.6508444  3
  11100  11098  11099  11103     1  0.0000000  1.0460000  1
  11100  11098  11099  11103     1  0.0000000  0.0000000  3
  11100  11098  11099  11115     1  0.0000000  1.0460000  1
  11100  11098  11099  11115     1  0.0000000  0.0000000  3
  11100  11098  11099  11102     1  0.0000000  0.6508444  3
  11100  11098  11104  11110     1  0.0000000  0.6973333  3
  11100  11098  11097  11105     1  0.0000000  1.0460000  1
  11100  11098  11097  11105     1  0.0000000  0.0000000  3
  11100  11098  11097  11101     1  0.0000000  0.6508444  3
  11101  11097  11098  11104     1  0.0000000  1.0460000  1
  11101  11097  11098  11104     1  0.0000000  0.0000000  3
  11101  11097  11105  11108     1  0.0000000  0.6973333  3
  11101  11097  11094  11106     1  0.0000000  1.0460000  1
  11101  11097  11094  11106     1  0.0000000  0.0000000  3
  11102  11099  11098  11104     1  0.0000000  0.6508444  3
  11111  11107  11113  11114     1  0.0000000  0.6973333  3
  11111  11107  11093  11115     1  0.0000000  1.0460000  1
  11111  11107  11093  11115     1  0.0000000  0.0000000  3
  11112  11107  11113  11114     1  0.0000000  0.6973333  3
  11112  11107  11093  11115     1  0.0000000  1.0460000  1
  11112  11107  11093  11115     1  0.0000000  0.0000000  3
  11116  11117  11120  11124     1  0.0000000  0.6508444  3
  11116  11117  11129  11132     1  0.0000000  1.0460000  1
  11116  11117  11129  11132     1  0.0000000  0.6694400  3
  11116  11130  11136  11137     1  0.0000000  1.0460000  1
  11116  11130  11136  11137     1  0.0000000  0.6694400  3
  11116  11138  11122  11125     1  0.0000000  1.6038667  3
  11117  11116  11130  11134     1  0.0000000  0.6508444  3
  11117  11116  11130  11135     1  0.0000000  0.6508444  3
  11117  11120  11121  11123     1  0.0000000  0.6508444  3
  11117  11120  11128  11131     1  0.0000000  1.0460000  1
  11117  11120  11128  11131     1  0.0000000  0.6694400  3
  11118  11116  11117  11120     1  0.0000000  0.6508444  3
  11118  11116  11117  11129     1  0.0000000  1.0460000  1
  11118  11116  11117  11129     1  0.0000000  0.0000000  3
  11118  11116  11117  11119     1  0.0000000  0.6508444  3
  11118  11116  11130  11136     1  0.0000000  1.0460000  1
  11118  11116  11130  11136     1  0.0000000  0.0000000  3
  11118  11116  11130  11134     1  0.0000000  0.6508444  3
  11118  11116  11130  11135     1  0.0000000  0.6508444  3
  11118  11116  11138  11122     1  0.0000000  1.6038667  3
  11119  11117  11116  11130     1  0.0000000  0.6508444  3
  11119  11117  11116  11138     1  0.0000000  1.0460000  1
  11119  11117  11116  11138     1  0.0000000  0.0000000  3
  11119  11117  11120  11121     1  0.0000000  0.6508444  3
  11119  11117  11120  11128     1  0.0000000  1.0460000  1
  11119  11117  11120  11128     1  0.0000000  0.0000000  3
  11119  11117  11120  11124     1  0.0000000  0.6508444  3
  11119  11117  11129  11132     1  0.0000000  0.6973333  3
  11120  11117  11129  11132     1  0.0000000  1.0460000  1
  11120  11117  11129  11132     1  0.0000000  0.6694400  3
  11120  11121  11122  11125     1  0.0000000  0.6508444  3
  11120  11121  11127  11133     1  0.0000000  1.0460000  1
  11120  11121  11127  11133     1  0.0000000  0.6694400  3
  11121  11120  11128  11131     1  0.0000000  1.0460000  1
  11121  11120  11128  11131     1  0.0000000  0.6694400  3
  11122  11121  11120  11124     1  0.0000000  0.6508444  3
  11122  11121  11127  11133     1  0.0000000  1.0460000  1
  11122  11121  11127  11133     1  0.0000000  0.6694400  3
  11123  11121  11120  11128     1  0.0000000  1.0460000  1
  11123  11121  11120  11128     1  0.0000000  0.0000000  3
  11123  11121  11120  11124     1  0.0000000  0.6508444  3
  11123  11121  11122  11126     1  0.0000000  1.0460000  1
  11123  11121  11122  11126     1  0.0000000  0.0000000  3
  11123  11121  11122  11138     1  0.0000000  1.0460000  1
  11123  11121  11122  11138     1  0.0000000  0.0000000  3
  11123  11121  11122  11125     1  0.0000000  0.6508444  3
  11123  11121  11127  11133     1  0.0000000  0.6973333  3
  11124  11120  11117  11129     1  0.0000000  1.0460000  1
  11124  11120  11117  11129     1  0.0000000  0.0000000  3
  11124  11120  11121  11127     1  0.0000000  1.0460000  1
  11124  11120  11121  11127     1  0.0000000  0.0000000  3
  11124  11120  11128  11131     1  0.0000000  0.6973333  3
  11125  11122  11121  11127     1  0.0000000  0.6508444  3
  11134  11130  11116  11138     1  0.0000000  1.0460000  1
  11134  11130  11116  11138     1  0.0000000  0.0000000  3
  11134  11130  11136  11137     1  0.0000000  0.6973333  3
  11135  11130  11116  11138     1  0.0000000  1.0460000  1
  11135  11130  11116  11138     1  0.0000000  0.0000000  3
  11135  11130  11136  11137     1  0.0000000  0.6973333  3
  11139  11140  11143  11147     1  0.0000000  0.6508444  3
  11139  11140  11152  11155     1  0.0000000  1.0460000  1
  11139  11140  11152  11155     1  0.0000000  0.6694400  3
  11139  11153  11159  11160     1  0.0000000  1.0460000  1
  11139  11153  11159  11160     1  0.0000000  0.6694400  3
  11139  11161  11145  11148     1  0.0000000  1.6038667  3
  11140  11143  11144  11146     1  0.0000000  0.6508444  3
  11140  11143  11151  11154     1  0.0000000  1.0460000  1
  11140  11143  11151  11154     1  0.0000000  0.6694400  3
  11140  11139  11153  11157     1  0.0000000  0.6508444  3
  11140  11139  11153  11158     1  0.0000000  0.6508444  3
  11141  11139  11140  11143     1  0.0000000  0.6508444  3
  11141  11139  11140  11152     1  0.0000000  1.0460000  1
  11141  11139  11140  11152     1  0.0000000  0.0000000  3
  11141  11139  11140  11142     1  0.0000000  0.6508444  3
  11141  11139  11153  11159     1  0.0000000  1.0460000  1
  11141  11139  11153  11159     1  0.0000000  0.0000000  3
  11141  11139  11153  11157     1  0.0000000  0.6508444  3
  11141  11139  11153  11158     1  0.0000000  0.6508444  3
  11141  11139  11161  11145     1  0.0000000  1.6038667  3
  11142  11140  11143  11144     1  0.0000000  0.6508444  3
  11142  11140  11143  11151     1  0.0000000  1.0460000  1
  11142  11140  11143  11151     1  0.0000000  0.0000000  3
  11142  11140  11143  11147     1  0.0000000  0.6508444  3
  11142  11140  11152  11155     1  0.0000000  0.6973333  3
  11142  11140  11139  11153     1  0.0000000  0.6508444  3
  11142  11140  11139  11161     1  0.0000000  1.0460000  1
  11142  11140  11139  11161     1  0.0000000  0.0000000  3
  11143  11144  11145  11148     1  0.0000000  0.6508444  3
  11143  11144  11150  11156     1  0.0000000  1.0460000  1
  11143  11144  11150  11156     1  0.0000000  0.6694400  3
  11143  11140  11152  11155     1  0.0000000  1.0460000  1
  11143  11140  11152  11155     1  0.0000000  0.6694400  3
  11144  11143  11151  11154     1  0.0000000  1.0460000  1
  11144  11143  11151  11154     1  0.0000000  0.6694400  3
  11145  11144  11150  11156     1  0.0000000  1.0460000  1
  11145  11144  11150  11156     1  0.0000000  0.6694400  3
  11145  11144  11143  11147     1  0.0000000  0.6508444  3
  11146  11144  11145  11149     1  0.0000000  1.0460000  1
  11146  11144  11145  11149     1  0.0000000  0.0000000  3
  11146  11144  11145  11161     1  0.0000000  1.0460000  1
  11146  11144  11145  11161     1  0.0000000  0.0000000  3
  11146  11144  11145  11148     1  0.0000000  0.6508444  3
  11146  11144  11150  11156     1  0.0000000  0.6973333  3
  11146  11144  11143  11151     1  0.0000000  1.0460000  1
  11146  11144  11143  11151     1  0.0000000  0.0000000  3
  11146  11144  11143  11147     1  0.0000000  0.6508444  3
  11147  11143  11144  11150     1  0.0000000  1.0460000  1
  11147  11143  11144  11150     1  0.0000000  0.0000000  3
  11147  11143  11151  11154     1  0.0000000  0.6973333  3
  11147  11143  11140  11152     1  0.0000000  1.0460000  1
  11147  11143  11140  11152     1  0.0000000  0.0000000  3
  11148  11145  11144  11150     1  0.0000000  0.6508444  3
  11157  11153  11159  11160     1  0.0000000  0.6973333  3
  11157  11153  11139  11161     1  0.0000000  1.0460000  1
  11157  11153  11139  11161     1  0.0000000  0.0000000  3
  11158  11153  11159  11160     1  0.0000000  0.6973333  3
  11158  11153  11139  11161     1  0.0000000  1.0460000  1
  11158  11153  11139  11161     1  0.0000000  0.0000000  3
  11162  11163  11166  11170     1  0.0000000  0.6508444  3
  11162  11163  11175  11178     1  0.0000000  1.0460000  1
  11162  11163  11175  11178     1  0.0000000  0.6694400  3
  11162  11176  11182  11183     1  0.0000000  1.0460000  1
  11162  11176  11182  11183     1  0.0000000  0.6694400  3
  11162  11184  11168  11171     1  0.0000000  1.6038667  3
  11163  11162  11176  11180     1  0.0000000  0.6508444  3
  11163  11162  11176  11181     1  0.0000000  0.6508444  3
  11163  11166  11167  11169     1  0.0000000  0.6508444  3
  11163  11166  11174  11177     1  0.0000000  1.0460000  1
  11163  11166  11174  11177     1  0.0000000  0.6694400  3
  11164  11162  11163  11166     1  0.0000000  0.6508444  3
  11164  11162  11163  11175     1  0.0000000  1.0460000  1
  11164  11162  11163  11175     1  0.0000000  0.0000000  3
  11164  11162  11163  11165     1  0.0000000  0.6508444  3
  11164  11162  11176  11182     1  0.0000000  1.0460000  1
  11164  11162  11176  11182     1  0.0000000  0.0000000  3
  11164  11162  11176  11180     1  0.0000000  0.6508444  3
  11164  11162  11176  11181     1  0.0000000  0.6508444  3
  11164  11162  11184  11168     1  0.0000000  1.6038667  3
  11165  11163  11162  11176     1  0.0000000  0.6508444  3
  11165  11163  11162  11184     1  0.0000000  1.0460000  1
  11165  11163  11162  11184     1  0.0000000  0.0000000  3
  11165  11163  11166  11167     1  0.0000000  0.6508444  3
  11165  11163  11166  11174     1  0.0000000  1.0460000  1
  11165  11163  11166  11174     1  0.0000000  0.0000000  3
  11165  11163  11166  11170     1  0.0000000  0.6508444  3
  11165  11163  11175  11178     1  0.0000000  0.6973333  3
  11166  11163  11175  11178     1  0.0000000  1.0460000  1
  11166  11163  11175  11178     1  0.0000000  0.6694400  3
  11166  11167  11168  11171     1  0.0000000  0.6508444  3
  11166  11167  11173  11179     1  0.0000000  1.0460000  1
  11166  11167  11173  11179     1  0.0000000  0.6694400  3
  11167  11166  11174  11177     1  0.0000000  1.0460000  1
  11167  11166  11174  11177     1  0.0000000  0.6694400  3
  11168  11167  11166  11170     1  0.0000000  0.6508444  3
  11168  11167  11173  11179     1  0.0000000  1.0460000  1
  11168  11167  11173  11179     1  0.0000000  0.6694400  3
  11169  11167  11166  11174     1  0.0000000  1.0460000  1
  11169  11167  11166  11174     1  0.0000000  0.0000000  3
  11169  11167  11166  11170     1  0.0000000  0.6508444  3
  11169  11167  11168  11172     1  0.0000000  1.0460000  1
  11169  11167  11168  11172     1  0.0000000  0.0000000  3
  11169  11167  11168  11184     1  0.0000000  1.0460000  1
  11169  11167  11168  11184     1  0.0000000  0.0000000  3
  11169  11167  11168  11171     1  0.0000000  0.6508444  3
  11169  11167  11173  11179     1  0.0000000  0.6973333  3
  11170  11166  11163  11175     1  0.0000000  1.0460000  1
  11170  11166  11163  11175     1  0.0000000  0.0000000  3
  11170  11166  11167  11173     1  0.0000000  1.0460000  1
  11170  11166  11167  11173     1  0.0000000  0.0000000  3
  11170  11166  11174  11177     1  0.0000000  0.6973333  3
  11171  11168  11167  11173     1  0.0000000  0.6508444  3
  11180  11176  11162  11184     1  0.0000000  1.0460000  1
  11180  11176  11162  11184     1  0.0000000  0.0000000  3
  11180  11176  11182  11183     1  0.0000000  0.6973333  3
  11181  11176  11162  11184     1  0.0000000  1.0460000  1
  11181  11176  11162  11184     1  0.0000000  0.0000000  3
  11181  11176  11182  11183     1  0.0000000  0.6973333  3
  11185  11186  11189  11193     1  0.0000000  0.6508444  3
  11185  11186  11198  11201     1  0.0000000  1.0460000  1
  11185  11186  11198  11201     1  0.0000000  0.6694400  3
  11185  11199  11205  11206     1  0.0000000  1.0460000  1
  11185  11199  11205  11206     1  0.0000000  0.6694400  3
  11185  11207  11191  11194     1  0.0000000  1.6038667  3
  11186  11189  11190  11192     1  0.0000000  0.6508444  3
  11186  11189  11197  11200     1  0.0000000  1.0460000  1
  11186  11189  11197  11200     1  0.0000000  0.6694400  3
  11186  11185  11199  11203     1  0.0000000  0.6508444  3
  11186  11185  11199  11204     1  0.0000000  0.6508444  3
  11187  11185  11186  11189     1  0.0000000  0.6508444  3
  11187  11185  11186  11198     1  0.0000000  1.0460000  1
  11187  11185  11186  11198     1  0.0000000  0.0000000  3
  11187  11185  11186  11188     1  0.0000000  0.6508444  3
  11187  11185  11199  11205     1  0.0000000  1.0460000  1
  11187  11185  11199  11205     1  0.0000000  0.0000000  3
  11187  11185  11199  11203     1  0.0000000  0.6508444  3
  11187  11185  11199  11204     1  0.0000000  0.6508444  3
  11187  11185  11207  11191     1  0.0000000  1.6038667  3
  11188  11186  11189  11190     1  0.0000000  0.6508444  3
  11188  11186  11189  11197     1  0.0000000  1.0460000  1
  11188  11186  11189  11197     1  0.0000000  0.0000000  3
  11188  11186  11189  11193     1  0.0000000  0.6508444  3
  11188  11186  11198  11201     1  0.0000000  0.6973333  3
  11188  11186  11185  11199     1  0.0000000  0.6508444  3
  11188  11186  11185  11207     1  0.0000000  1.0460000  1
  11188  11186  11185  11207     1  0.0000000  0.0000000  3
  11189  11190  11191  11194     1  0.0000000  0.6508444  3
  11189  11190  11196  11202     1  0.0000000  1.0460000  1
  11189  11190  11196  11202     1  0.0000000  0.6694400  3
  11189  11186  11198  11201     1  0.0000000  1.0460000  1
  11189  11186  11198  11201     1  0.0000000  0.6694400  3
  11190  11189  11197  11200     1  0.0000000  1.0460000  1
  11190  11189  11197  11200     1  0.0000000  0.6694400  3
  11191  11190  11196  11202     1  0.0000000  1.0460000  1
  11191  11190  11196  11202     1  0.0000000  0.6694400  3
  11191  11190  11189  11193     1  0.0000000  0.6508444  3
  11192  11190  11191  11195     1  0.0000000  1.0460000  1
  11192  11190  11191  11195     1  0.0000000  0.0000000  3
  11192  11190  11191  11207     1  0.0000000  1.0460000  1
  11192  11190  11191  11207     1  0.0000000  0.0000000  3
  11192  11190  11191  11194     1  0.0000000  0.6508444  3
  11192  11190  11196  11202     1  0.0000000  0.6973333  3
  11192  11190  11189  11197     1  0.0000000  1.0460000  1
  11192  11190  11189  11197     1  0.0000000  0.0000000  3
  11192  11190  11189  11193     1  0.0000000  0.6508444  3
  11193  11189  11190  11196     1  0.0000000  1.0460000  1
  11193  11189  11190  11196     1  0.0000000  0.0000000  3
  11193  11189  11197  11200     1  0.0000000  0.6973333  3
  11193  11189  11186  11198     1  0.0000000  1.0460000  1
  11193  11189  11186  11198     1  0.0000000  0.0000000  3
  11194  11191  11190  11196     1  0.0000000  0.6508444  3
  11203  11199  11205  11206     1  0.0000000  0.6973333  3
  11203  11199  11185  11207     1  0.0000000  1.0460000  1
  11203  11199  11185  11207     1  0.0000000  0.0000000  3
  11204  11199  11205  11206     1  0.0000000  0.6973333  3
  11204  11199  11185  11207     1  0.0000000  1.0460000  1
  11204  11199  11185  11207     1  0.0000000  0.0000000  3
  11208  11209  11212  11216     1  0.0000000  0.6508444  3
  11208  11209  11221  11224     1  0.0000000  1.0460000  1
  11208  11209  11221  11224     1  0.0000000  0.6694400  3
  11208  11222  11228  11229     1  0.0000000  1.0460000  1
  11208  11222  11228  11229     1  0.0000000  0.6694400  3
  11208  11230  11214  11217     1  0.0000000  1.6038667  3
  11209  11208  11222  11226     1  0.0000000  0.6508444  3
  11209  11208  11222  11227     1  0.0000000  0.6508444  3
  11209  11212  11213  11215     1  0.0000000  0.6508444  3
  11209  11212  11220  11223     1  0.0000000  1.0460000  1
  11209  11212  11220  11223     1  0.0000000  0.6694400  3
  11210  11208  11209  11212     1  0.0000000  0.6508444  3
  11210  11208  11209  11221     1  0.0000000  1.0460000  1
  11210  11208  11209  11221     1  0.0000000  0.0000000  3
  11210  11208  11209  11211     1  0.0000000  0.6508444  3
  11210  11208  11222  11228     1  0.0000000  1.0460000  1
  11210  11208  11222  11228     1  0.0000000  0.0000000  3
  11210  11208  11222  11226     1  0.0000000  0.6508444  3
  11210  11208  11222  11227     1  0.0000000  0.6508444  3
  11210  11208  11230  11214     1  0.0000000  1.6038667  3
  11211  11209  11208  11222     1  0.0000000  0.6508444  3
  11211  11209  11208  11230     1  0.0000000  1.0460000  1
  11211  11209  11208  11230     1  0.0000000  0.0000000  3
  11211  11209  11212  11213     1  0.0000000  0.6508444  3
  11211  11209  11212  11220     1  0.0000000  1.0460000  1
  11211  11209  11212  11220     1  0.0000000  0.0000000  3
  11211  11209  11212  11216     1  0.0000000  0.6508444  3
  11211  11209  11221  11224     1  0.0000000  0.6973333  3
  11212  11209  11221  11224     1  0.0000000  1.0460000  1
  11212  11209  11221  11224     1  0.0000000  0.6694400  3
  11212  11213  11214  11217     1  0.0000000  0.6508444  3
  11212  11213  11219  11225     1  0.0000000  1.0460000  1
  11212  11213  11219  11225     1  0.0000000  0.6694400  3
  11213  11212  11220  11223     1  0.0000000  1.0460000  1
  11213  11212  11220  11223     1  0.0000000  0.6694400  3
  11214  11213  11212  11216     1  0.0000000  0.6508444  3
  11214  11213  11219  11225     1  0.0000000  1.0460000  1
  11214  11213  11219  11225     1  0.0000000  0.6694400  3
  11215  11213  11212  11220     1  0.0000000  1.0460000  1
  11215  11213  11212  11220     1  0.0000000  0.0000000  3
  11215  11213  11212  11216     1  0.0000000  0.6508444  3
  11215  11213  11214  11218     1  0.0000000  1.0460000  1
  11215  11213  11214  11218     1  0.0000000  0.0000000  3
  11215  11213  11214  11230     1  0.0000000  1.0460000  1
  11215  11213  11214  11230     1  0.0000000  0.0000000  3
  11215  11213  11214  11217     1  0.0000000  0.6508444  3
  11215  11213  11219  11225     1  0.0000000  0.6973333  3
  11216  11212  11209  11221     1  0.0000000  1.0460000  1
  11216  11212  11209  11221     1  0.0000000  0.0000000  3
  11216  11212  11213  11219     1  0.0000000  1.0460000  1
  11216  11212  11213  11219     1  0.0000000  0.0000000  3
  11216  11212  11220  11223     1  0.0000000  0.6973333  3
  11217  11214  11213  11219     1  0.0000000  0.6508444  3
  11226  11222  11208  11230     1  0.0000000  1.0460000  1
  11226  11222  11208  11230     1  0.0000000  0.0000000  3
  11226  11222  11228  11229     1  0.0000000  0.6973333  3
  11227  11222  11208  11230     1  0.0000000  1.0460000  1
  11227  11222  11208  11230     1  0.0000000  0.0000000  3
  11227  11222  11228  11229     1  0.0000000  0.6973333  3
  11231  11232  11235  11239     1  0.0000000  0.6508444  3
  11231  11232  11244  11247     1  0.0000000  1.0460000  1
  11231  11232  11244  11247     1  0.0000000  0.6694400  3
  11231  11245  11251  11252     1  0.0000000  1.0460000  1
  11231  11245  11251  11252     1  0.0000000  0.6694400  3
  11231  11253  11237  11240     1  0.0000000  1.6038667  3
  11232  11235  11236  11238     1  0.0000000  0.6508444  3
  11232  11235  11243  11246     1  0.0000000  1.0460000  1
  11232  11235  11243  11246     1  0.0000000  0.6694400  3
  11232  11231  11245  11249     1  0.0000000  0.6508444  3
  11232  11231  11245  11250     1  0.0000000  0.6508444  3
  11233  11231  11232  11235     1  0.0000000  0.6508444  3
  11233  11231  11232  11244     1  0.0000000  1.0460000  1
  11233  11231  11232  11244     1  0.0000000  0.0000000  3
  11233  11231  11232  11234     1  0.0000000  0.6508444  3
  11233  11231  11245  11251     1  0.0000000  1.0460000  1
  11233  11231  11245  11251     1  0.0000000  0.0000000  3
  11233  11231  11245  11249     1  0.0000000  0.6508444  3
  11233  11231  11245  11250     1  0.0000000  0.6508444  3
  11233  11231  11253  11237     1  0.0000000  1.6038667  3
  11234  11232  11235  11236     1  0.0000000  0.6508444  3
  11234  11232  11235  11243     1  0.0000000  1.0460000  1
  11234  11232  11235  11243     1  0.0000000  0.0000000  3
  11234  11232  11235  11239     1  0.0000000  0.6508444  3
  11234  11232  11244  11247     1  0.0000000  0.6973333  3
  11234  11232  11231  11245     1  0.0000000  0.6508444  3
  11234  11232  11231  11253     1  0.0000000  1.0460000  1
  11234  11232  11231  11253     1  0.0000000  0.0000000  3
  11235  11236  11237  11240     1  0.0000000  0.6508444  3
  11235  11236  11242  11248     1  0.0000000  1.0460000  1
  11235  11236  11242  11248     1  0.0000000  0.6694400  3
  11235  11232  11244  11247     1  0.0000000  1.0460000  1
  11235  11232  11244  11247     1  0.0000000  0.6694400  3
  11236  11235  11243  11246     1  0.0000000  1.0460000  1
  11236  11235  11243  11246     1  0.0000000  0.6694400  3
  11237  11236  11242  11248     1  0.0000000  1.0460000  1
  11237  11236  11242  11248     1  0.0000000  0.6694400  3
  11237  11236  11235  11239     1  0.0000000  0.6508444  3
  11238  11236  11237  11241     1  0.0000000  1.0460000  1
  11238  11236  11237  11241     1  0.0000000  0.0000000  3
  11238  11236  11237  11253     1  0.0000000  1.0460000  1
  11238  11236  11237  11253     1  0.0000000  0.0000000  3
  11238  11236  11237  11240     1  0.0000000  0.6508444  3
  11238  11236  11242  11248     1  0.0000000  0.6973333  3
  11238  11236  11235  11243     1  0.0000000  1.0460000  1
  11238  11236  11235  11243     1  0.0000000  0.0000000  3
  11238  11236  11235  11239     1  0.0000000  0.6508444  3
  11239  11235  11236  11242     1  0.0000000  1.0460000  1
  11239  11235  11236  11242     1  0.0000000  0.0000000  3
  11239  11235  11243  11246     1  0.0000000  0.6973333  3
  11239  11235  11232  11244     1  0.0000000  1.0460000  1
  11239  11235  11232  11244     1  0.0000000  0.0000000  3
  11240  11237  11236  11242     1  0.0000000  0.6508444  3
  11249  11245  11251  11252     1  0.0000000  0.6973333  3
  11249  11245  11231  11253     1  0.0000000  1.0460000  1
  11249  11245  11231  11253     1  0.0000000  0.0000000  3
  11250  11245  11251  11252     1  0.0000000  0.6973333  3
  11250  11245  11231  11253     1  0.0000000  1.0460000  1
  11250  11245  11231  11253     1  0.0000000  0.0000000  3
  11254  11255  11258  11262     1  0.0000000  0.6508444  3
  11254  11255  11267  11270     1  0.0000000  1.0460000  1
  11254  11255  11267  11270     1  0.0000000  0.6694400  3
  11254  11268  11274  11275     1  0.0000000  1.0460000  1
  11254  11268  11274  11275     1  0.0000000  0.6694400  3
  11254  11276  11260  11263     1  0.0000000  1.6038667  3
  11255  11254  11268  11272     1  0.0000000  0.6508444  3
  11255  11254  11268  11273     1  0.0000000  0.6508444  3
  11255  11258  11259  11261     1  0.0000000  0.6508444  3
  11255  11258  11266  11269     1  0.0000000  1.0460000  1
  11255  11258  11266  11269     1  0.0000000  0.6694400  3
  11256  11254  11255  11258     1  0.0000000  0.6508444  3
  11256  11254  11255  11267     1  0.0000000  1.0460000  1
  11256  11254  11255  11267     1  0.0000000  0.0000000  3
  11256  11254  11255  11257     1  0.0000000  0.6508444  3
  11256  11254  11268  11274     1  0.0000000  1.0460000  1
  11256  11254  11268  11274     1  0.0000000  0.0000000  3
  11256  11254  11268  11272     1  0.0000000  0.6508444  3
  11256  11254  11268  11273     1  0.0000000  0.6508444  3
  11256  11254  11276  11260     1  0.0000000  1.6038667  3
  11257  11255  11254  11268     1  0.0000000  0.6508444  3
  11257  11255  11254  11276     1  0.0000000  1.0460000  1
  11257  11255  11254  11276     1  0.0000000  0.0000000  3
  11257  11255  11258  11259     1  0.0000000  0.6508444  3
  11257  11255  11258  11266     1  0.0000000  1.0460000  1
  11257  11255  11258  11266     1  0.0000000  0.0000000  3
  11257  11255  11258  11262     1  0.0000000  0.6508444  3
  11257  11255  11267  11270     1  0.0000000  0.6973333  3
  11258  11255  11267  11270     1  0.0000000  1.0460000  1
  11258  11255  11267  11270     1  0.0000000  0.6694400  3
  11258  11259  11260  11263     1  0.0000000  0.6508444  3
  11258  11259  11265  11271     1  0.0000000  1.0460000  1
  11258  11259  11265  11271     1  0.0000000  0.6694400  3
  11259  11258  11266  11269     1  0.0000000  1.0460000  1
  11259  11258  11266  11269     1  0.0000000  0.6694400  3
  11260  11259  11258  11262     1  0.0000000  0.6508444  3
  11260  11259  11265  11271     1  0.0000000  1.0460000  1
  11260  11259  11265  11271     1  0.0000000  0.6694400  3
  11261  11259  11258  11266     1  0.0000000  1.0460000  1
  11261  11259  11258  11266     1  0.0000000  0.0000000  3
  11261  11259  11258  11262     1  0.0000000  0.6508444  3
  11261  11259  11260  11264     1  0.0000000  1.0460000  1
  11261  11259  11260  11264     1  0.0000000  0.0000000  3
  11261  11259  11260  11276     1  0.0000000  1.0460000  1
  11261  11259  11260  11276     1  0.0000000  0.0000000  3
  11261  11259  11260  11263     1  0.0000000  0.6508444  3
  11261  11259  11265  11271     1  0.0000000  0.6973333  3
  11262  11258  11255  11267     1  0.0000000  1.0460000  1
  11262  11258  11255  11267     1  0.0000000  0.0000000  3
  11262  11258  11259  11265     1  0.0000000  1.0460000  1
  11262  11258  11259  11265     1  0.0000000  0.0000000  3
  11262  11258  11266  11269     1  0.0000000  0.6973333  3
  11263  11260  11259  11265     1  0.0000000  0.6508444  3
  11272  11268  11254  11276     1  0.0000000  1.0460000  1
  11272  11268  11254  11276     1  0.0000000  0.0000000  3
  11272  11268  11274  11275     1  0.0000000  0.6973333  3
  11273  11268  11254  11276     1  0.0000000  1.0460000  1
  11273  11268  11254  11276     1  0.0000000  0.0000000  3
  11273  11268  11274  11275     1  0.0000000  0.6973333  3
  11277  11278  11281  11285     1  0.0000000  0.6508444  3
  11277  11278  11290  11293     1  0.0000000  1.0460000  1
  11277  11278  11290  11293     1  0.0000000  0.6694400  3
  11277  11291  11297  11298     1  0.0000000  1.0460000  1
  11277  11291  11297  11298     1  0.0000000  0.6694400  3
  11277  11299  11283  11286     1  0.0000000  1.6038667  3
  11278  11281  11282  11284     1  0.0000000  0.6508444  3
  11278  11281  11289  11292     1  0.0000000  1.0460000  1
  11278  11281  11289  11292     1  0.0000000  0.6694400  3
  11278  11277  11291  11295     1  0.0000000  0.6508444  3
  11278  11277  11291  11296     1  0.0000000  0.6508444  3
  11279  11277  11278  11281     1  0.0000000  0.6508444  3
  11279  11277  11278  11290     1  0.0000000  1.0460000  1
  11279  11277  11278  11290     1  0.0000000  0.0000000  3
  11279  11277  11278  11280     1  0.0000000  0.6508444  3
  11279  11277  11291  11297     1  0.0000000  1.0460000  1
  11279  11277  11291  11297     1  0.0000000  0.0000000  3
  11279  11277  11291  11295     1  0.0000000  0.6508444  3
  11279  11277  11291  11296     1  0.0000000  0.6508444  3
  11279  11277  11299  11283     1  0.0000000  1.6038667  3
  11280  11278  11281  11282     1  0.0000000  0.6508444  3
  11280  11278  11281  11289     1  0.0000000  1.0460000  1
  11280  11278  11281  11289     1  0.0000000  0.0000000  3
  11280  11278  11281  11285     1  0.0000000  0.6508444  3
  11280  11278  11290  11293     1  0.0000000  0.6973333  3
  11280  11278  11277  11291     1  0.0000000  0.6508444  3
  11280  11278  11277  11299     1  0.0000000  1.0460000  1
  11280  11278  11277  11299     1  0.0000000  0.0000000  3
  11281  11282  11283  11286     1  0.0000000  0.6508444  3
  11281  11282  11288  11294     1  0.0000000  1.0460000  1
  11281  11282  11288  11294     1  0.0000000  0.6694400  3
  11281  11278  11290  11293     1  0.0000000  1.0460000  1
  11281  11278  11290  11293     1  0.0000000  0.6694400  3
  11282  11281  11289  11292     1  0.0000000  1.0460000  1
  11282  11281  11289  11292     1  0.0000000  0.6694400  3
  11283  11282  11288  11294     1  0.0000000  1.0460000  1
  11283  11282  11288  11294     1  0.0000000  0.6694400  3
  11283  11282  11281  11285     1  0.0000000  0.6508444  3
  11284  11282  11283  11287     1  0.0000000  1.0460000  1
  11284  11282  11283  11287     1  0.0000000  0.0000000  3
  11284  11282  11283  11299     1  0.0000000  1.0460000  1
  11284  11282  11283  11299     1  0.0000000  0.0000000  3
  11284  11282  11283  11286     1  0.0000000  0.6508444  3
  11284  11282  11288  11294     1  0.0000000  0.6973333  3
  11284  11282  11281  11289     1  0.0000000  1.0460000  1
  11284  11282  11281  11289     1  0.0000000  0.0000000  3
  11284  11282  11281  11285     1  0.0000000  0.6508444  3
  11285  11281  11282  11288     1  0.0000000  1.0460000  1
  11285  11281  11282  11288     1  0.0000000  0.0000000  3
  11285  11281  11289  11292     1  0.0000000  0.6973333  3
  11285  11281  11278  11290     1  0.0000000  1.0460000  1
  11285  11281  11278  11290     1  0.0000000  0.0000000  3
  11286  11283  11282  11288     1  0.0000000  0.6508444  3
  11295  11291  11297  11298     1  0.0000000  0.6973333  3
  11295  11291  11277  11299     1  0.0000000  1.0460000  1
  11295  11291  11277  11299     1  0.0000000  0.0000000  3
  11296  11291  11297  11298     1  0.0000000  0.6973333  3
  11296  11291  11277  11299     1  0.0000000  1.0460000  1
  11296  11291  11277  11299     1  0.0000000  0.0000000  3
  11300  11301  11304  11308     1  0.0000000  0.6508444  3
  11300  11301  11313  11316     1  0.0000000  1.0460000  1
  11300  11301  11313  11316     1  0.0000000  0.6694400  3
  11300  11314  11320  11321     1  0.0000000  1.0460000  1
  11300  11314  11320  11321     1  0.0000000  0.6694400  3
  11300  11322  11306  11309     1  0.0000000  1.6038667  3
  11301  11300  11314  11318     1  0.0000000  0.6508444  3
  11301  11300  11314  11319     1  0.0000000  0.6508444  3
  11301  11304  11305  11307     1  0.0000000  0.6508444  3
  11301  11304  11312  11315     1  0.0000000  1.0460000  1
  11301  11304  11312  11315     1  0.0000000  0.6694400  3
  11302  11300  11301  11304     1  0.0000000  0.6508444  3
  11302  11300  11301  11313     1  0.0000000  1.0460000  1
  11302  11300  11301  11313     1  0.0000000  0.0000000  3
  11302  11300  11301  11303     1  0.0000000  0.6508444  3
  11302  11300  11314  11320     1  0.0000000  1.0460000  1
  11302  11300  11314  11320     1  0.0000000  0.0000000  3
  11302  11300  11314  11318     1  0.0000000  0.6508444  3
  11302  11300  11314  11319     1  0.0000000  0.6508444  3
  11302  11300  11322  11306     1  0.0000000  1.6038667  3
  11303  11301  11300  11314     1  0.0000000  0.6508444  3
  11303  11301  11300  11322     1  0.0000000  1.0460000  1
  11303  11301  11300  11322     1  0.0000000  0.0000000  3
  11303  11301  11304  11305     1  0.0000000  0.6508444  3
  11303  11301  11304  11312     1  0.0000000  1.0460000  1
  11303  11301  11304  11312     1  0.0000000  0.0000000  3
  11303  11301  11304  11308     1  0.0000000  0.6508444  3
  11303  11301  11313  11316     1  0.0000000  0.6973333  3
  11304  11301  11313  11316     1  0.0000000  1.0460000  1
  11304  11301  11313  11316     1  0.0000000  0.6694400  3
  11304  11305  11306  11309     1  0.0000000  0.6508444  3
  11304  11305  11311  11317     1  0.0000000  1.0460000  1
  11304  11305  11311  11317     1  0.0000000  0.6694400  3
  11305  11304  11312  11315     1  0.0000000  1.0460000  1
  11305  11304  11312  11315     1  0.0000000  0.6694400  3
  11306  11305  11304  11308     1  0.0000000  0.6508444  3
  11306  11305  11311  11317     1  0.0000000  1.0460000  1
  11306  11305  11311  11317     1  0.0000000  0.6694400  3
  11307  11305  11304  11312     1  0.0000000  1.0460000  1
  11307  11305  11304  11312     1  0.0000000  0.0000000  3
  11307  11305  11304  11308     1  0.0000000  0.6508444  3
  11307  11305  11306  11310     1  0.0000000  1.0460000  1
  11307  11305  11306  11310     1  0.0000000  0.0000000  3
  11307  11305  11306  11322     1  0.0000000  1.0460000  1
  11307  11305  11306  11322     1  0.0000000  0.0000000  3
  11307  11305  11306  11309     1  0.0000000  0.6508444  3
  11307  11305  11311  11317     1  0.0000000  0.6973333  3
  11308  11304  11301  11313     1  0.0000000  1.0460000  1
  11308  11304  11301  11313     1  0.0000000  0.0000000  3
  11308  11304  11305  11311     1  0.0000000  1.0460000  1
  11308  11304  11305  11311     1  0.0000000  0.0000000  3
  11308  11304  11312  11315     1  0.0000000  0.6973333  3
  11309  11306  11305  11311     1  0.0000000  0.6508444  3
  11318  11314  11300  11322     1  0.0000000  1.0460000  1
  11318  11314  11300  11322     1  0.0000000  0.0000000  3
  11318  11314  11320  11321     1  0.0000000  0.6973333  3
  11319  11314  11300  11322     1  0.0000000  1.0460000  1
  11319  11314  11300  11322     1  0.0000000  0.0000000  3
  11319  11314  11320  11321     1  0.0000000  0.6973333  3
  11323  11324  11327  11331     1  0.0000000  0.6508444  3
  11323  11324  11336  11339     1  0.0000000  1.0460000  1
  11323  11324  11336  11339     1  0.0000000  0.6694400  3
  11323  11337  11343  11344     1  0.0000000  1.0460000  1
  11323  11337  11343  11344     1  0.0000000  0.6694400  3
  11323  11345  11329  11332     1  0.0000000  1.6038667  3
  11324  11327  11328  11330     1  0.0000000  0.6508444  3
  11324  11327  11335  11338     1  0.0000000  1.0460000  1
  11324  11327  11335  11338     1  0.0000000  0.6694400  3
  11324  11323  11337  11341     1  0.0000000  0.6508444  3
  11324  11323  11337  11342     1  0.0000000  0.6508444  3
  11325  11323  11324  11327     1  0.0000000  0.6508444  3
  11325  11323  11324  11336     1  0.0000000  1.0460000  1
  11325  11323  11324  11336     1  0.0000000  0.0000000  3
  11325  11323  11324  11326     1  0.0000000  0.6508444  3
  11325  11323  11337  11343     1  0.0000000  1.0460000  1
  11325  11323  11337  11343     1  0.0000000  0.0000000  3
  11325  11323  11337  11341     1  0.0000000  0.6508444  3
  11325  11323  11337  11342     1  0.0000000  0.6508444  3
  11325  11323  11345  11329     1  0.0000000  1.6038667  3
  11326  11324  11327  11328     1  0.0000000  0.6508444  3
  11326  11324  11327  11335     1  0.0000000  1.0460000  1
  11326  11324  11327  11335     1  0.0000000  0.0000000  3
  11326  11324  11327  11331     1  0.0000000  0.6508444  3
  11326  11324  11336  11339     1  0.0000000  0.6973333  3
  11326  11324  11323  11337     1  0.0000000  0.6508444  3
  11326  11324  11323  11345     1  0.0000000  1.0460000  1
  11326  11324  11323  11345     1  0.0000000  0.0000000  3
  11327  11328  11329  11332     1  0.0000000  0.6508444  3
  11327  11328  11334  11340     1  0.0000000  1.0460000  1
  11327  11328  11334  11340     1  0.0000000  0.6694400  3
  11327  11324  11336  11339     1  0.0000000  1.0460000  1
  11327  11324  11336  11339     1  0.0000000  0.6694400  3
  11328  11327  11335  11338     1  0.0000000  1.0460000  1
  11328  11327  11335  11338     1  0.0000000  0.6694400  3
  11329  11328  11334  11340     1  0.0000000  1.0460000  1
  11329  11328  11334  11340     1  0.0000000  0.6694400  3
  11329  11328  11327  11331     1  0.0000000  0.6508444  3
  11330  11328  11329  11333     1  0.0000000  1.0460000  1
  11330  11328  11329  11333     1  0.0000000  0.0000000  3
  11330  11328  11329  11345     1  0.0000000  1.0460000  1
  11330  11328  11329  11345     1  0.0000000  0.0000000  3
  11330  11328  11329  11332     1  0.0000000  0.6508444  3
  11330  11328  11334  11340     1  0.0000000  0.6973333  3
  11330  11328  11327  11335     1  0.0000000  1.0460000  1
  11330  11328  11327  11335     1  0.0000000  0.0000000  3
  11330  11328  11327  11331     1  0.0000000  0.6508444  3
  11331  11327  11328  11334     1  0.0000000  1.0460000  1
  11331  11327  11328  11334     1  0.0000000  0.0000000  3
  11331  11327  11335  11338     1  0.0000000  0.6973333  3
  11331  11327  11324  11336     1  0.0000000  1.0460000  1
  11331  11327  11324  11336     1  0.0000000  0.0000000  3
  11332  11329  11328  11334     1  0.0000000  0.6508444  3
  11341  11337  11343  11344     1  0.0000000  0.6973333  3
  11341  11337  11323  11345     1  0.0000000  1.0460000  1
  11341  11337  11323  11345     1  0.0000000  0.0000000  3
  11342  11337  11343  11344     1  0.0000000  0.6973333  3
  11342  11337  11323  11345     1  0.0000000  1.0460000  1
  11342  11337  11323  11345     1  0.0000000  0.0000000  3
  11346  11347  11350  11354     1  0.0000000  0.6508444  3
  11346  11347  11359  11362     1  0.0000000  1.0460000  1
  11346  11347  11359  11362     1  0.0000000  0.6694400  3
  11346  11360  11366  11367     1  0.0000000  1.0460000  1
  11346  11360  11366  11367     1  0.0000000  0.6694400  3
  11346  11368  11352  11355     1  0.0000000  1.6038667  3
  11347  11346  11360  11364     1  0.0000000  0.6508444  3
  11347  11346  11360  11365     1  0.0000000  0.6508444  3
  11347  11350  11351  11353     1  0.0000000  0.6508444  3
  11347  11350  11358  11361     1  0.0000000  1.0460000  1
  11347  11350  11358  11361     1  0.0000000  0.6694400  3
  11348  11346  11347  11350     1  0.0000000  0.6508444  3
  11348  11346  11347  11359     1  0.0000000  1.0460000  1
  11348  11346  11347  11359     1  0.0000000  0.0000000  3
  11348  11346  11347  11349     1  0.0000000  0.6508444  3
  11348  11346  11360  11366     1  0.0000000  1.0460000  1
  11348  11346  11360  11366     1  0.0000000  0.0000000  3
  11348  11346  11360  11364     1  0.0000000  0.6508444  3
  11348  11346  11360  11365     1  0.0000000  0.6508444  3
  11348  11346  11368  11352     1  0.0000000  1.6038667  3
  11349  11347  11346  11360     1  0.0000000  0.6508444  3
  11349  11347  11346  11368     1  0.0000000  1.0460000  1
  11349  11347  11346  11368     1  0.0000000  0.0000000  3
  11349  11347  11350  11351     1  0.0000000  0.6508444  3
  11349  11347  11350  11358     1  0.0000000  1.0460000  1
  11349  11347  11350  11358     1  0.0000000  0.0000000  3
  11349  11347  11350  11354     1  0.0000000  0.6508444  3
  11349  11347  11359  11362     1  0.0000000  0.6973333  3
  11350  11347  11359  11362     1  0.0000000  1.0460000  1
  11350  11347  11359  11362     1  0.0000000  0.6694400  3
  11350  11351  11352  11355     1  0.0000000  0.6508444  3
  11350  11351  11357  11363     1  0.0000000  1.0460000  1
  11350  11351  11357  11363     1  0.0000000  0.6694400  3
  11351  11350  11358  11361     1  0.0000000  1.0460000  1
  11351  11350  11358  11361     1  0.0000000  0.6694400  3
  11352  11351  11350  11354     1  0.0000000  0.6508444  3
  11352  11351  11357  11363     1  0.0000000  1.0460000  1
  11352  11351  11357  11363     1  0.0000000  0.6694400  3
  11353  11351  11350  11358     1  0.0000000  1.0460000  1
  11353  11351  11350  11358     1  0.0000000  0.0000000  3
  11353  11351  11350  11354     1  0.0000000  0.6508444  3
  11353  11351  11352  11356     1  0.0000000  1.0460000  1
  11353  11351  11352  11356     1  0.0000000  0.0000000  3
  11353  11351  11352  11368     1  0.0000000  1.0460000  1
  11353  11351  11352  11368     1  0.0000000  0.0000000  3
  11353  11351  11352  11355     1  0.0000000  0.6508444  3
  11353  11351  11357  11363     1  0.0000000  0.6973333  3
  11354  11350  11347  11359     1  0.0000000  1.0460000  1
  11354  11350  11347  11359     1  0.0000000  0.0000000  3
  11354  11350  11351  11357     1  0.0000000  1.0460000  1
  11354  11350  11351  11357     1  0.0000000  0.0000000  3
  11354  11350  11358  11361     1  0.0000000  0.6973333  3
  11355  11352  11351  11357     1  0.0000000  0.6508444  3
  11364  11360  11346  11368     1  0.0000000  1.0460000  1
  11364  11360  11346  11368     1  0.0000000  0.0000000  3
  11364  11360  11366  11367     1  0.0000000  0.6973333  3
  11365  11360  11346  11368     1  0.0000000  1.0460000  1
  11365  11360  11346  11368     1  0.0000000  0.0000000  3
  11365  11360  11366  11367     1  0.0000000  0.6973333  3
  11369  11370  11373  11377     1  0.0000000  0.6508444  3
  11369  11370  11382  11385     1  0.0000000  1.0460000  1
  11369  11370  11382  11385     1  0.0000000  0.6694400  3
  11369  11383  11389  11390     1  0.0000000  1.0460000  1
  11369  11383  11389  11390     1  0.0000000  0.6694400  3
  11369  11391  11375  11378     1  0.0000000  1.6038667  3
  11370  11373  11374  11376     1  0.0000000  0.6508444  3
  11370  11373  11381  11384     1  0.0000000  1.0460000  1
  11370  11373  11381  11384     1  0.0000000  0.6694400  3
  11370  11369  11383  11387     1  0.0000000  0.6508444  3
  11370  11369  11383  11388     1  0.0000000  0.6508444  3
  11371  11369  11370  11373     1  0.0000000  0.6508444  3
  11371  11369  11370  11382     1  0.0000000  1.0460000  1
  11371  11369  11370  11382     1  0.0000000  0.0000000  3
  11371  11369  11370  11372     1  0.0000000  0.6508444  3
  11371  11369  11383  11389     1  0.0000000  1.0460000  1
  11371  11369  11383  11389     1  0.0000000  0.0000000  3
  11371  11369  11383  11387     1  0.0000000  0.6508444  3
  11371  11369  11383  11388     1  0.0000000  0.6508444  3
  11371  11369  11391  11375     1  0.0000000  1.6038667  3
  11372  11370  11373  11374     1  0.0000000  0.6508444  3
  11372  11370  11373  11381     1  0.0000000  1.0460000  1
  11372  11370  11373  11381     1  0.0000000  0.0000000  3
  11372  11370  11373  11377     1  0.0000000  0.6508444  3
  11372  11370  11382  11385     1  0.0000000  0.6973333  3
  11372  11370  11369  11383     1  0.0000000  0.6508444  3
  11372  11370  11369  11391     1  0.0000000  1.0460000  1
  11372  11370  11369  11391     1  0.0000000  0.0000000  3
  11373  11374  11375  11378     1  0.0000000  0.6508444  3
  11373  11374  11380  11386     1  0.0000000  1.0460000  1
  11373  11374  11380  11386     1  0.0000000  0.6694400  3
  11373  11370  11382  11385     1  0.0000000  1.0460000  1
  11373  11370  11382  11385     1  0.0000000  0.6694400  3
  11374  11373  11381  11384     1  0.0000000  1.0460000  1
  11374  11373  11381  11384     1  0.0000000  0.6694400  3
  11375  11374  11380  11386     1  0.0000000  1.0460000  1
  11375  11374  11380  11386     1  0.0000000  0.6694400  3
  11375  11374  11373  11377     1  0.0000000  0.6508444  3
  11376  11374  11375  11379     1  0.0000000  1.0460000  1
  11376  11374  11375  11379     1  0.0000000  0.0000000  3
  11376  11374  11375  11391     1  0.0000000  1.0460000  1
  11376  11374  11375  11391     1  0.0000000  0.0000000  3
  11376  11374  11375  11378     1  0.0000000  0.6508444  3
  11376  11374  11380  11386     1  0.0000000  0.6973333  3
  11376  11374  11373  11381     1  0.0000000  1.0460000  1
  11376  11374  11373  11381     1  0.0000000  0.0000000  3
  11376  11374  11373  11377     1  0.0000000  0.6508444  3
  11377  11373  11374  11380     1  0.0000000  1.0460000  1
  11377  11373  11374  11380     1  0.0000000  0.0000000  3
  11377  11373  11381  11384     1  0.0000000  0.6973333  3
  11377  11373  11370  11382     1  0.0000000  1.0460000  1
  11377  11373  11370  11382     1  0.0000000  0.0000000  3
  11378  11375  11374  11380     1  0.0000000  0.6508444  3
  11387  11383  11389  11390     1  0.0000000  0.6973333  3
  11387  11383  11369  11391     1  0.0000000  1.0460000  1
  11387  11383  11369  11391     1  0.0000000  0.0000000  3
  11388  11383  11389  11390     1  0.0000000  0.6973333  3
  11388  11383  11369  11391     1  0.0000000  1.0460000  1
  11388  11383  11369  11391     1  0.0000000  0.0000000  3
  11392  11393  11396  11400     1  0.0000000  0.6508444  3
  11392  11393  11405  11408     1  0.0000000  1.0460000  1
  11392  11393  11405  11408     1  0.0000000  0.6694400  3
  11392  11406  11412  11413     1  0.0000000  1.0460000  1
  11392  11406  11412  11413     1  0.0000000  0.6694400  3
  11392  11414  11398  11401     1  0.0000000  1.6038667  3
  11393  11392  11406  11410     1  0.0000000  0.6508444  3
  11393  11392  11406  11411     1  0.0000000  0.6508444  3
  11393  11396  11397  11399     1  0.0000000  0.6508444  3
  11393  11396  11404  11407     1  0.0000000  1.0460000  1
  11393  11396  11404  11407     1  0.0000000  0.6694400  3
  11394  11392  11393  11396     1  0.0000000  0.6508444  3
  11394  11392  11393  11405     1  0.0000000  1.0460000  1
  11394  11392  11393  11405     1  0.0000000  0.0000000  3
  11394  11392  11393  11395     1  0.0000000  0.6508444  3
  11394  11392  11406  11412     1  0.0000000  1.0460000  1
  11394  11392  11406  11412     1  0.0000000  0.0000000  3
  11394  11392  11406  11410     1  0.0000000  0.6508444  3
  11394  11392  11406  11411     1  0.0000000  0.6508444  3
  11394  11392  11414  11398     1  0.0000000  1.6038667  3
  11395  11393  11392  11406     1  0.0000000  0.6508444  3
  11395  11393  11392  11414     1  0.0000000  1.0460000  1
  11395  11393  11392  11414     1  0.0000000  0.0000000  3
  11395  11393  11396  11397     1  0.0000000  0.6508444  3
  11395  11393  11396  11404     1  0.0000000  1.0460000  1
  11395  11393  11396  11404     1  0.0000000  0.0000000  3
  11395  11393  11396  11400     1  0.0000000  0.6508444  3
  11395  11393  11405  11408     1  0.0000000  0.6973333  3
  11396  11393  11405  11408     1  0.0000000  1.0460000  1
  11396  11393  11405  11408     1  0.0000000  0.6694400  3
  11396  11397  11398  11401     1  0.0000000  0.6508444  3
  11396  11397  11403  11409     1  0.0000000  1.0460000  1
  11396  11397  11403  11409     1  0.0000000  0.6694400  3
  11397  11396  11404  11407     1  0.0000000  1.0460000  1
  11397  11396  11404  11407     1  0.0000000  0.6694400  3
  11398  11397  11396  11400     1  0.0000000  0.6508444  3
  11398  11397  11403  11409     1  0.0000000  1.0460000  1
  11398  11397  11403  11409     1  0.0000000  0.6694400  3
  11399  11397  11396  11404     1  0.0000000  1.0460000  1
  11399  11397  11396  11404     1  0.0000000  0.0000000  3
  11399  11397  11396  11400     1  0.0000000  0.6508444  3
  11399  11397  11398  11402     1  0.0000000  1.0460000  1
  11399  11397  11398  11402     1  0.0000000  0.0000000  3
  11399  11397  11398  11414     1  0.0000000  1.0460000  1
  11399  11397  11398  11414     1  0.0000000  0.0000000  3
  11399  11397  11398  11401     1  0.0000000  0.6508444  3
  11399  11397  11403  11409     1  0.0000000  0.6973333  3
  11400  11396  11393  11405     1  0.0000000  1.0460000  1
  11400  11396  11393  11405     1  0.0000000  0.0000000  3
  11400  11396  11397  11403     1  0.0000000  1.0460000  1
  11400  11396  11397  11403     1  0.0000000  0.0000000  3
  11400  11396  11404  11407     1  0.0000000  0.6973333  3
  11401  11398  11397  11403     1  0.0000000  0.6508444  3
  11410  11406  11392  11414     1  0.0000000  1.0460000  1
  11410  11406  11392  11414     1  0.0000000  0.0000000  3
  11410  11406  11412  11413     1  0.0000000  0.6973333  3
  11411  11406  11392  11414     1  0.0000000  1.0460000  1
  11411  11406  11392  11414     1  0.0000000  0.0000000  3
  11411  11406  11412  11413     1  0.0000000  0.6973333  3
  11415  11416  11419  11423     1  0.0000000  0.6508444  3
  11415  11416  11428  11431     1  0.0000000  1.0460000  1
  11415  11416  11428  11431     1  0.0000000  0.6694400  3
  11415  11429  11435  11436     1  0.0000000  1.0460000  1
  11415  11429  11435  11436     1  0.0000000  0.6694400  3
  11415  11437  11421  11424     1  0.0000000  1.6038667  3
  11416  11419  11420  11422     1  0.0000000  0.6508444  3
  11416  11419  11427  11430     1  0.0000000  1.0460000  1
  11416  11419  11427  11430     1  0.0000000  0.6694400  3
  11416  11415  11429  11433     1  0.0000000  0.6508444  3
  11416  11415  11429  11434     1  0.0000000  0.6508444  3
  11417  11415  11416  11419     1  0.0000000  0.6508444  3
  11417  11415  11416  11428     1  0.0000000  1.0460000  1
  11417  11415  11416  11428     1  0.0000000  0.0000000  3
  11417  11415  11416  11418     1  0.0000000  0.6508444  3
  11417  11415  11429  11435     1  0.0000000  1.0460000  1
  11417  11415  11429  11435     1  0.0000000  0.0000000  3
  11417  11415  11429  11433     1  0.0000000  0.6508444  3
  11417  11415  11429  11434     1  0.0000000  0.6508444  3
  11417  11415  11437  11421     1  0.0000000  1.6038667  3
  11418  11416  11419  11420     1  0.0000000  0.6508444  3
  11418  11416  11419  11427     1  0.0000000  1.0460000  1
  11418  11416  11419  11427     1  0.0000000  0.0000000  3
  11418  11416  11419  11423     1  0.0000000  0.6508444  3
  11418  11416  11428  11431     1  0.0000000  0.6973333  3
  11418  11416  11415  11429     1  0.0000000  0.6508444  3
  11418  11416  11415  11437     1  0.0000000  1.0460000  1
  11418  11416  11415  11437     1  0.0000000  0.0000000  3
  11419  11420  11421  11424     1  0.0000000  0.6508444  3
  11419  11420  11426  11432     1  0.0000000  1.0460000  1
  11419  11420  11426  11432     1  0.0000000  0.6694400  3
  11419  11416  11428  11431     1  0.0000000  1.0460000  1
  11419  11416  11428  11431     1  0.0000000  0.6694400  3
  11420  11419  11427  11430     1  0.0000000  1.0460000  1
  11420  11419  11427  11430     1  0.0000000  0.6694400  3
  11421  11420  11426  11432     1  0.0000000  1.0460000  1
  11421  11420  11426  11432     1  0.0000000  0.6694400  3
  11421  11420  11419  11423     1  0.0000000  0.6508444  3
  11422  11420  11421  11425     1  0.0000000  1.0460000  1
  11422  11420  11421  11425     1  0.0000000  0.0000000  3
  11422  11420  11421  11437     1  0.0000000  1.0460000  1
  11422  11420  11421  11437     1  0.0000000  0.0000000  3
  11422  11420  11421  11424     1  0.0000000  0.6508444  3
  11422  11420  11426  11432     1  0.0000000  0.6973333  3
  11422  11420  11419  11427     1  0.0000000  1.0460000  1
  11422  11420  11419  11427     1  0.0000000  0.0000000  3
  11422  11420  11419  11423     1  0.0000000  0.6508444  3
  11423  11419  11420  11426     1  0.0000000  1.0460000  1
  11423  11419  11420  11426     1  0.0000000  0.0000000  3
  11423  11419  11427  11430     1  0.0000000  0.6973333  3
  11423  11419  11416  11428     1  0.0000000  1.0460000  1
  11423  11419  11416  11428     1  0.0000000  0.0000000  3
  11424  11421  11420  11426     1  0.0000000  0.6508444  3
  11433  11429  11435  11436     1  0.0000000  0.6973333  3
  11433  11429  11415  11437     1  0.0000000  1.0460000  1
  11433  11429  11415  11437     1  0.0000000  0.0000000  3
  11434  11429  11435  11436     1  0.0000000  0.6973333  3
  11434  11429  11415  11437     1  0.0000000  1.0460000  1
  11434  11429  11415  11437     1  0.0000000  0.0000000  3
  11438  11439  11442  11446     1  0.0000000  0.6508444  3
  11438  11439  11451  11454     1  0.0000000  1.0460000  1
  11438  11439  11451  11454     1  0.0000000  0.6694400  3
  11438  11452  11458  11459     1  0.0000000  1.0460000  1
  11438  11452  11458  11459     1  0.0000000  0.6694400  3
  11438  11460  11444  11447     1  0.0000000  1.6038667  3
  11439  11438  11452  11456     1  0.0000000  0.6508444  3
  11439  11438  11452  11457     1  0.0000000  0.6508444  3
  11439  11442  11443  11445     1  0.0000000  0.6508444  3
  11439  11442  11450  11453     1  0.0000000  1.0460000  1
  11439  11442  11450  11453     1  0.0000000  0.6694400  3
  11440  11438  11439  11442     1  0.0000000  0.6508444  3
  11440  11438  11439  11451     1  0.0000000  1.0460000  1
  11440  11438  11439  11451     1  0.0000000  0.0000000  3
  11440  11438  11439  11441     1  0.0000000  0.6508444  3
  11440  11438  11452  11458     1  0.0000000  1.0460000  1
  11440  11438  11452  11458     1  0.0000000  0.0000000  3
  11440  11438  11452  11456     1  0.0000000  0.6508444  3
  11440  11438  11452  11457     1  0.0000000  0.6508444  3
  11440  11438  11460  11444     1  0.0000000  1.6038667  3
  11441  11439  11438  11452     1  0.0000000  0.6508444  3
  11441  11439  11438  11460     1  0.0000000  1.0460000  1
  11441  11439  11438  11460     1  0.0000000  0.0000000  3
  11441  11439  11442  11443     1  0.0000000  0.6508444  3
  11441  11439  11442  11450     1  0.0000000  1.0460000  1
  11441  11439  11442  11450     1  0.0000000  0.0000000  3
  11441  11439  11442  11446     1  0.0000000  0.6508444  3
  11441  11439  11451  11454     1  0.0000000  0.6973333  3
  11442  11439  11451  11454     1  0.0000000  1.0460000  1
  11442  11439  11451  11454     1  0.0000000  0.6694400  3
  11442  11443  11444  11447     1  0.0000000  0.6508444  3
  11442  11443  11449  11455     1  0.0000000  1.0460000  1
  11442  11443  11449  11455     1  0.0000000  0.6694400  3
  11443  11442  11450  11453     1  0.0000000  1.0460000  1
  11443  11442  11450  11453     1  0.0000000  0.6694400  3
  11444  11443  11442  11446     1  0.0000000  0.6508444  3
  11444  11443  11449  11455     1  0.0000000  1.0460000  1
  11444  11443  11449  11455     1  0.0000000  0.6694400  3
  11445  11443  11442  11450     1  0.0000000  1.0460000  1
  11445  11443  11442  11450     1  0.0000000  0.0000000  3
  11445  11443  11442  11446     1  0.0000000  0.6508444  3
  11445  11443  11444  11448     1  0.0000000  1.0460000  1
  11445  11443  11444  11448     1  0.0000000  0.0000000  3
  11445  11443  11444  11460     1  0.0000000  1.0460000  1
  11445  11443  11444  11460     1  0.0000000  0.0000000  3
  11445  11443  11444  11447     1  0.0000000  0.6508444  3
  11445  11443  11449  11455     1  0.0000000  0.6973333  3
  11446  11442  11439  11451     1  0.0000000  1.0460000  1
  11446  11442  11439  11451     1  0.0000000  0.0000000  3
  11446  11442  11443  11449     1  0.0000000  1.0460000  1
  11446  11442  11443  11449     1  0.0000000  0.0000000  3
  11446  11442  11450  11453     1  0.0000000  0.6973333  3
  11447  11444  11443  11449     1  0.0000000  0.6508444  3
  11456  11452  11438  11460     1  0.0000000  1.0460000  1
  11456  11452  11438  11460     1  0.0000000  0.0000000  3
  11456  11452  11458  11459     1  0.0000000  0.6973333  3
  11457  11452  11438  11460     1  0.0000000  1.0460000  1
  11457  11452  11438  11460     1  0.0000000  0.0000000  3
  11457  11452  11458  11459     1  0.0000000  0.6973333  3
  11461  11462  11465  11469     1  0.0000000  0.6508444  3
  11461  11462  11474  11477     1  0.0000000  1.0460000  1
  11461  11462  11474  11477     1  0.0000000  0.6694400  3
  11461  11475  11481  11482     1  0.0000000  1.0460000  1
  11461  11475  11481  11482     1  0.0000000  0.6694400  3
  11461  11483  11467  11470     1  0.0000000  1.6038667  3
  11462  11465  11466  11468     1  0.0000000  0.6508444  3
  11462  11465  11473  11476     1  0.0000000  1.0460000  1
  11462  11465  11473  11476     1  0.0000000  0.6694400  3
  11462  11461  11475  11479     1  0.0000000  0.6508444  3
  11462  11461  11475  11480     1  0.0000000  0.6508444  3
  11463  11461  11462  11465     1  0.0000000  0.6508444  3
  11463  11461  11462  11474     1  0.0000000  1.0460000  1
  11463  11461  11462  11474     1  0.0000000  0.0000000  3
  11463  11461  11462  11464     1  0.0000000  0.6508444  3
  11463  11461  11475  11481     1  0.0000000  1.0460000  1
  11463  11461  11475  11481     1  0.0000000  0.0000000  3
  11463  11461  11475  11479     1  0.0000000  0.6508444  3
  11463  11461  11475  11480     1  0.0000000  0.6508444  3
  11463  11461  11483  11467     1  0.0000000  1.6038667  3
  11464  11462  11465  11466     1  0.0000000  0.6508444  3
  11464  11462  11465  11473     1  0.0000000  1.0460000  1
  11464  11462  11465  11473     1  0.0000000  0.0000000  3
  11464  11462  11465  11469     1  0.0000000  0.6508444  3
  11464  11462  11474  11477     1  0.0000000  0.6973333  3
  11464  11462  11461  11475     1  0.0000000  0.6508444  3
  11464  11462  11461  11483     1  0.0000000  1.0460000  1
  11464  11462  11461  11483     1  0.0000000  0.0000000  3
  11465  11466  11467  11470     1  0.0000000  0.6508444  3
  11465  11466  11472  11478     1  0.0000000  1.0460000  1
  11465  11466  11472  11478     1  0.0000000  0.6694400  3
  11465  11462  11474  11477     1  0.0000000  1.0460000  1
  11465  11462  11474  11477     1  0.0000000  0.6694400  3
  11466  11465  11473  11476     1  0.0000000  1.0460000  1
  11466  11465  11473  11476     1  0.0000000  0.6694400  3
  11467  11466  11472  11478     1  0.0000000  1.0460000  1
  11467  11466  11472  11478     1  0.0000000  0.6694400  3
  11467  11466  11465  11469     1  0.0000000  0.6508444  3
  11468  11466  11467  11471     1  0.0000000  1.0460000  1
  11468  11466  11467  11471     1  0.0000000  0.0000000  3
  11468  11466  11467  11483     1  0.0000000  1.0460000  1
  11468  11466  11467  11483     1  0.0000000  0.0000000  3
  11468  11466  11467  11470     1  0.0000000  0.6508444  3
  11468  11466  11472  11478     1  0.0000000  0.6973333  3
  11468  11466  11465  11473     1  0.0000000  1.0460000  1
  11468  11466  11465  11473     1  0.0000000  0.0000000  3
  11468  11466  11465  11469     1  0.0000000  0.6508444  3
  11469  11465  11466  11472     1  0.0000000  1.0460000  1
  11469  11465  11466  11472     1  0.0000000  0.0000000  3
  11469  11465  11473  11476     1  0.0000000  0.6973333  3
  11469  11465  11462  11474     1  0.0000000  1.0460000  1
  11469  11465  11462  11474     1  0.0000000  0.0000000  3
  11470  11467  11466  11472     1  0.0000000  0.6508444  3
  11479  11475  11481  11482     1  0.0000000  0.6973333  3
  11479  11475  11461  11483     1  0.0000000  1.0460000  1
  11479  11475  11461  11483     1  0.0000000  0.0000000  3
  11480  11475  11481  11482     1  0.0000000  0.6973333  3
  11480  11475  11461  11483     1  0.0000000  1.0460000  1
  11480  11475  11461  11483     1  0.0000000  0.0000000  3
  11484  11485  11488  11492     1  0.0000000  0.6508444  3
  11484  11485  11497  11500     1  0.0000000  1.0460000  1
  11484  11485  11497  11500     1  0.0000000  0.6694400  3
  11484  11498  11504  11505     1  0.0000000  1.0460000  1
  11484  11498  11504  11505     1  0.0000000  0.6694400  3
  11484  11506  11490  11493     1  0.0000000  1.6038667  3
  11485  11484  11498  11502     1  0.0000000  0.6508444  3
  11485  11484  11498  11503     1  0.0000000  0.6508444  3
  11485  11488  11489  11491     1  0.0000000  0.6508444  3
  11485  11488  11496  11499     1  0.0000000  1.0460000  1
  11485  11488  11496  11499     1  0.0000000  0.6694400  3
  11486  11484  11485  11488     1  0.0000000  0.6508444  3
  11486  11484  11485  11497     1  0.0000000  1.0460000  1
  11486  11484  11485  11497     1  0.0000000  0.0000000  3
  11486  11484  11485  11487     1  0.0000000  0.6508444  3
  11486  11484  11498  11504     1  0.0000000  1.0460000  1
  11486  11484  11498  11504     1  0.0000000  0.0000000  3
  11486  11484  11498  11502     1  0.0000000  0.6508444  3
  11486  11484  11498  11503     1  0.0000000  0.6508444  3
  11486  11484  11506  11490     1  0.0000000  1.6038667  3
  11487  11485  11484  11498     1  0.0000000  0.6508444  3
  11487  11485  11484  11506     1  0.0000000  1.0460000  1
  11487  11485  11484  11506     1  0.0000000  0.0000000  3
  11487  11485  11488  11489     1  0.0000000  0.6508444  3
  11487  11485  11488  11496     1  0.0000000  1.0460000  1
  11487  11485  11488  11496     1  0.0000000  0.0000000  3
  11487  11485  11488  11492     1  0.0000000  0.6508444  3
  11487  11485  11497  11500     1  0.0000000  0.6973333  3
  11488  11485  11497  11500     1  0.0000000  1.0460000  1
  11488  11485  11497  11500     1  0.0000000  0.6694400  3
  11488  11489  11490  11493     1  0.0000000  0.6508444  3
  11488  11489  11495  11501     1  0.0000000  1.0460000  1
  11488  11489  11495  11501     1  0.0000000  0.6694400  3
  11489  11488  11496  11499     1  0.0000000  1.0460000  1
  11489  11488  11496  11499     1  0.0000000  0.6694400  3
  11490  11489  11488  11492     1  0.0000000  0.6508444  3
  11490  11489  11495  11501     1  0.0000000  1.0460000  1
  11490  11489  11495  11501     1  0.0000000  0.6694400  3
  11491  11489  11488  11496     1  0.0000000  1.0460000  1
  11491  11489  11488  11496     1  0.0000000  0.0000000  3
  11491  11489  11488  11492     1  0.0000000  0.6508444  3
  11491  11489  11490  11494     1  0.0000000  1.0460000  1
  11491  11489  11490  11494     1  0.0000000  0.0000000  3
  11491  11489  11490  11506     1  0.0000000  1.0460000  1
  11491  11489  11490  11506     1  0.0000000  0.0000000  3
  11491  11489  11490  11493     1  0.0000000  0.6508444  3
  11491  11489  11495  11501     1  0.0000000  0.6973333  3
  11492  11488  11485  11497     1  0.0000000  1.0460000  1
  11492  11488  11485  11497     1  0.0000000  0.0000000  3
  11492  11488  11489  11495     1  0.0000000  1.0460000  1
  11492  11488  11489  11495     1  0.0000000  0.0000000  3
  11492  11488  11496  11499     1  0.0000000  0.6973333  3
  11493  11490  11489  11495     1  0.0000000  0.6508444  3
  11502  11498  11484  11506     1  0.0000000  1.0460000  1
  11502  11498  11484  11506     1  0.0000000  0.0000000  3
  11502  11498  11504  11505     1  0.0000000  0.6973333  3
  11503  11498  11484  11506     1  0.0000000  1.0460000  1
  11503  11498  11484  11506     1  0.0000000  0.0000000  3
  11503  11498  11504  11505     1  0.0000000  0.6973333  3
  11507  11508  11511  11515     1  0.0000000  0.6508444  3
  11507  11508  11520  11523     1  0.0000000  1.0460000  1
  11507  11508  11520  11523     1  0.0000000  0.6694400  3
  11507  11521  11527  11528     1  0.0000000  1.0460000  1
  11507  11521  11527  11528     1  0.0000000  0.6694400  3
  11507  11529  11513  11516     1  0.0000000  1.6038667  3
  11508  11511  11512  11514     1  0.0000000  0.6508444  3
  11508  11511  11519  11522     1  0.0000000  1.0460000  1
  11508  11511  11519  11522     1  0.0000000  0.6694400  3
  11508  11507  11521  11525     1  0.0000000  0.6508444  3
  11508  11507  11521  11526     1  0.0000000  0.6508444  3
  11509  11507  11508  11511     1  0.0000000  0.6508444  3
  11509  11507  11508  11520     1  0.0000000  1.0460000  1
  11509  11507  11508  11520     1  0.0000000  0.0000000  3
  11509  11507  11508  11510     1  0.0000000  0.6508444  3
  11509  11507  11521  11527     1  0.0000000  1.0460000  1
  11509  11507  11521  11527     1  0.0000000  0.0000000  3
  11509  11507  11521  11525     1  0.0000000  0.6508444  3
  11509  11507  11521  11526     1  0.0000000  0.6508444  3
  11509  11507  11529  11513     1  0.0000000  1.6038667  3
  11510  11508  11511  11512     1  0.0000000  0.6508444  3
  11510  11508  11511  11519     1  0.0000000  1.0460000  1
  11510  11508  11511  11519     1  0.0000000  0.0000000  3
  11510  11508  11511  11515     1  0.0000000  0.6508444  3
  11510  11508  11520  11523     1  0.0000000  0.6973333  3
  11510  11508  11507  11521     1  0.0000000  0.6508444  3
  11510  11508  11507  11529     1  0.0000000  1.0460000  1
  11510  11508  11507  11529     1  0.0000000  0.0000000  3
  11511  11512  11513  11516     1  0.0000000  0.6508444  3
  11511  11512  11518  11524     1  0.0000000  1.0460000  1
  11511  11512  11518  11524     1  0.0000000  0.6694400  3
  11511  11508  11520  11523     1  0.0000000  1.0460000  1
  11511  11508  11520  11523     1  0.0000000  0.6694400  3
  11512  11511  11519  11522     1  0.0000000  1.0460000  1
  11512  11511  11519  11522     1  0.0000000  0.6694400  3
  11513  11512  11518  11524     1  0.0000000  1.0460000  1
  11513  11512  11518  11524     1  0.0000000  0.6694400  3
  11513  11512  11511  11515     1  0.0000000  0.6508444  3
  11514  11512  11513  11517     1  0.0000000  1.0460000  1
  11514  11512  11513  11517     1  0.0000000  0.0000000  3
  11514  11512  11513  11529     1  0.0000000  1.0460000  1
  11514  11512  11513  11529     1  0.0000000  0.0000000  3
  11514  11512  11513  11516     1  0.0000000  0.6508444  3
  11514  11512  11518  11524     1  0.0000000  0.6973333  3
  11514  11512  11511  11519     1  0.0000000  1.0460000  1
  11514  11512  11511  11519     1  0.0000000  0.0000000  3
  11514  11512  11511  11515     1  0.0000000  0.6508444  3
  11515  11511  11512  11518     1  0.0000000  1.0460000  1
  11515  11511  11512  11518     1  0.0000000  0.0000000  3
  11515  11511  11519  11522     1  0.0000000  0.6973333  3
  11515  11511  11508  11520     1  0.0000000  1.0460000  1
  11515  11511  11508  11520     1  0.0000000  0.0000000  3
  11516  11513  11512  11518     1  0.0000000  0.6508444  3
  11525  11521  11527  11528     1  0.0000000  0.6973333  3
  11525  11521  11507  11529     1  0.0000000  1.0460000  1
  11525  11521  11507  11529     1  0.0000000  0.0000000  3
  11526  11521  11527  11528     1  0.0000000  0.6973333  3
  11526  11521  11507  11529     1  0.0000000  1.0460000  1
  11526  11521  11507  11529     1  0.0000000  0.0000000  3
  11530  11531  11534  11538     1  0.0000000  0.6508444  3
  11530  11531  11543  11546     1  0.0000000  1.0460000  1
  11530  11531  11543  11546     1  0.0000000  0.6694400  3
  11530  11544  11550  11551     1  0.0000000  1.0460000  1
  11530  11544  11550  11551     1  0.0000000  0.6694400  3
  11530  11552  11536  11539     1  0.0000000  1.6038667  3
  11531  11530  11544  11548     1  0.0000000  0.6508444  3
  11531  11530  11544  11549     1  0.0000000  0.6508444  3
  11531  11534  11535  11537     1  0.0000000  0.6508444  3
  11531  11534  11542  11545     1  0.0000000  1.0460000  1
  11531  11534  11542  11545     1  0.0000000  0.6694400  3
  11532  11530  11531  11534     1  0.0000000  0.6508444  3
  11532  11530  11531  11543     1  0.0000000  1.0460000  1
  11532  11530  11531  11543     1  0.0000000  0.0000000  3
  11532  11530  11531  11533     1  0.0000000  0.6508444  3
  11532  11530  11544  11550     1  0.0000000  1.0460000  1
  11532  11530  11544  11550     1  0.0000000  0.0000000  3
  11532  11530  11544  11548     1  0.0000000  0.6508444  3
  11532  11530  11544  11549     1  0.0000000  0.6508444  3
  11532  11530  11552  11536     1  0.0000000  1.6038667  3
  11533  11531  11530  11544     1  0.0000000  0.6508444  3
  11533  11531  11530  11552     1  0.0000000  1.0460000  1
  11533  11531  11530  11552     1  0.0000000  0.0000000  3
  11533  11531  11534  11535     1  0.0000000  0.6508444  3
  11533  11531  11534  11542     1  0.0000000  1.0460000  1
  11533  11531  11534  11542     1  0.0000000  0.0000000  3
  11533  11531  11534  11538     1  0.0000000  0.6508444  3
  11533  11531  11543  11546     1  0.0000000  0.6973333  3
  11534  11531  11543  11546     1  0.0000000  1.0460000  1
  11534  11531  11543  11546     1  0.0000000  0.6694400  3
  11534  11535  11536  11539     1  0.0000000  0.6508444  3
  11534  11535  11541  11547     1  0.0000000  1.0460000  1
  11534  11535  11541  11547     1  0.0000000  0.6694400  3
  11535  11534  11542  11545     1  0.0000000  1.0460000  1
  11535  11534  11542  11545     1  0.0000000  0.6694400  3
  11536  11535  11534  11538     1  0.0000000  0.6508444  3
  11536  11535  11541  11547     1  0.0000000  1.0460000  1
  11536  11535  11541  11547     1  0.0000000  0.6694400  3
  11537  11535  11534  11542     1  0.0000000  1.0460000  1
  11537  11535  11534  11542     1  0.0000000  0.0000000  3
  11537  11535  11534  11538     1  0.0000000  0.6508444  3
  11537  11535  11536  11540     1  0.0000000  1.0460000  1
  11537  11535  11536  11540     1  0.0000000  0.0000000  3
  11537  11535  11536  11552     1  0.0000000  1.0460000  1
  11537  11535  11536  11552     1  0.0000000  0.0000000  3
  11537  11535  11536  11539     1  0.0000000  0.6508444  3
  11537  11535  11541  11547     1  0.0000000  0.6973333  3
  11538  11534  11531  11543     1  0.0000000  1.0460000  1
  11538  11534  11531  11543     1  0.0000000  0.0000000  3
  11538  11534  11535  11541     1  0.0000000  1.0460000  1
  11538  11534  11535  11541     1  0.0000000  0.0000000  3
  11538  11534  11542  11545     1  0.0000000  0.6973333  3
  11539  11536  11535  11541     1  0.0000000  0.6508444  3
  11548  11544  11530  11552     1  0.0000000  1.0460000  1
  11548  11544  11530  11552     1  0.0000000  0.0000000  3
  11548  11544  11550  11551     1  0.0000000  0.6973333  3
  11549  11544  11530  11552     1  0.0000000  1.0460000  1
  11549  11544  11530  11552     1  0.0000000  0.0000000  3
  11549  11544  11550  11551     1  0.0000000  0.6973333  3
  11553  11554  11557  11561     1  0.0000000  0.6508444  3
  11553  11554  11566  11569     1  0.0000000  1.0460000  1
  11553  11554  11566  11569     1  0.0000000  0.6694400  3
  11553  11567  11573  11574     1  0.0000000  1.0460000  1
  11553  11567  11573  11574     1  0.0000000  0.6694400  3
  11553  11575  11559  11562     1  0.0000000  1.6038667  3
  11554  11557  11558  11560     1  0.0000000  0.6508444  3
  11554  11557  11565  11568     1  0.0000000  1.0460000  1
  11554  11557  11565  11568     1  0.0000000  0.6694400  3
  11554  11553  11567  11571     1  0.0000000  0.6508444  3
  11554  11553  11567  11572     1  0.0000000  0.6508444  3
  11555  11553  11554  11557     1  0.0000000  0.6508444  3
  11555  11553  11554  11566     1  0.0000000  1.0460000  1
  11555  11553  11554  11566     1  0.0000000  0.0000000  3
  11555  11553  11554  11556     1  0.0000000  0.6508444  3
  11555  11553  11567  11573     1  0.0000000  1.0460000  1
  11555  11553  11567  11573     1  0.0000000  0.0000000  3
  11555  11553  11567  11571     1  0.0000000  0.6508444  3
  11555  11553  11567  11572     1  0.0000000  0.6508444  3
  11555  11553  11575  11559     1  0.0000000  1.6038667  3
  11556  11554  11557  11558     1  0.0000000  0.6508444  3
  11556  11554  11557  11565     1  0.0000000  1.0460000  1
  11556  11554  11557  11565     1  0.0000000  0.0000000  3
  11556  11554  11557  11561     1  0.0000000  0.6508444  3
  11556  11554  11566  11569     1  0.0000000  0.6973333  3
  11556  11554  11553  11567     1  0.0000000  0.6508444  3
  11556  11554  11553  11575     1  0.0000000  1.0460000  1
  11556  11554  11553  11575     1  0.0000000  0.0000000  3
  11557  11558  11559  11562     1  0.0000000  0.6508444  3
  11557  11558  11564  11570     1  0.0000000  1.0460000  1
  11557  11558  11564  11570     1  0.0000000  0.6694400  3
  11557  11554  11566  11569     1  0.0000000  1.0460000  1
  11557  11554  11566  11569     1  0.0000000  0.6694400  3
  11558  11557  11565  11568     1  0.0000000  1.0460000  1
  11558  11557  11565  11568     1  0.0000000  0.6694400  3
  11559  11558  11564  11570     1  0.0000000  1.0460000  1
  11559  11558  11564  11570     1  0.0000000  0.6694400  3
  11559  11558  11557  11561     1  0.0000000  0.6508444  3
  11560  11558  11559  11563     1  0.0000000  1.0460000  1
  11560  11558  11559  11563     1  0.0000000  0.0000000  3
  11560  11558  11559  11575     1  0.0000000  1.0460000  1
  11560  11558  11559  11575     1  0.0000000  0.0000000  3
  11560  11558  11559  11562     1  0.0000000  0.6508444  3
  11560  11558  11564  11570     1  0.0000000  0.6973333  3
  11560  11558  11557  11565     1  0.0000000  1.0460000  1
  11560  11558  11557  11565     1  0.0000000  0.0000000  3
  11560  11558  11557  11561     1  0.0000000  0.6508444  3
  11561  11557  11558  11564     1  0.0000000  1.0460000  1
  11561  11557  11558  11564     1  0.0000000  0.0000000  3
  11561  11557  11565  11568     1  0.0000000  0.6973333  3
  11561  11557  11554  11566     1  0.0000000  1.0460000  1
  11561  11557  11554  11566     1  0.0000000  0.0000000  3
  11562  11559  11558  11564     1  0.0000000  0.6508444  3
  11571  11567  11573  11574     1  0.0000000  0.6973333  3
  11571  11567  11553  11575     1  0.0000000  1.0460000  1
  11571  11567  11553  11575     1  0.0000000  0.0000000  3
  11572  11567  11573  11574     1  0.0000000  0.6973333  3
  11572  11567  11553  11575     1  0.0000000  1.0460000  1
  11572  11567  11553  11575     1  0.0000000  0.0000000  3
  11576  11577  11580  11584     1  0.0000000  0.6508444  3
  11576  11577  11589  11592     1  0.0000000  1.0460000  1
  11576  11577  11589  11592     1  0.0000000  0.6694400  3
  11576  11590  11596  11597     1  0.0000000  1.0460000  1
  11576  11590  11596  11597     1  0.0000000  0.6694400  3
  11576  11598  11582  11585     1  0.0000000  1.6038667  3
  11577  11576  11590  11594     1  0.0000000  0.6508444  3
  11577  11576  11590  11595     1  0.0000000  0.6508444  3
  11577  11580  11581  11583     1  0.0000000  0.6508444  3
  11577  11580  11588  11591     1  0.0000000  1.0460000  1
  11577  11580  11588  11591     1  0.0000000  0.6694400  3
  11578  11576  11577  11580     1  0.0000000  0.6508444  3
  11578  11576  11577  11589     1  0.0000000  1.0460000  1
  11578  11576  11577  11589     1  0.0000000  0.0000000  3
  11578  11576  11577  11579     1  0.0000000  0.6508444  3
  11578  11576  11590  11596     1  0.0000000  1.0460000  1
  11578  11576  11590  11596     1  0.0000000  0.0000000  3
  11578  11576  11590  11594     1  0.0000000  0.6508444  3
  11578  11576  11590  11595     1  0.0000000  0.6508444  3
  11578  11576  11598  11582     1  0.0000000  1.6038667  3
  11579  11577  11576  11590     1  0.0000000  0.6508444  3
  11579  11577  11576  11598     1  0.0000000  1.0460000  1
  11579  11577  11576  11598     1  0.0000000  0.0000000  3
  11579  11577  11580  11581     1  0.0000000  0.6508444  3
  11579  11577  11580  11588     1  0.0000000  1.0460000  1
  11579  11577  11580  11588     1  0.0000000  0.0000000  3
  11579  11577  11580  11584     1  0.0000000  0.6508444  3
  11579  11577  11589  11592     1  0.0000000  0.6973333  3
  11580  11577  11589  11592     1  0.0000000  1.0460000  1
  11580  11577  11589  11592     1  0.0000000  0.6694400  3
  11580  11581  11582  11585     1  0.0000000  0.6508444  3
  11580  11581  11587  11593     1  0.0000000  1.0460000  1
  11580  11581  11587  11593     1  0.0000000  0.6694400  3
  11581  11580  11588  11591     1  0.0000000  1.0460000  1
  11581  11580  11588  11591     1  0.0000000  0.6694400  3
  11582  11581  11580  11584     1  0.0000000  0.6508444  3
  11582  11581  11587  11593     1  0.0000000  1.0460000  1
  11582  11581  11587  11593     1  0.0000000  0.6694400  3
  11583  11581  11580  11588     1  0.0000000  1.0460000  1
  11583  11581  11580  11588     1  0.0000000  0.0000000  3
  11583  11581  11580  11584     1  0.0000000  0.6508444  3
  11583  11581  11582  11586     1  0.0000000  1.0460000  1
  11583  11581  11582  11586     1  0.0000000  0.0000000  3
  11583  11581  11582  11598     1  0.0000000  1.0460000  1
  11583  11581  11582  11598     1  0.0000000  0.0000000  3
  11583  11581  11582  11585     1  0.0000000  0.6508444  3
  11583  11581  11587  11593     1  0.0000000  0.6973333  3
  11584  11580  11577  11589     1  0.0000000  1.0460000  1
  11584  11580  11577  11589     1  0.0000000  0.0000000  3
  11584  11580  11581  11587     1  0.0000000  1.0460000  1
  11584  11580  11581  11587     1  0.0000000  0.0000000  3
  11584  11580  11588  11591     1  0.0000000  0.6973333  3
  11585  11582  11581  11587     1  0.0000000  0.6508444  3
  11594  11590  11576  11598     1  0.0000000  1.0460000  1
  11594  11590  11576  11598     1  0.0000000  0.0000000  3
  11594  11590  11596  11597     1  0.0000000  0.6973333  3
  11595  11590  11576  11598     1  0.0000000  1.0460000  1
  11595  11590  11576  11598     1  0.0000000  0.0000000  3
  11595  11590  11596  11597     1  0.0000000  0.6973333  3
  11599  11600  11603  11607     1  0.0000000  0.6508444  3
  11599  11600  11612  11615     1  0.0000000  1.0460000  1
  11599  11600  11612  11615     1  0.0000000  0.6694400  3
  11599  11613  11619  11620     1  0.0000000  1.0460000  1
  11599  11613  11619  11620     1  0.0000000  0.6694400  3
  11599  11621  11605  11608     1  0.0000000  1.6038667  3
  11600  11603  11604  11606     1  0.0000000  0.6508444  3
  11600  11603  11611  11614     1  0.0000000  1.0460000  1
  11600  11603  11611  11614     1  0.0000000  0.6694400  3
  11600  11599  11613  11617     1  0.0000000  0.6508444  3
  11600  11599  11613  11618     1  0.0000000  0.6508444  3
  11601  11599  11600  11603     1  0.0000000  0.6508444  3
  11601  11599  11600  11612     1  0.0000000  1.0460000  1
  11601  11599  11600  11612     1  0.0000000  0.0000000  3
  11601  11599  11600  11602     1  0.0000000  0.6508444  3
  11601  11599  11613  11619     1  0.0000000  1.0460000  1
  11601  11599  11613  11619     1  0.0000000  0.0000000  3
  11601  11599  11613  11617     1  0.0000000  0.6508444  3
  11601  11599  11613  11618     1  0.0000000  0.6508444  3
  11601  11599  11621  11605     1  0.0000000  1.6038667  3
  11602  11600  11603  11604     1  0.0000000  0.6508444  3
  11602  11600  11603  11611     1  0.0000000  1.0460000  1
  11602  11600  11603  11611     1  0.0000000  0.0000000  3
  11602  11600  11603  11607     1  0.0000000  0.6508444  3
  11602  11600  11612  11615     1  0.0000000  0.6973333  3
  11602  11600  11599  11613     1  0.0000000  0.6508444  3
  11602  11600  11599  11621     1  0.0000000  1.0460000  1
  11602  11600  11599  11621     1  0.0000000  0.0000000  3
  11603  11604  11605  11608     1  0.0000000  0.6508444  3
  11603  11604  11610  11616     1  0.0000000  1.0460000  1
  11603  11604  11610  11616     1  0.0000000  0.6694400  3
  11603  11600  11612  11615     1  0.0000000  1.0460000  1
  11603  11600  11612  11615     1  0.0000000  0.6694400  3
  11604  11603  11611  11614     1  0.0000000  1.0460000  1
  11604  11603  11611  11614     1  0.0000000  0.6694400  3
  11605  11604  11610  11616     1  0.0000000  1.0460000  1
  11605  11604  11610  11616     1  0.0000000  0.6694400  3
  11605  11604  11603  11607     1  0.0000000  0.6508444  3
  11606  11604  11605  11609     1  0.0000000  1.0460000  1
  11606  11604  11605  11609     1  0.0000000  0.0000000  3
  11606  11604  11605  11621     1  0.0000000  1.0460000  1
  11606  11604  11605  11621     1  0.0000000  0.0000000  3
  11606  11604  11605  11608     1  0.0000000  0.6508444  3
  11606  11604  11610  11616     1  0.0000000  0.6973333  3
  11606  11604  11603  11611     1  0.0000000  1.0460000  1
  11606  11604  11603  11611     1  0.0000000  0.0000000  3
  11606  11604  11603  11607     1  0.0000000  0.6508444  3
  11607  11603  11604  11610     1  0.0000000  1.0460000  1
  11607  11603  11604  11610     1  0.0000000  0.0000000  3
  11607  11603  11611  11614     1  0.0000000  0.6973333  3
  11607  11603  11600  11612     1  0.0000000  1.0460000  1
  11607  11603  11600  11612     1  0.0000000  0.0000000  3
  11608  11605  11604  11610     1  0.0000000  0.6508444  3
  11617  11613  11619  11620     1  0.0000000  0.6973333  3
  11617  11613  11599  11621     1  0.0000000  1.0460000  1
  11617  11613  11599  11621     1  0.0000000  0.0000000  3
  11618  11613  11619  11620     1  0.0000000  0.6973333  3
  11618  11613  11599  11621     1  0.0000000  1.0460000  1
  11618  11613  11599  11621     1  0.0000000  0.0000000  3
  11622  11623  11626  11630     1  0.0000000  0.6508444  3
  11622  11623  11635  11638     1  0.0000000  1.0460000  1
  11622  11623  11635  11638     1  0.0000000  0.6694400  3
  11622  11636  11642  11643     1  0.0000000  1.0460000  1
  11622  11636  11642  11643     1  0.0000000  0.6694400  3
  11622  11644  11628  11631     1  0.0000000  1.6038667  3
  11623  11622  11636  11640     1  0.0000000  0.6508444  3
  11623  11622  11636  11641     1  0.0000000  0.6508444  3
  11623  11626  11627  11629     1  0.0000000  0.6508444  3
  11623  11626  11634  11637     1  0.0000000  1.0460000  1
  11623  11626  11634  11637     1  0.0000000  0.6694400  3
  11624  11622  11623  11626     1  0.0000000  0.6508444  3
  11624  11622  11623  11635     1  0.0000000  1.0460000  1
  11624  11622  11623  11635     1  0.0000000  0.0000000  3
  11624  11622  11623  11625     1  0.0000000  0.6508444  3
  11624  11622  11636  11642     1  0.0000000  1.0460000  1
  11624  11622  11636  11642     1  0.0000000  0.0000000  3
  11624  11622  11636  11640     1  0.0000000  0.6508444  3
  11624  11622  11636  11641     1  0.0000000  0.6508444  3
  11624  11622  11644  11628     1  0.0000000  1.6038667  3
  11625  11623  11622  11636     1  0.0000000  0.6508444  3
  11625  11623  11622  11644     1  0.0000000  1.0460000  1
  11625  11623  11622  11644     1  0.0000000  0.0000000  3
  11625  11623  11626  11627     1  0.0000000  0.6508444  3
  11625  11623  11626  11634     1  0.0000000  1.0460000  1
  11625  11623  11626  11634     1  0.0000000  0.0000000  3
  11625  11623  11626  11630     1  0.0000000  0.6508444  3
  11625  11623  11635  11638     1  0.0000000  0.6973333  3
  11626  11623  11635  11638     1  0.0000000  1.0460000  1
  11626  11623  11635  11638     1  0.0000000  0.6694400  3
  11626  11627  11628  11631     1  0.0000000  0.6508444  3
  11626  11627  11633  11639     1  0.0000000  1.0460000  1
  11626  11627  11633  11639     1  0.0000000  0.6694400  3
  11627  11626  11634  11637     1  0.0000000  1.0460000  1
  11627  11626  11634  11637     1  0.0000000  0.6694400  3
  11628  11627  11626  11630     1  0.0000000  0.6508444  3
  11628  11627  11633  11639     1  0.0000000  1.0460000  1
  11628  11627  11633  11639     1  0.0000000  0.6694400  3
  11629  11627  11626  11634     1  0.0000000  1.0460000  1
  11629  11627  11626  11634     1  0.0000000  0.0000000  3
  11629  11627  11626  11630     1  0.0000000  0.6508444  3
  11629  11627  11628  11632     1  0.0000000  1.0460000  1
  11629  11627  11628  11632     1  0.0000000  0.0000000  3
  11629  11627  11628  11644     1  0.0000000  1.0460000  1
  11629  11627  11628  11644     1  0.0000000  0.0000000  3
  11629  11627  11628  11631     1  0.0000000  0.6508444  3
  11629  11627  11633  11639     1  0.0000000  0.6973333  3
  11630  11626  11623  11635     1  0.0000000  1.0460000  1
  11630  11626  11623  11635     1  0.0000000  0.0000000  3
  11630  11626  11627  11633     1  0.0000000  1.0460000  1
  11630  11626  11627  11633     1  0.0000000  0.0000000  3
  11630  11626  11634  11637     1  0.0000000  0.6973333  3
  11631  11628  11627  11633     1  0.0000000  0.6508444  3
  11640  11636  11622  11644     1  0.0000000  1.0460000  1
  11640  11636  11622  11644     1  0.0000000  0.0000000  3
  11640  11636  11642  11643     1  0.0000000  0.6973333  3
  11641  11636  11622  11644     1  0.0000000  1.0460000  1
  11641  11636  11622  11644     1  0.0000000  0.0000000  3
  11641  11636  11642  11643     1  0.0000000  0.6973333  3
  11645  11646  11649  11653     1  0.0000000  0.6508444  3
  11645  11646  11658  11661     1  0.0000000  1.0460000  1
  11645  11646  11658  11661     1  0.0000000  0.6694400  3
  11645  11659  11665  11666     1  0.0000000  1.0460000  1
  11645  11659  11665  11666     1  0.0000000  0.6694400  3
  11645  11667  11651  11654     1  0.0000000  1.6038667  3
  11646  11649  11650  11652     1  0.0000000  0.6508444  3
  11646  11649  11657  11660     1  0.0000000  1.0460000  1
  11646  11649  11657  11660     1  0.0000000  0.6694400  3
  11646  11645  11659  11663     1  0.0000000  0.6508444  3
  11646  11645  11659  11664     1  0.0000000  0.6508444  3
  11647  11645  11646  11649     1  0.0000000  0.6508444  3
  11647  11645  11646  11658     1  0.0000000  1.0460000  1
  11647  11645  11646  11658     1  0.0000000  0.0000000  3
  11647  11645  11646  11648     1  0.0000000  0.6508444  3
  11647  11645  11659  11665     1  0.0000000  1.0460000  1
  11647  11645  11659  11665     1  0.0000000  0.0000000  3
  11647  11645  11659  11663     1  0.0000000  0.6508444  3
  11647  11645  11659  11664     1  0.0000000  0.6508444  3
  11647  11645  11667  11651     1  0.0000000  1.6038667  3
  11648  11646  11649  11650     1  0.0000000  0.6508444  3
  11648  11646  11649  11657     1  0.0000000  1.0460000  1
  11648  11646  11649  11657     1  0.0000000  0.0000000  3
  11648  11646  11649  11653     1  0.0000000  0.6508444  3
  11648  11646  11658  11661     1  0.0000000  0.6973333  3
  11648  11646  11645  11659     1  0.0000000  0.6508444  3
  11648  11646  11645  11667     1  0.0000000  1.0460000  1
  11648  11646  11645  11667     1  0.0000000  0.0000000  3
  11649  11650  11651  11654     1  0.0000000  0.6508444  3
  11649  11650  11656  11662     1  0.0000000  1.0460000  1
  11649  11650  11656  11662     1  0.0000000  0.6694400  3
  11649  11646  11658  11661     1  0.0000000  1.0460000  1
  11649  11646  11658  11661     1  0.0000000  0.6694400  3
  11650  11649  11657  11660     1  0.0000000  1.0460000  1
  11650  11649  11657  11660     1  0.0000000  0.6694400  3
  11651  11650  11656  11662     1  0.0000000  1.0460000  1
  11651  11650  11656  11662     1  0.0000000  0.6694400  3
  11651  11650  11649  11653     1  0.0000000  0.6508444  3
  11652  11650  11651  11655     1  0.0000000  1.0460000  1
  11652  11650  11651  11655     1  0.0000000  0.0000000  3
  11652  11650  11651  11667     1  0.0000000  1.0460000  1
  11652  11650  11651  11667     1  0.0000000  0.0000000  3
  11652  11650  11651  11654     1  0.0000000  0.6508444  3
  11652  11650  11656  11662     1  0.0000000  0.6973333  3
  11652  11650  11649  11657     1  0.0000000  1.0460000  1
  11652  11650  11649  11657     1  0.0000000  0.0000000  3
  11652  11650  11649  11653     1  0.0000000  0.6508444  3
  11653  11649  11650  11656     1  0.0000000  1.0460000  1
  11653  11649  11650  11656     1  0.0000000  0.0000000  3
  11653  11649  11657  11660     1  0.0000000  0.6973333  3
  11653  11649  11646  11658     1  0.0000000  1.0460000  1
  11653  11649  11646  11658     1  0.0000000  0.0000000  3
  11654  11651  11650  11656     1  0.0000000  0.6508444  3
  11663  11659  11665  11666     1  0.0000000  0.6973333  3
  11663  11659  11645  11667     1  0.0000000  1.0460000  1
  11663  11659  11645  11667     1  0.0000000  0.0000000  3
  11664  11659  11665  11666     1  0.0000000  0.6973333  3
  11664  11659  11645  11667     1  0.0000000  1.0460000  1
  11664  11659  11645  11667     1  0.0000000  0.0000000  3
  11668  11669  11672  11676     1  0.0000000  0.6508444  3
  11668  11669  11681  11684     1  0.0000000  1.0460000  1
  11668  11669  11681  11684     1  0.0000000  0.6694400  3
  11668  11682  11688  11689     1  0.0000000  1.0460000  1
  11668  11682  11688  11689     1  0.0000000  0.6694400  3
  11668  11690  11674  11677     1  0.0000000  1.6038667  3
  11669  11668  11682  11686     1  0.0000000  0.6508444  3
  11669  11668  11682  11687     1  0.0000000  0.6508444  3
  11669  11672  11673  11675     1  0.0000000  0.6508444  3
  11669  11672  11680  11683     1  0.0000000  1.0460000  1
  11669  11672  11680  11683     1  0.0000000  0.6694400  3
  11670  11668  11669  11672     1  0.0000000  0.6508444  3
  11670  11668  11669  11681     1  0.0000000  1.0460000  1
  11670  11668  11669  11681     1  0.0000000  0.0000000  3
  11670  11668  11669  11671     1  0.0000000  0.6508444  3
  11670  11668  11682  11688     1  0.0000000  1.0460000  1
  11670  11668  11682  11688     1  0.0000000  0.0000000  3
  11670  11668  11682  11686     1  0.0000000  0.6508444  3
  11670  11668  11682  11687     1  0.0000000  0.6508444  3
  11670  11668  11690  11674     1  0.0000000  1.6038667  3
  11671  11669  11668  11682     1  0.0000000  0.6508444  3
  11671  11669  11668  11690     1  0.0000000  1.0460000  1
  11671  11669  11668  11690     1  0.0000000  0.0000000  3
  11671  11669  11672  11673     1  0.0000000  0.6508444  3
  11671  11669  11672  11680     1  0.0000000  1.0460000  1
  11671  11669  11672  11680     1  0.0000000  0.0000000  3
  11671  11669  11672  11676     1  0.0000000  0.6508444  3
  11671  11669  11681  11684     1  0.0000000  0.6973333  3
  11672  11669  11681  11684     1  0.0000000  1.0460000  1
  11672  11669  11681  11684     1  0.0000000  0.6694400  3
  11672  11673  11674  11677     1  0.0000000  0.6508444  3
  11672  11673  11679  11685     1  0.0000000  1.0460000  1
  11672  11673  11679  11685     1  0.0000000  0.6694400  3
  11673  11672  11680  11683     1  0.0000000  1.0460000  1
  11673  11672  11680  11683     1  0.0000000  0.6694400  3
  11674  11673  11672  11676     1  0.0000000  0.6508444  3
  11674  11673  11679  11685     1  0.0000000  1.0460000  1
  11674  11673  11679  11685     1  0.0000000  0.6694400  3
  11675  11673  11672  11680     1  0.0000000  1.0460000  1
  11675  11673  11672  11680     1  0.0000000  0.0000000  3
  11675  11673  11672  11676     1  0.0000000  0.6508444  3
  11675  11673  11674  11678     1  0.0000000  1.0460000  1
  11675  11673  11674  11678     1  0.0000000  0.0000000  3
  11675  11673  11674  11690     1  0.0000000  1.0460000  1
  11675  11673  11674  11690     1  0.0000000  0.0000000  3
  11675  11673  11674  11677     1  0.0000000  0.6508444  3
  11675  11673  11679  11685     1  0.0000000  0.6973333  3
  11676  11672  11669  11681     1  0.0000000  1.0460000  1
  11676  11672  11669  11681     1  0.0000000  0.0000000  3
  11676  11672  11673  11679     1  0.0000000  1.0460000  1
  11676  11672  11673  11679     1  0.0000000  0.0000000  3
  11676  11672  11680  11683     1  0.0000000  0.6973333  3
  11677  11674  11673  11679     1  0.0000000  0.6508444  3
  11686  11682  11668  11690     1  0.0000000  1.0460000  1
  11686  11682  11668  11690     1  0.0000000  0.0000000  3
  11686  11682  11688  11689     1  0.0000000  0.6973333  3
  11687  11682  11668  11690     1  0.0000000  1.0460000  1
  11687  11682  11668  11690     1  0.0000000  0.0000000  3
  11687  11682  11688  11689     1  0.0000000  0.6973333  3
  11691  11692  11695  11699     1  0.0000000  0.6508444  3
  11691  11692  11704  11707     1  0.0000000  1.0460000  1
  11691  11692  11704  11707     1  0.0000000  0.6694400  3
  11691  11705  11711  11712     1  0.0000000  1.0460000  1
  11691  11705  11711  11712     1  0.0000000  0.6694400  3
  11691  11713  11697  11700     1  0.0000000  1.6038667  3
  11692  11695  11696  11698     1  0.0000000  0.6508444  3
  11692  11695  11703  11706     1  0.0000000  1.0460000  1
  11692  11695  11703  11706     1  0.0000000  0.6694400  3
  11692  11691  11705  11709     1  0.0000000  0.6508444  3
  11692  11691  11705  11710     1  0.0000000  0.6508444  3
  11693  11691  11692  11695     1  0.0000000  0.6508444  3
  11693  11691  11692  11704     1  0.0000000  1.0460000  1
  11693  11691  11692  11704     1  0.0000000  0.0000000  3
  11693  11691  11692  11694     1  0.0000000  0.6508444  3
  11693  11691  11705  11711     1  0.0000000  1.0460000  1
  11693  11691  11705  11711     1  0.0000000  0.0000000  3
  11693  11691  11705  11709     1  0.0000000  0.6508444  3
  11693  11691  11705  11710     1  0.0000000  0.6508444  3
  11693  11691  11713  11697     1  0.0000000  1.6038667  3
  11694  11692  11695  11696     1  0.0000000  0.6508444  3
  11694  11692  11695  11703     1  0.0000000  1.0460000  1
  11694  11692  11695  11703     1  0.0000000  0.0000000  3
  11694  11692  11695  11699     1  0.0000000  0.6508444  3
  11694  11692  11704  11707     1  0.0000000  0.6973333  3
  11694  11692  11691  11705     1  0.0000000  0.6508444  3
  11694  11692  11691  11713     1  0.0000000  1.0460000  1
  11694  11692  11691  11713     1  0.0000000  0.0000000  3
  11695  11696  11697  11700     1  0.0000000  0.6508444  3
  11695  11696  11702  11708     1  0.0000000  1.0460000  1
  11695  11696  11702  11708     1  0.0000000  0.6694400  3
  11695  11692  11704  11707     1  0.0000000  1.0460000  1
  11695  11692  11704  11707     1  0.0000000  0.6694400  3
  11696  11695  11703  11706     1  0.0000000  1.0460000  1
  11696  11695  11703  11706     1  0.0000000  0.6694400  3
  11697  11696  11702  11708     1  0.0000000  1.0460000  1
  11697  11696  11702  11708     1  0.0000000  0.6694400  3
  11697  11696  11695  11699     1  0.0000000  0.6508444  3
  11698  11696  11697  11701     1  0.0000000  1.0460000  1
  11698  11696  11697  11701     1  0.0000000  0.0000000  3
  11698  11696  11697  11713     1  0.0000000  1.0460000  1
  11698  11696  11697  11713     1  0.0000000  0.0000000  3
  11698  11696  11697  11700     1  0.0000000  0.6508444  3
  11698  11696  11702  11708     1  0.0000000  0.6973333  3
  11698  11696  11695  11703     1  0.0000000  1.0460000  1
  11698  11696  11695  11703     1  0.0000000  0.0000000  3
  11698  11696  11695  11699     1  0.0000000  0.6508444  3
  11699  11695  11696  11702     1  0.0000000  1.0460000  1
  11699  11695  11696  11702     1  0.0000000  0.0000000  3
  11699  11695  11703  11706     1  0.0000000  0.6973333  3
  11699  11695  11692  11704     1  0.0000000  1.0460000  1
  11699  11695  11692  11704     1  0.0000000  0.0000000  3
  11700  11697  11696  11702     1  0.0000000  0.6508444  3
  11709  11705  11711  11712     1  0.0000000  0.6973333  3
  11709  11705  11691  11713     1  0.0000000  1.0460000  1
  11709  11705  11691  11713     1  0.0000000  0.0000000  3
  11710  11705  11711  11712     1  0.0000000  0.6973333  3
  11710  11705  11691  11713     1  0.0000000  1.0460000  1
  11710  11705  11691  11713     1  0.0000000  0.0000000  3
  11714  11715  11718  11722     1  0.0000000  0.6508444  3
  11714  11715  11727  11730     1  0.0000000  1.0460000  1
  11714  11715  11727  11730     1  0.0000000  0.6694400  3
  11714  11728  11734  11735     1  0.0000000  1.0460000  1
  11714  11728  11734  11735     1  0.0000000  0.6694400  3
  11714  11736  11720  11723     1  0.0000000  1.6038667  3
  11715  11714  11728  11732     1  0.0000000  0.6508444  3
  11715  11714  11728  11733     1  0.0000000  0.6508444  3
  11715  11718  11719  11721     1  0.0000000  0.6508444  3
  11715  11718  11726  11729     1  0.0000000  1.0460000  1
  11715  11718  11726  11729     1  0.0000000  0.6694400  3
  11716  11714  11715  11718     1  0.0000000  0.6508444  3
  11716  11714  11715  11727     1  0.0000000  1.0460000  1
  11716  11714  11715  11727     1  0.0000000  0.0000000  3
  11716  11714  11715  11717     1  0.0000000  0.6508444  3
  11716  11714  11728  11734     1  0.0000000  1.0460000  1
  11716  11714  11728  11734     1  0.0000000  0.0000000  3
  11716  11714  11728  11732     1  0.0000000  0.6508444  3
  11716  11714  11728  11733     1  0.0000000  0.6508444  3
  11716  11714  11736  11720     1  0.0000000  1.6038667  3
  11717  11715  11714  11728     1  0.0000000  0.6508444  3
  11717  11715  11714  11736     1  0.0000000  1.0460000  1
  11717  11715  11714  11736     1  0.0000000  0.0000000  3
  11717  11715  11718  11719     1  0.0000000  0.6508444  3
  11717  11715  11718  11726     1  0.0000000  1.0460000  1
  11717  11715  11718  11726     1  0.0000000  0.0000000  3
  11717  11715  11718  11722     1  0.0000000  0.6508444  3
  11717  11715  11727  11730     1  0.0000000  0.6973333  3
  11718  11715  11727  11730     1  0.0000000  1.0460000  1
  11718  11715  11727  11730     1  0.0000000  0.6694400  3
  11718  11719  11720  11723     1  0.0000000  0.6508444  3
  11718  11719  11725  11731     1  0.0000000  1.0460000  1
  11718  11719  11725  11731     1  0.0000000  0.6694400  3
  11719  11718  11726  11729     1  0.0000000  1.0460000  1
  11719  11718  11726  11729     1  0.0000000  0.6694400  3
  11720  11719  11718  11722     1  0.0000000  0.6508444  3
  11720  11719  11725  11731     1  0.0000000  1.0460000  1
  11720  11719  11725  11731     1  0.0000000  0.6694400  3
  11721  11719  11718  11726     1  0.0000000  1.0460000  1
  11721  11719  11718  11726     1  0.0000000  0.0000000  3
  11721  11719  11718  11722     1  0.0000000  0.6508444  3
  11721  11719  11720  11724     1  0.0000000  1.0460000  1
  11721  11719  11720  11724     1  0.0000000  0.0000000  3
  11721  11719  11720  11736     1  0.0000000  1.0460000  1
  11721  11719  11720  11736     1  0.0000000  0.0000000  3
  11721  11719  11720  11723     1  0.0000000  0.6508444  3
  11721  11719  11725  11731     1  0.0000000  0.6973333  3
  11722  11718  11715  11727     1  0.0000000  1.0460000  1
  11722  11718  11715  11727     1  0.0000000  0.0000000  3
  11722  11718  11719  11725     1  0.0000000  1.0460000  1
  11722  11718  11719  11725     1  0.0000000  0.0000000  3
  11722  11718  11726  11729     1  0.0000000  0.6973333  3
  11723  11720  11719  11725     1  0.0000000  0.6508444  3
  11732  11728  11714  11736     1  0.0000000  1.0460000  1
  11732  11728  11714  11736     1  0.0000000  0.0000000  3
  11732  11728  11734  11735     1  0.0000000  0.6973333  3
  11733  11728  11714  11736     1  0.0000000  1.0460000  1
  11733  11728  11714  11736     1  0.0000000  0.0000000  3
  11733  11728  11734  11735     1  0.0000000  0.6973333  3
  11737  11738  11741  11745     1  0.0000000  0.6508444  3
  11737  11738  11750  11753     1  0.0000000  1.0460000  1
  11737  11738  11750  11753     1  0.0000000  0.6694400  3
  11737  11751  11757  11758     1  0.0000000  1.0460000  1
  11737  11751  11757  11758     1  0.0000000  0.6694400  3
  11737  11759  11743  11746     1  0.0000000  1.6038667  3
  11738  11741  11742  11744     1  0.0000000  0.6508444  3
  11738  11741  11749  11752     1  0.0000000  1.0460000  1
  11738  11741  11749  11752     1  0.0000000  0.6694400  3
  11738  11737  11751  11755     1  0.0000000  0.6508444  3
  11738  11737  11751  11756     1  0.0000000  0.6508444  3
  11739  11737  11738  11741     1  0.0000000  0.6508444  3
  11739  11737  11738  11750     1  0.0000000  1.0460000  1
  11739  11737  11738  11750     1  0.0000000  0.0000000  3
  11739  11737  11738  11740     1  0.0000000  0.6508444  3
  11739  11737  11751  11757     1  0.0000000  1.0460000  1
  11739  11737  11751  11757     1  0.0000000  0.0000000  3
  11739  11737  11751  11755     1  0.0000000  0.6508444  3
  11739  11737  11751  11756     1  0.0000000  0.6508444  3
  11739  11737  11759  11743     1  0.0000000  1.6038667  3
  11740  11738  11741  11742     1  0.0000000  0.6508444  3
  11740  11738  11741  11749     1  0.0000000  1.0460000  1
  11740  11738  11741  11749     1  0.0000000  0.0000000  3
  11740  11738  11741  11745     1  0.0000000  0.6508444  3
  11740  11738  11750  11753     1  0.0000000  0.6973333  3
  11740  11738  11737  11751     1  0.0000000  0.6508444  3
  11740  11738  11737  11759     1  0.0000000  1.0460000  1
  11740  11738  11737  11759     1  0.0000000  0.0000000  3
  11741  11742  11743  11746     1  0.0000000  0.6508444  3
  11741  11742  11748  11754     1  0.0000000  1.0460000  1
  11741  11742  11748  11754     1  0.0000000  0.6694400  3
  11741  11738  11750  11753     1  0.0000000  1.0460000  1
  11741  11738  11750  11753     1  0.0000000  0.6694400  3
  11742  11741  11749  11752     1  0.0000000  1.0460000  1
  11742  11741  11749  11752     1  0.0000000  0.6694400  3
  11743  11742  11748  11754     1  0.0000000  1.0460000  1
  11743  11742  11748  11754     1  0.0000000  0.6694400  3
  11743  11742  11741  11745     1  0.0000000  0.6508444  3
  11744  11742  11743  11747     1  0.0000000  1.0460000  1
  11744  11742  11743  11747     1  0.0000000  0.0000000  3
  11744  11742  11743  11759     1  0.0000000  1.0460000  1
  11744  11742  11743  11759     1  0.0000000  0.0000000  3
  11744  11742  11743  11746     1  0.0000000  0.6508444  3
  11744  11742  11748  11754     1  0.0000000  0.6973333  3
  11744  11742  11741  11749     1  0.0000000  1.0460000  1
  11744  11742  11741  11749     1  0.0000000  0.0000000  3
  11744  11742  11741  11745     1  0.0000000  0.6508444  3
  11745  11741  11742  11748     1  0.0000000  1.0460000  1
  11745  11741  11742  11748     1  0.0000000  0.0000000  3
  11745  11741  11749  11752     1  0.0000000  0.6973333  3
  11745  11741  11738  11750     1  0.0000000  1.0460000  1
  11745  11741  11738  11750     1  0.0000000  0.0000000  3
  11746  11743  11742  11748     1  0.0000000  0.6508444  3
  11755  11751  11757  11758     1  0.0000000  0.6973333  3
  11755  11751  11737  11759     1  0.0000000  1.0460000  1
  11755  11751  11737  11759     1  0.0000000  0.0000000  3
  11756  11751  11757  11758     1  0.0000000  0.6973333  3
  11756  11751  11737  11759     1  0.0000000  1.0460000  1
  11756  11751  11737  11759     1  0.0000000  0.0000000  3
  11760  11761  11764  11768     1  0.0000000  0.6508444  3
  11760  11761  11773  11776     1  0.0000000  1.0460000  1
  11760  11761  11773  11776     1  0.0000000  0.6694400  3
  11760  11774  11780  11781     1  0.0000000  1.0460000  1
  11760  11774  11780  11781     1  0.0000000  0.6694400  3
  11760  11782  11766  11769     1  0.0000000  1.6038667  3
  11761  11760  11774  11778     1  0.0000000  0.6508444  3
  11761  11760  11774  11779     1  0.0000000  0.6508444  3
  11761  11764  11765  11767     1  0.0000000  0.6508444  3
  11761  11764  11772  11775     1  0.0000000  1.0460000  1
  11761  11764  11772  11775     1  0.0000000  0.6694400  3
  11762  11760  11761  11764     1  0.0000000  0.6508444  3
  11762  11760  11761  11773     1  0.0000000  1.0460000  1
  11762  11760  11761  11773     1  0.0000000  0.0000000  3
  11762  11760  11761  11763     1  0.0000000  0.6508444  3
  11762  11760  11774  11780     1  0.0000000  1.0460000  1
  11762  11760  11774  11780     1  0.0000000  0.0000000  3
  11762  11760  11774  11778     1  0.0000000  0.6508444  3
  11762  11760  11774  11779     1  0.0000000  0.6508444  3
  11762  11760  11782  11766     1  0.0000000  1.6038667  3
  11763  11761  11760  11774     1  0.0000000  0.6508444  3
  11763  11761  11760  11782     1  0.0000000  1.0460000  1
  11763  11761  11760  11782     1  0.0000000  0.0000000  3
  11763  11761  11764  11765     1  0.0000000  0.6508444  3
  11763  11761  11764  11772     1  0.0000000  1.0460000  1
  11763  11761  11764  11772     1  0.0000000  0.0000000  3
  11763  11761  11764  11768     1  0.0000000  0.6508444  3
  11763  11761  11773  11776     1  0.0000000  0.6973333  3
  11764  11761  11773  11776     1  0.0000000  1.0460000  1
  11764  11761  11773  11776     1  0.0000000  0.6694400  3
  11764  11765  11766  11769     1  0.0000000  0.6508444  3
  11764  11765  11771  11777     1  0.0000000  1.0460000  1
  11764  11765  11771  11777     1  0.0000000  0.6694400  3
  11765  11764  11772  11775     1  0.0000000  1.0460000  1
  11765  11764  11772  11775     1  0.0000000  0.6694400  3
  11766  11765  11764  11768     1  0.0000000  0.6508444  3
  11766  11765  11771  11777     1  0.0000000  1.0460000  1
  11766  11765  11771  11777     1  0.0000000  0.6694400  3
  11767  11765  11764  11772     1  0.0000000  1.0460000  1
  11767  11765  11764  11772     1  0.0000000  0.0000000  3
  11767  11765  11764  11768     1  0.0000000  0.6508444  3
  11767  11765  11766  11770     1  0.0000000  1.0460000  1
  11767  11765  11766  11770     1  0.0000000  0.0000000  3
  11767  11765  11766  11782     1  0.0000000  1.0460000  1
  11767  11765  11766  11782     1  0.0000000  0.0000000  3
  11767  11765  11766  11769     1  0.0000000  0.6508444  3
  11767  11765  11771  11777     1  0.0000000  0.6973333  3
  11768  11764  11761  11773     1  0.0000000  1.0460000  1
  11768  11764  11761  11773     1  0.0000000  0.0000000  3
  11768  11764  11765  11771     1  0.0000000  1.0460000  1
  11768  11764  11765  11771     1  0.0000000  0.0000000  3
  11768  11764  11772  11775     1  0.0000000  0.6973333  3
  11769  11766  11765  11771     1  0.0000000  0.6508444  3
  11778  11774  11760  11782     1  0.0000000  1.0460000  1
  11778  11774  11760  11782     1  0.0000000  0.0000000  3
  11778  11774  11780  11781     1  0.0000000  0.6973333  3
  11779  11774  11760  11782     1  0.0000000  1.0460000  1
  11779  11774  11760  11782     1  0.0000000  0.0000000  3
  11779  11774  11780  11781     1  0.0000000  0.6973333  3
  11783  11784  11787  11791     1  0.0000000  0.6508444  3
  11783  11784  11796  11799     1  0.0000000  1.0460000  1
  11783  11784  11796  11799     1  0.0000000  0.6694400  3
  11783  11797  11803  11804     1  0.0000000  1.0460000  1
  11783  11797  11803  11804     1  0.0000000  0.6694400  3
  11783  11805  11789  11792     1  0.0000000  1.6038667  3
  11784  11787  11788  11790     1  0.0000000  0.6508444  3
  11784  11787  11795  11798     1  0.0000000  1.0460000  1
  11784  11787  11795  11798     1  0.0000000  0.6694400  3
  11784  11783  11797  11801     1  0.0000000  0.6508444  3
  11784  11783  11797  11802     1  0.0000000  0.6508444  3
  11785  11783  11784  11787     1  0.0000000  0.6508444  3
  11785  11783  11784  11796     1  0.0000000  1.0460000  1
  11785  11783  11784  11796     1  0.0000000  0.0000000  3
  11785  11783  11784  11786     1  0.0000000  0.6508444  3
  11785  11783  11797  11803     1  0.0000000  1.0460000  1
  11785  11783  11797  11803     1  0.0000000  0.0000000  3
  11785  11783  11797  11801     1  0.0000000  0.6508444  3
  11785  11783  11797  11802     1  0.0000000  0.6508444  3
  11785  11783  11805  11789     1  0.0000000  1.6038667  3
  11786  11784  11787  11788     1  0.0000000  0.6508444  3
  11786  11784  11787  11795     1  0.0000000  1.0460000  1
  11786  11784  11787  11795     1  0.0000000  0.0000000  3
  11786  11784  11787  11791     1  0.0000000  0.6508444  3
  11786  11784  11796  11799     1  0.0000000  0.6973333  3
  11786  11784  11783  11797     1  0.0000000  0.6508444  3
  11786  11784  11783  11805     1  0.0000000  1.0460000  1
  11786  11784  11783  11805     1  0.0000000  0.0000000  3
  11787  11788  11789  11792     1  0.0000000  0.6508444  3
  11787  11788  11794  11800     1  0.0000000  1.0460000  1
  11787  11788  11794  11800     1  0.0000000  0.6694400  3
  11787  11784  11796  11799     1  0.0000000  1.0460000  1
  11787  11784  11796  11799     1  0.0000000  0.6694400  3
  11788  11787  11795  11798     1  0.0000000  1.0460000  1
  11788  11787  11795  11798     1  0.0000000  0.6694400  3
  11789  11788  11794  11800     1  0.0000000  1.0460000  1
  11789  11788  11794  11800     1  0.0000000  0.6694400  3
  11789  11788  11787  11791     1  0.0000000  0.6508444  3
  11790  11788  11789  11793     1  0.0000000  1.0460000  1
  11790  11788  11789  11793     1  0.0000000  0.0000000  3
  11790  11788  11789  11805     1  0.0000000  1.0460000  1
  11790  11788  11789  11805     1  0.0000000  0.0000000  3
  11790  11788  11789  11792     1  0.0000000  0.6508444  3
  11790  11788  11794  11800     1  0.0000000  0.6973333  3
  11790  11788  11787  11795     1  0.0000000  1.0460000  1
  11790  11788  11787  11795     1  0.0000000  0.0000000  3
  11790  11788  11787  11791     1  0.0000000  0.6508444  3
  11791  11787  11788  11794     1  0.0000000  1.0460000  1
  11791  11787  11788  11794     1  0.0000000  0.0000000  3
  11791  11787  11795  11798     1  0.0000000  0.6973333  3
  11791  11787  11784  11796     1  0.0000000  1.0460000  1
  11791  11787  11784  11796     1  0.0000000  0.0000000  3
  11792  11789  11788  11794     1  0.0000000  0.6508444  3
  11801  11797  11803  11804     1  0.0000000  0.6973333  3
  11801  11797  11783  11805     1  0.0000000  1.0460000  1
  11801  11797  11783  11805     1  0.0000000  0.0000000  3
  11802  11797  11803  11804     1  0.0000000  0.6973333  3
  11802  11797  11783  11805     1  0.0000000  1.0460000  1
  11802  11797  11783  11805     1  0.0000000  0.0000000  3
  11806  11807  11810  11814     1  0.0000000  0.6508444  3
  11806  11807  11819  11822     1  0.0000000  1.0460000  1
  11806  11807  11819  11822     1  0.0000000  0.6694400  3
  11806  11820  11826  11827     1  0.0000000  1.0460000  1
  11806  11820  11826  11827     1  0.0000000  0.6694400  3
  11806  11828  11812  11815     1  0.0000000  1.6038667  3
  11807  11806  11820  11824     1  0.0000000  0.6508444  3
  11807  11806  11820  11825     1  0.0000000  0.6508444  3
  11807  11810  11811  11813     1  0.0000000  0.6508444  3
  11807  11810  11818  11821     1  0.0000000  1.0460000  1
  11807  11810  11818  11821     1  0.0000000  0.6694400  3
  11808  11806  11807  11810     1  0.0000000  0.6508444  3
  11808  11806  11807  11819     1  0.0000000  1.0460000  1
  11808  11806  11807  11819     1  0.0000000  0.0000000  3
  11808  11806  11807  11809     1  0.0000000  0.6508444  3
  11808  11806  11820  11826     1  0.0000000  1.0460000  1
  11808  11806  11820  11826     1  0.0000000  0.0000000  3
  11808  11806  11820  11824     1  0.0000000  0.6508444  3
  11808  11806  11820  11825     1  0.0000000  0.6508444  3
  11808  11806  11828  11812     1  0.0000000  1.6038667  3
  11809  11807  11806  11820     1  0.0000000  0.6508444  3
  11809  11807  11806  11828     1  0.0000000  1.0460000  1
  11809  11807  11806  11828     1  0.0000000  0.0000000  3
  11809  11807  11810  11811     1  0.0000000  0.6508444  3
  11809  11807  11810  11818     1  0.0000000  1.0460000  1
  11809  11807  11810  11818     1  0.0000000  0.0000000  3
  11809  11807  11810  11814     1  0.0000000  0.6508444  3
  11809  11807  11819  11822     1  0.0000000  0.6973333  3
  11810  11807  11819  11822     1  0.0000000  1.0460000  1
  11810  11807  11819  11822     1  0.0000000  0.6694400  3
  11810  11811  11812  11815     1  0.0000000  0.6508444  3
  11810  11811  11817  11823     1  0.0000000  1.0460000  1
  11810  11811  11817  11823     1  0.0000000  0.6694400  3
  11811  11810  11818  11821     1  0.0000000  1.0460000  1
  11811  11810  11818  11821     1  0.0000000  0.6694400  3
  11812  11811  11810  11814     1  0.0000000  0.6508444  3
  11812  11811  11817  11823     1  0.0000000  1.0460000  1
  11812  11811  11817  11823     1  0.0000000  0.6694400  3
  11813  11811  11810  11818     1  0.0000000  1.0460000  1
  11813  11811  11810  11818     1  0.0000000  0.0000000  3
  11813  11811  11810  11814     1  0.0000000  0.6508444  3
  11813  11811  11812  11816     1  0.0000000  1.0460000  1
  11813  11811  11812  11816     1  0.0000000  0.0000000  3
  11813  11811  11812  11828     1  0.0000000  1.0460000  1
  11813  11811  11812  11828     1  0.0000000  0.0000000  3
  11813  11811  11812  11815     1  0.0000000  0.6508444  3
  11813  11811  11817  11823     1  0.0000000  0.6973333  3
  11814  11810  11807  11819     1  0.0000000  1.0460000  1
  11814  11810  11807  11819     1  0.0000000  0.0000000  3
  11814  11810  11811  11817     1  0.0000000  1.0460000  1
  11814  11810  11811  11817     1  0.0000000  0.0000000  3
  11814  11810  11818  11821     1  0.0000000  0.6973333  3
  11815  11812  11811  11817     1  0.0000000  0.6508444  3
  11824  11820  11806  11828     1  0.0000000  1.0460000  1
  11824  11820  11806  11828     1  0.0000000  0.0000000  3
  11824  11820  11826  11827     1  0.0000000  0.6973333  3
  11825  11820  11806  11828     1  0.0000000  1.0460000  1
  11825  11820  11806  11828     1  0.0000000  0.0000000  3
  11825  11820  11826  11827     1  0.0000000  0.6973333  3
  11829  11830  11833  11837     1  0.0000000  0.6508444  3
  11829  11830  11842  11845     1  0.0000000  1.0460000  1
  11829  11830  11842  11845     1  0.0000000  0.6694400  3
  11829  11843  11849  11850     1  0.0000000  1.0460000  1
  11829  11843  11849  11850     1  0.0000000  0.6694400  3
  11829  11851  11835  11838     1  0.0000000  1.6038667  3
  11830  11833  11834  11836     1  0.0000000  0.6508444  3
  11830  11833  11841  11844     1  0.0000000  1.0460000  1
  11830  11833  11841  11844     1  0.0000000  0.6694400  3
  11830  11829  11843  11847     1  0.0000000  0.6508444  3
  11830  11829  11843  11848     1  0.0000000  0.6508444  3
  11831  11829  11830  11833     1  0.0000000  0.6508444  3
  11831  11829  11830  11842     1  0.0000000  1.0460000  1
  11831  11829  11830  11842     1  0.0000000  0.0000000  3
  11831  11829  11830  11832     1  0.0000000  0.6508444  3
  11831  11829  11843  11849     1  0.0000000  1.0460000  1
  11831  11829  11843  11849     1  0.0000000  0.0000000  3
  11831  11829  11843  11847     1  0.0000000  0.6508444  3
  11831  11829  11843  11848     1  0.0000000  0.6508444  3
  11831  11829  11851  11835     1  0.0000000  1.6038667  3
  11832  11830  11833  11834     1  0.0000000  0.6508444  3
  11832  11830  11833  11841     1  0.0000000  1.0460000  1
  11832  11830  11833  11841     1  0.0000000  0.0000000  3
  11832  11830  11833  11837     1  0.0000000  0.6508444  3
  11832  11830  11842  11845     1  0.0000000  0.6973333  3
  11832  11830  11829  11843     1  0.0000000  0.6508444  3
  11832  11830  11829  11851     1  0.0000000  1.0460000  1
  11832  11830  11829  11851     1  0.0000000  0.0000000  3
  11833  11834  11835  11838     1  0.0000000  0.6508444  3
  11833  11834  11840  11846     1  0.0000000  1.0460000  1
  11833  11834  11840  11846     1  0.0000000  0.6694400  3
  11833  11830  11842  11845     1  0.0000000  1.0460000  1
  11833  11830  11842  11845     1  0.0000000  0.6694400  3
  11834  11833  11841  11844     1  0.0000000  1.0460000  1
  11834  11833  11841  11844     1  0.0000000  0.6694400  3
  11835  11834  11840  11846     1  0.0000000  1.0460000  1
  11835  11834  11840  11846     1  0.0000000  0.6694400  3
  11835  11834  11833  11837     1  0.0000000  0.6508444  3
  11836  11834  11835  11839     1  0.0000000  1.0460000  1
  11836  11834  11835  11839     1  0.0000000  0.0000000  3
  11836  11834  11835  11851     1  0.0000000  1.0460000  1
  11836  11834  11835  11851     1  0.0000000  0.0000000  3
  11836  11834  11835  11838     1  0.0000000  0.6508444  3
  11836  11834  11840  11846     1  0.0000000  0.6973333  3
  11836  11834  11833  11841     1  0.0000000  1.0460000  1
  11836  11834  11833  11841     1  0.0000000  0.0000000  3
  11836  11834  11833  11837     1  0.0000000  0.6508444  3
  11837  11833  11834  11840     1  0.0000000  1.0460000  1
  11837  11833  11834  11840     1  0.0000000  0.0000000  3
  11837  11833  11841  11844     1  0.0000000  0.6973333  3
  11837  11833  11830  11842     1  0.0000000  1.0460000  1
  11837  11833  11830  11842     1  0.0000000  0.0000000  3
  11838  11835  11834  11840     1  0.0000000  0.6508444  3
  11847  11843  11849  11850     1  0.0000000  0.6973333  3
  11847  11843  11829  11851     1  0.0000000  1.0460000  1
  11847  11843  11829  11851     1  0.0000000  0.0000000  3
  11848  11843  11849  11850     1  0.0000000  0.6973333  3
  11848  11843  11829  11851     1  0.0000000  1.0460000  1
  11848  11843  11829  11851     1  0.0000000  0.0000000  3
  11852  11853  11856  11860     1  0.0000000  0.6508444  3
  11852  11853  11865  11868     1  0.0000000  1.0460000  1
  11852  11853  11865  11868     1  0.0000000  0.6694400  3
  11852  11866  11872  11873     1  0.0000000  1.0460000  1
  11852  11866  11872  11873     1  0.0000000  0.6694400  3
  11852  11874  11858  11861     1  0.0000000  1.6038667  3
  11853  11852  11866  11870     1  0.0000000  0.6508444  3
  11853  11852  11866  11871     1  0.0000000  0.6508444  3
  11853  11856  11857  11859     1  0.0000000  0.6508444  3
  11853  11856  11864  11867     1  0.0000000  1.0460000  1
  11853  11856  11864  11867     1  0.0000000  0.6694400  3
  11854  11852  11853  11856     1  0.0000000  0.6508444  3
  11854  11852  11853  11865     1  0.0000000  1.0460000  1
  11854  11852  11853  11865     1  0.0000000  0.0000000  3
  11854  11852  11853  11855     1  0.0000000  0.6508444  3
  11854  11852  11866  11872     1  0.0000000  1.0460000  1
  11854  11852  11866  11872     1  0.0000000  0.0000000  3
  11854  11852  11866  11870     1  0.0000000  0.6508444  3
  11854  11852  11866  11871     1  0.0000000  0.6508444  3
  11854  11852  11874  11858     1  0.0000000  1.6038667  3
  11855  11853  11852  11866     1  0.0000000  0.6508444  3
  11855  11853  11852  11874     1  0.0000000  1.0460000  1
  11855  11853  11852  11874     1  0.0000000  0.0000000  3
  11855  11853  11856  11857     1  0.0000000  0.6508444  3
  11855  11853  11856  11864     1  0.0000000  1.0460000  1
  11855  11853  11856  11864     1  0.0000000  0.0000000  3
  11855  11853  11856  11860     1  0.0000000  0.6508444  3
  11855  11853  11865  11868     1  0.0000000  0.6973333  3
  11856  11853  11865  11868     1  0.0000000  1.0460000  1
  11856  11853  11865  11868     1  0.0000000  0.6694400  3
  11856  11857  11858  11861     1  0.0000000  0.6508444  3
  11856  11857  11863  11869     1  0.0000000  1.0460000  1
  11856  11857  11863  11869     1  0.0000000  0.6694400  3
  11857  11856  11864  11867     1  0.0000000  1.0460000  1
  11857  11856  11864  11867     1  0.0000000  0.6694400  3
  11858  11857  11856  11860     1  0.0000000  0.6508444  3
  11858  11857  11863  11869     1  0.0000000  1.0460000  1
  11858  11857  11863  11869     1  0.0000000  0.6694400  3
  11859  11857  11856  11864     1  0.0000000  1.0460000  1
  11859  11857  11856  11864     1  0.0000000  0.0000000  3
  11859  11857  11856  11860     1  0.0000000  0.6508444  3
  11859  11857  11858  11862     1  0.0000000  1.0460000  1
  11859  11857  11858  11862     1  0.0000000  0.0000000  3
  11859  11857  11858  11874     1  0.0000000  1.0460000  1
  11859  11857  11858  11874     1  0.0000000  0.0000000  3
  11859  11857  11858  11861     1  0.0000000  0.6508444  3
  11859  11857  11863  11869     1  0.0000000  0.6973333  3
  11860  11856  11853  11865     1  0.0000000  1.0460000  1
  11860  11856  11853  11865     1  0.0000000  0.0000000  3
  11860  11856  11857  11863     1  0.0000000  1.0460000  1
  11860  11856  11857  11863     1  0.0000000  0.0000000  3
  11860  11856  11864  11867     1  0.0000000  0.6973333  3
  11861  11858  11857  11863     1  0.0000000  0.6508444  3
  11870  11866  11852  11874     1  0.0000000  1.0460000  1
  11870  11866  11852  11874     1  0.0000000  0.0000000  3
  11870  11866  11872  11873     1  0.0000000  0.6973333  3
  11871  11866  11852  11874     1  0.0000000  1.0460000  1
  11871  11866  11852  11874     1  0.0000000  0.0000000  3
  11871  11866  11872  11873     1  0.0000000  0.6973333  3
  11875  11876  11879  11883     1  0.0000000  0.6508444  3
  11875  11876  11888  11891     1  0.0000000  1.0460000  1
  11875  11876  11888  11891     1  0.0000000  0.6694400  3
  11875  11889  11895  11896     1  0.0000000  1.0460000  1
  11875  11889  11895  11896     1  0.0000000  0.6694400  3
  11875  11897  11881  11884     1  0.0000000  1.6038667  3
  11876  11879  11880  11882     1  0.0000000  0.6508444  3
  11876  11879  11887  11890     1  0.0000000  1.0460000  1
  11876  11879  11887  11890     1  0.0000000  0.6694400  3
  11876  11875  11889  11893     1  0.0000000  0.6508444  3
  11876  11875  11889  11894     1  0.0000000  0.6508444  3
  11877  11875  11876  11879     1  0.0000000  0.6508444  3
  11877  11875  11876  11888     1  0.0000000  1.0460000  1
  11877  11875  11876  11888     1  0.0000000  0.0000000  3
  11877  11875  11876  11878     1  0.0000000  0.6508444  3
  11877  11875  11889  11895     1  0.0000000  1.0460000  1
  11877  11875  11889  11895     1  0.0000000  0.0000000  3
  11877  11875  11889  11893     1  0.0000000  0.6508444  3
  11877  11875  11889  11894     1  0.0000000  0.6508444  3
  11877  11875  11897  11881     1  0.0000000  1.6038667  3
  11878  11876  11879  11880     1  0.0000000  0.6508444  3
  11878  11876  11879  11887     1  0.0000000  1.0460000  1
  11878  11876  11879  11887     1  0.0000000  0.0000000  3
  11878  11876  11879  11883     1  0.0000000  0.6508444  3
  11878  11876  11888  11891     1  0.0000000  0.6973333  3
  11878  11876  11875  11889     1  0.0000000  0.6508444  3
  11878  11876  11875  11897     1  0.0000000  1.0460000  1
  11878  11876  11875  11897     1  0.0000000  0.0000000  3
  11879  11880  11881  11884     1  0.0000000  0.6508444  3
  11879  11880  11886  11892     1  0.0000000  1.0460000  1
  11879  11880  11886  11892     1  0.0000000  0.6694400  3
  11879  11876  11888  11891     1  0.0000000  1.0460000  1
  11879  11876  11888  11891     1  0.0000000  0.6694400  3
  11880  11879  11887  11890     1  0.0000000  1.0460000  1
  11880  11879  11887  11890     1  0.0000000  0.6694400  3
  11881  11880  11886  11892     1  0.0000000  1.0460000  1
  11881  11880  11886  11892     1  0.0000000  0.6694400  3
  11881  11880  11879  11883     1  0.0000000  0.6508444  3
  11882  11880  11881  11885     1  0.0000000  1.0460000  1
  11882  11880  11881  11885     1  0.0000000  0.0000000  3
  11882  11880  11881  11897     1  0.0000000  1.0460000  1
  11882  11880  11881  11897     1  0.0000000  0.0000000  3
  11882  11880  11881  11884     1  0.0000000  0.6508444  3
  11882  11880  11886  11892     1  0.0000000  0.6973333  3
  11882  11880  11879  11887     1  0.0000000  1.0460000  1
  11882  11880  11879  11887     1  0.0000000  0.0000000  3
  11882  11880  11879  11883     1  0.0000000  0.6508444  3
  11883  11879  11880  11886     1  0.0000000  1.0460000  1
  11883  11879  11880  11886     1  0.0000000  0.0000000  3
  11883  11879  11887  11890     1  0.0000000  0.6973333  3
  11883  11879  11876  11888     1  0.0000000  1.0460000  1
  11883  11879  11876  11888     1  0.0000000  0.0000000  3
  11884  11881  11880  11886     1  0.0000000  0.6508444  3
  11893  11889  11895  11896     1  0.0000000  0.6973333  3
  11893  11889  11875  11897     1  0.0000000  1.0460000  1
  11893  11889  11875  11897     1  0.0000000  0.0000000  3
  11894  11889  11895  11896     1  0.0000000  0.6973333  3
  11894  11889  11875  11897     1  0.0000000  1.0460000  1
  11894  11889  11875  11897     1  0.0000000  0.0000000  3
  11898  11899  11902  11906     1  0.0000000  0.6508444  3
  11898  11899  11911  11914     1  0.0000000  1.0460000  1
  11898  11899  11911  11914     1  0.0000000  0.6694400  3
  11898  11912  11918  11919     1  0.0000000  1.0460000  1
  11898  11912  11918  11919     1  0.0000000  0.6694400  3
  11898  11920  11904  11907     1  0.0000000  1.6038667  3
  11899  11898  11912  11916     1  0.0000000  0.6508444  3
  11899  11898  11912  11917     1  0.0000000  0.6508444  3
  11899  11902  11903  11905     1  0.0000000  0.6508444  3
  11899  11902  11910  11913     1  0.0000000  1.0460000  1
  11899  11902  11910  11913     1  0.0000000  0.6694400  3
  11900  11898  11899  11902     1  0.0000000  0.6508444  3
  11900  11898  11899  11911     1  0.0000000  1.0460000  1
  11900  11898  11899  11911     1  0.0000000  0.0000000  3
  11900  11898  11899  11901     1  0.0000000  0.6508444  3
  11900  11898  11912  11918     1  0.0000000  1.0460000  1
  11900  11898  11912  11918     1  0.0000000  0.0000000  3
  11900  11898  11912  11916     1  0.0000000  0.6508444  3
  11900  11898  11912  11917     1  0.0000000  0.6508444  3
  11900  11898  11920  11904     1  0.0000000  1.6038667  3
  11901  11899  11898  11912     1  0.0000000  0.6508444  3
  11901  11899  11898  11920     1  0.0000000  1.0460000  1
  11901  11899  11898  11920     1  0.0000000  0.0000000  3
  11901  11899  11902  11903     1  0.0000000  0.6508444  3
  11901  11899  11902  11910     1  0.0000000  1.0460000  1
  11901  11899  11902  11910     1  0.0000000  0.0000000  3
  11901  11899  11902  11906     1  0.0000000  0.6508444  3
  11901  11899  11911  11914     1  0.0000000  0.6973333  3
  11902  11899  11911  11914     1  0.0000000  1.0460000  1
  11902  11899  11911  11914     1  0.0000000  0.6694400  3
  11902  11903  11904  11907     1  0.0000000  0.6508444  3
  11902  11903  11909  11915     1  0.0000000  1.0460000  1
  11902  11903  11909  11915     1  0.0000000  0.6694400  3
  11903  11902  11910  11913     1  0.0000000  1.0460000  1
  11903  11902  11910  11913     1  0.0000000  0.6694400  3
  11904  11903  11902  11906     1  0.0000000  0.6508444  3
  11904  11903  11909  11915     1  0.0000000  1.0460000  1
  11904  11903  11909  11915     1  0.0000000  0.6694400  3
  11905  11903  11902  11910     1  0.0000000  1.0460000  1
  11905  11903  11902  11910     1  0.0000000  0.0000000  3
  11905  11903  11902  11906     1  0.0000000  0.6508444  3
  11905  11903  11904  11908     1  0.0000000  1.0460000  1
  11905  11903  11904  11908     1  0.0000000  0.0000000  3
  11905  11903  11904  11920     1  0.0000000  1.0460000  1
  11905  11903  11904  11920     1  0.0000000  0.0000000  3
  11905  11903  11904  11907     1  0.0000000  0.6508444  3
  11905  11903  11909  11915     1  0.0000000  0.6973333  3
  11906  11902  11899  11911     1  0.0000000  1.0460000  1
  11906  11902  11899  11911     1  0.0000000  0.0000000  3
  11906  11902  11903  11909     1  0.0000000  1.0460000  1
  11906  11902  11903  11909     1  0.0000000  0.0000000  3
  11906  11902  11910  11913     1  0.0000000  0.6973333  3
  11907  11904  11903  11909     1  0.0000000  0.6508444  3
  11916  11912  11898  11920     1  0.0000000  1.0460000  1
  11916  11912  11898  11920     1  0.0000000  0.0000000  3
  11916  11912  11918  11919     1  0.0000000  0.6973333  3
  11917  11912  11898  11920     1  0.0000000  1.0460000  1
  11917  11912  11898  11920     1  0.0000000  0.0000000  3
  11917  11912  11918  11919     1  0.0000000  0.6973333  3
  11921  11922  11925  11929     1  0.0000000  0.6508444  3
  11921  11922  11934  11937     1  0.0000000  1.0460000  1
  11921  11922  11934  11937     1  0.0000000  0.6694400  3
  11921  11935  11941  11942     1  0.0000000  1.0460000  1
  11921  11935  11941  11942     1  0.0000000  0.6694400  3
  11921  11943  11927  11930     1  0.0000000  1.6038667  3
  11922  11925  11926  11928     1  0.0000000  0.6508444  3
  11922  11925  11933  11936     1  0.0000000  1.0460000  1
  11922  11925  11933  11936     1  0.0000000  0.6694400  3
  11922  11921  11935  11939     1  0.0000000  0.6508444  3
  11922  11921  11935  11940     1  0.0000000  0.6508444  3
  11923  11921  11922  11925     1  0.0000000  0.6508444  3
  11923  11921  11922  11934     1  0.0000000  1.0460000  1
  11923  11921  11922  11934     1  0.0000000  0.0000000  3
  11923  11921  11922  11924     1  0.0000000  0.6508444  3
  11923  11921  11935  11941     1  0.0000000  1.0460000  1
  11923  11921  11935  11941     1  0.0000000  0.0000000  3
  11923  11921  11935  11939     1  0.0000000  0.6508444  3
  11923  11921  11935  11940     1  0.0000000  0.6508444  3
  11923  11921  11943  11927     1  0.0000000  1.6038667  3
  11924  11922  11925  11926     1  0.0000000  0.6508444  3
  11924  11922  11925  11933     1  0.0000000  1.0460000  1
  11924  11922  11925  11933     1  0.0000000  0.0000000  3
  11924  11922  11925  11929     1  0.0000000  0.6508444  3
  11924  11922  11934  11937     1  0.0000000  0.6973333  3
  11924  11922  11921  11935     1  0.0000000  0.6508444  3
  11924  11922  11921  11943     1  0.0000000  1.0460000  1
  11924  11922  11921  11943     1  0.0000000  0.0000000  3
  11925  11926  11927  11930     1  0.0000000  0.6508444  3
  11925  11926  11932  11938     1  0.0000000  1.0460000  1
  11925  11926  11932  11938     1  0.0000000  0.6694400  3
  11925  11922  11934  11937     1  0.0000000  1.0460000  1
  11925  11922  11934  11937     1  0.0000000  0.6694400  3
  11926  11925  11933  11936     1  0.0000000  1.0460000  1
  11926  11925  11933  11936     1  0.0000000  0.6694400  3
  11927  11926  11932  11938     1  0.0000000  1.0460000  1
  11927  11926  11932  11938     1  0.0000000  0.6694400  3
  11927  11926  11925  11929     1  0.0000000  0.6508444  3
  11928  11926  11927  11931     1  0.0000000  1.0460000  1
  11928  11926  11927  11931     1  0.0000000  0.0000000  3
  11928  11926  11927  11943     1  0.0000000  1.0460000  1
  11928  11926  11927  11943     1  0.0000000  0.0000000  3
  11928  11926  11927  11930     1  0.0000000  0.6508444  3
  11928  11926  11932  11938     1  0.0000000  0.6973333  3
  11928  11926  11925  11933     1  0.0000000  1.0460000  1
  11928  11926  11925  11933     1  0.0000000  0.0000000  3
  11928  11926  11925  11929     1  0.0000000  0.6508444  3
  11929  11925  11926  11932     1  0.0000000  1.0460000  1
  11929  11925  11926  11932     1  0.0000000  0.0000000  3
  11929  11925  11933  11936     1  0.0000000  0.6973333  3
  11929  11925  11922  11934     1  0.0000000  1.0460000  1
  11929  11925  11922  11934     1  0.0000000  0.0000000  3
  11930  11927  11926  11932     1  0.0000000  0.6508444  3
  11939  11935  11941  11942     1  0.0000000  0.6973333  3
  11939  11935  11921  11943     1  0.0000000  1.0460000  1
  11939  11935  11921  11943     1  0.0000000  0.0000000  3
  11940  11935  11941  11942     1  0.0000000  0.6973333  3
  11940  11935  11921  11943     1  0.0000000  1.0460000  1
  11940  11935  11921  11943     1  0.0000000  0.0000000  3
  11944  11945  11948  11952     1  0.0000000  0.6508444  3
  11944  11945  11957  11960     1  0.0000000  1.0460000  1
  11944  11945  11957  11960     1  0.0000000  0.6694400  3
  11944  11958  11964  11965     1  0.0000000  1.0460000  1
  11944  11958  11964  11965     1  0.0000000  0.6694400  3
  11944  11966  11950  11953     1  0.0000000  1.6038667  3
  11945  11944  11958  11962     1  0.0000000  0.6508444  3
  11945  11944  11958  11963     1  0.0000000  0.6508444  3
  11945  11948  11949  11951     1  0.0000000  0.6508444  3
  11945  11948  11956  11959     1  0.0000000  1.0460000  1
  11945  11948  11956  11959     1  0.0000000  0.6694400  3
  11946  11944  11945  11948     1  0.0000000  0.6508444  3
  11946  11944  11945  11957     1  0.0000000  1.0460000  1
  11946  11944  11945  11957     1  0.0000000  0.0000000  3
  11946  11944  11945  11947     1  0.0000000  0.6508444  3
  11946  11944  11958  11964     1  0.0000000  1.0460000  1
  11946  11944  11958  11964     1  0.0000000  0.0000000  3
  11946  11944  11958  11962     1  0.0000000  0.6508444  3
  11946  11944  11958  11963     1  0.0000000  0.6508444  3
  11946  11944  11966  11950     1  0.0000000  1.6038667  3
  11947  11945  11944  11958     1  0.0000000  0.6508444  3
  11947  11945  11944  11966     1  0.0000000  1.0460000  1
  11947  11945  11944  11966     1  0.0000000  0.0000000  3
  11947  11945  11948  11949     1  0.0000000  0.6508444  3
  11947  11945  11948  11956     1  0.0000000  1.0460000  1
  11947  11945  11948  11956     1  0.0000000  0.0000000  3
  11947  11945  11948  11952     1  0.0000000  0.6508444  3
  11947  11945  11957  11960     1  0.0000000  0.6973333  3
  11948  11945  11957  11960     1  0.0000000  1.0460000  1
  11948  11945  11957  11960     1  0.0000000  0.6694400  3
  11948  11949  11950  11953     1  0.0000000  0.6508444  3
  11948  11949  11955  11961     1  0.0000000  1.0460000  1
  11948  11949  11955  11961     1  0.0000000  0.6694400  3
  11949  11948  11956  11959     1  0.0000000  1.0460000  1
  11949  11948  11956  11959     1  0.0000000  0.6694400  3
  11950  11949  11948  11952     1  0.0000000  0.6508444  3
  11950  11949  11955  11961     1  0.0000000  1.0460000  1
  11950  11949  11955  11961     1  0.0000000  0.6694400  3
  11951  11949  11948  11956     1  0.0000000  1.0460000  1
  11951  11949  11948  11956     1  0.0000000  0.0000000  3
  11951  11949  11948  11952     1  0.0000000  0.6508444  3
  11951  11949  11950  11954     1  0.0000000  1.0460000  1
  11951  11949  11950  11954     1  0.0000000  0.0000000  3
  11951  11949  11950  11966     1  0.0000000  1.0460000  1
  11951  11949  11950  11966     1  0.0000000  0.0000000  3
  11951  11949  11950  11953     1  0.0000000  0.6508444  3
  11951  11949  11955  11961     1  0.0000000  0.6973333  3
  11952  11948  11945  11957     1  0.0000000  1.0460000  1
  11952  11948  11945  11957     1  0.0000000  0.0000000  3
  11952  11948  11949  11955     1  0.0000000  1.0460000  1
  11952  11948  11949  11955     1  0.0000000  0.0000000  3
  11952  11948  11956  11959     1  0.0000000  0.6973333  3
  11953  11950  11949  11955     1  0.0000000  0.6508444  3
  11962  11958  11944  11966     1  0.0000000  1.0460000  1
  11962  11958  11944  11966     1  0.0000000  0.0000000  3
  11962  11958  11964  11965     1  0.0000000  0.6973333  3
  11963  11958  11944  11966     1  0.0000000  1.0460000  1
  11963  11958  11944  11966     1  0.0000000  0.0000000  3
  11963  11958  11964  11965     1  0.0000000  0.6973333  3
  11967  11968  11971  11975     1  0.0000000  0.6508444  3
  11967  11968  11980  11983     1  0.0000000  1.0460000  1
  11967  11968  11980  11983     1  0.0000000  0.6694400  3
  11967  11981  11987  11988     1  0.0000000  1.0460000  1
  11967  11981  11987  11988     1  0.0000000  0.6694400  3
  11967  11989  11973  11976     1  0.0000000  1.6038667  3
  11968  11971  11972  11974     1  0.0000000  0.6508444  3
  11968  11971  11979  11982     1  0.0000000  1.0460000  1
  11968  11971  11979  11982     1  0.0000000  0.6694400  3
  11968  11967  11981  11985     1  0.0000000  0.6508444  3
  11968  11967  11981  11986     1  0.0000000  0.6508444  3
  11969  11967  11968  11971     1  0.0000000  0.6508444  3
  11969  11967  11968  11980     1  0.0000000  1.0460000  1
  11969  11967  11968  11980     1  0.0000000  0.0000000  3
  11969  11967  11968  11970     1  0.0000000  0.6508444  3
  11969  11967  11981  11987     1  0.0000000  1.0460000  1
  11969  11967  11981  11987     1  0.0000000  0.0000000  3
  11969  11967  11981  11985     1  0.0000000  0.6508444  3
  11969  11967  11981  11986     1  0.0000000  0.6508444  3
  11969  11967  11989  11973     1  0.0000000  1.6038667  3
  11970  11968  11971  11972     1  0.0000000  0.6508444  3
  11970  11968  11971  11979     1  0.0000000  1.0460000  1
  11970  11968  11971  11979     1  0.0000000  0.0000000  3
  11970  11968  11971  11975     1  0.0000000  0.6508444  3
  11970  11968  11980  11983     1  0.0000000  0.6973333  3
  11970  11968  11967  11981     1  0.0000000  0.6508444  3
  11970  11968  11967  11989     1  0.0000000  1.0460000  1
  11970  11968  11967  11989     1  0.0000000  0.0000000  3
  11971  11972  11973  11976     1  0.0000000  0.6508444  3
  11971  11972  11978  11984     1  0.0000000  1.0460000  1
  11971  11972  11978  11984     1  0.0000000  0.6694400  3
  11971  11968  11980  11983     1  0.0000000  1.0460000  1
  11971  11968  11980  11983     1  0.0000000  0.6694400  3
  11972  11971  11979  11982     1  0.0000000  1.0460000  1
  11972  11971  11979  11982     1  0.0000000  0.6694400  3
  11973  11972  11978  11984     1  0.0000000  1.0460000  1
  11973  11972  11978  11984     1  0.0000000  0.6694400  3
  11973  11972  11971  11975     1  0.0000000  0.6508444  3
  11974  11972  11973  11977     1  0.0000000  1.0460000  1
  11974  11972  11973  11977     1  0.0000000  0.0000000  3
  11974  11972  11973  11989     1  0.0000000  1.0460000  1
  11974  11972  11973  11989     1  0.0000000  0.0000000  3
  11974  11972  11973  11976     1  0.0000000  0.6508444  3
  11974  11972  11978  11984     1  0.0000000  0.6973333  3
  11974  11972  11971  11979     1  0.0000000  1.0460000  1
  11974  11972  11971  11979     1  0.0000000  0.0000000  3
  11974  11972  11971  11975     1  0.0000000  0.6508444  3
  11975  11971  11972  11978     1  0.0000000  1.0460000  1
  11975  11971  11972  11978     1  0.0000000  0.0000000  3
  11975  11971  11979  11982     1  0.0000000  0.6973333  3
  11975  11971  11968  11980     1  0.0000000  1.0460000  1
  11975  11971  11968  11980     1  0.0000000  0.0000000  3
  11976  11973  11972  11978     1  0.0000000  0.6508444  3
  11985  11981  11987  11988     1  0.0000000  0.6973333  3
  11985  11981  11967  11989     1  0.0000000  1.0460000  1
  11985  11981  11967  11989     1  0.0000000  0.0000000  3
  11986  11981  11987  11988     1  0.0000000  0.6973333  3
  11986  11981  11967  11989     1  0.0000000  1.0460000  1
  11986  11981  11967  11989     1  0.0000000  0.0000000  3
  11990  11991  11994  11998     1  0.0000000  0.6508444  3
  11990  11991  12003  12006     1  0.0000000  1.0460000  1
  11990  11991  12003  12006     1  0.0000000  0.6694400  3
  11990  12004  12010  12011     1  0.0000000  1.0460000  1
  11990  12004  12010  12011     1  0.0000000  0.6694400  3
  11990  12012  11996  11999     1  0.0000000  1.6038667  3
  11991  11990  12004  12008     1  0.0000000  0.6508444  3
  11991  11990  12004  12009     1  0.0000000  0.6508444  3
  11991  11994  11995  11997     1  0.0000000  0.6508444  3
  11991  11994  12002  12005     1  0.0000000  1.0460000  1
  11991  11994  12002  12005     1  0.0000000  0.6694400  3
  11992  11990  11991  11994     1  0.0000000  0.6508444  3
  11992  11990  11991  12003     1  0.0000000  1.0460000  1
  11992  11990  11991  12003     1  0.0000000  0.0000000  3
  11992  11990  11991  11993     1  0.0000000  0.6508444  3
  11992  11990  12004  12010     1  0.0000000  1.0460000  1
  11992  11990  12004  12010     1  0.0000000  0.0000000  3
  11992  11990  12004  12008     1  0.0000000  0.6508444  3
  11992  11990  12004  12009     1  0.0000000  0.6508444  3
  11992  11990  12012  11996     1  0.0000000  1.6038667  3
  11993  11991  11990  12004     1  0.0000000  0.6508444  3
  11993  11991  11990  12012     1  0.0000000  1.0460000  1
  11993  11991  11990  12012     1  0.0000000  0.0000000  3
  11993  11991  11994  11995     1  0.0000000  0.6508444  3
  11993  11991  11994  12002     1  0.0000000  1.0460000  1
  11993  11991  11994  12002     1  0.0000000  0.0000000  3
  11993  11991  11994  11998     1  0.0000000  0.6508444  3
  11993  11991  12003  12006     1  0.0000000  0.6973333  3
  11994  11991  12003  12006     1  0.0000000  1.0460000  1
  11994  11991  12003  12006     1  0.0000000  0.6694400  3
  11994  11995  11996  11999     1  0.0000000  0.6508444  3
  11994  11995  12001  12007     1  0.0000000  1.0460000  1
  11994  11995  12001  12007     1  0.0000000  0.6694400  3
  11995  11994  12002  12005     1  0.0000000  1.0460000  1
  11995  11994  12002  12005     1  0.0000000  0.6694400  3
  11996  11995  11994  11998     1  0.0000000  0.6508444  3
  11996  11995  12001  12007     1  0.0000000  1.0460000  1
  11996  11995  12001  12007     1  0.0000000  0.6694400  3
  11997  11995  11994  12002     1  0.0000000  1.0460000  1
  11997  11995  11994  12002     1  0.0000000  0.0000000  3
  11997  11995  11994  11998     1  0.0000000  0.6508444  3
  11997  11995  11996  12000     1  0.0000000  1.0460000  1
  11997  11995  11996  12000     1  0.0000000  0.0000000  3
  11997  11995  11996  12012     1  0.0000000  1.0460000  1
  11997  11995  11996  12012     1  0.0000000  0.0000000  3
  11997  11995  11996  11999     1  0.0000000  0.6508444  3
  11997  11995  12001  12007     1  0.0000000  0.6973333  3
  11998  11994  11991  12003     1  0.0000000  1.0460000  1
  11998  11994  11991  12003     1  0.0000000  0.0000000  3
  11998  11994  11995  12001     1  0.0000000  1.0460000  1
  11998  11994  11995  12001     1  0.0000000  0.0000000  3
  11998  11994  12002  12005     1  0.0000000  0.6973333  3
  11999  11996  11995  12001     1  0.0000000  0.6508444  3
  12008  12004  11990  12012     1  0.0000000  1.0460000  1
  12008  12004  11990  12012     1  0.0000000  0.0000000  3
  12008  12004  12010  12011     1  0.0000000  0.6973333  3
  12009  12004  11990  12012     1  0.0000000  1.0460000  1
  12009  12004  11990  12012     1  0.0000000  0.0000000  3
  12009  12004  12010  12011     1  0.0000000  0.6973333  3
  12013  12014  12017  12021     1  0.0000000  0.6508444  3
  12013  12014  12026  12029     1  0.0000000  1.0460000  1
  12013  12014  12026  12029     1  0.0000000  0.6694400  3
  12013  12027  12033  12034     1  0.0000000  1.0460000  1
  12013  12027  12033  12034     1  0.0000000  0.6694400  3
  12013  12035  12019  12022     1  0.0000000  1.6038667  3
  12014  12017  12018  12020     1  0.0000000  0.6508444  3
  12014  12017  12025  12028     1  0.0000000  1.0460000  1
  12014  12017  12025  12028     1  0.0000000  0.6694400  3
  12014  12013  12027  12031     1  0.0000000  0.6508444  3
  12014  12013  12027  12032     1  0.0000000  0.6508444  3
  12015  12013  12014  12017     1  0.0000000  0.6508444  3
  12015  12013  12014  12026     1  0.0000000  1.0460000  1
  12015  12013  12014  12026     1  0.0000000  0.0000000  3
  12015  12013  12014  12016     1  0.0000000  0.6508444  3
  12015  12013  12027  12033     1  0.0000000  1.0460000  1
  12015  12013  12027  12033     1  0.0000000  0.0000000  3
  12015  12013  12027  12031     1  0.0000000  0.6508444  3
  12015  12013  12027  12032     1  0.0000000  0.6508444  3
  12015  12013  12035  12019     1  0.0000000  1.6038667  3
  12016  12014  12017  12018     1  0.0000000  0.6508444  3
  12016  12014  12017  12025     1  0.0000000  1.0460000  1
  12016  12014  12017  12025     1  0.0000000  0.0000000  3
  12016  12014  12017  12021     1  0.0000000  0.6508444  3
  12016  12014  12026  12029     1  0.0000000  0.6973333  3
  12016  12014  12013  12027     1  0.0000000  0.6508444  3
  12016  12014  12013  12035     1  0.0000000  1.0460000  1
  12016  12014  12013  12035     1  0.0000000  0.0000000  3
  12017  12018  12019  12022     1  0.0000000  0.6508444  3
  12017  12018  12024  12030     1  0.0000000  1.0460000  1
  12017  12018  12024  12030     1  0.0000000  0.6694400  3
  12017  12014  12026  12029     1  0.0000000  1.0460000  1
  12017  12014  12026  12029     1  0.0000000  0.6694400  3
  12018  12017  12025  12028     1  0.0000000  1.0460000  1
  12018  12017  12025  12028     1  0.0000000  0.6694400  3
  12019  12018  12024  12030     1  0.0000000  1.0460000  1
  12019  12018  12024  12030     1  0.0000000  0.6694400  3
  12019  12018  12017  12021     1  0.0000000  0.6508444  3
  12020  12018  12019  12023     1  0.0000000  1.0460000  1
  12020  12018  12019  12023     1  0.0000000  0.0000000  3
  12020  12018  12019  12035     1  0.0000000  1.0460000  1
  12020  12018  12019  12035     1  0.0000000  0.0000000  3
  12020  12018  12019  12022     1  0.0000000  0.6508444  3
  12020  12018  12024  12030     1  0.0000000  0.6973333  3
  12020  12018  12017  12025     1  0.0000000  1.0460000  1
  12020  12018  12017  12025     1  0.0000000  0.0000000  3
  12020  12018  12017  12021     1  0.0000000  0.6508444  3
  12021  12017  12018  12024     1  0.0000000  1.0460000  1
  12021  12017  12018  12024     1  0.0000000  0.0000000  3
  12021  12017  12025  12028     1  0.0000000  0.6973333  3
  12021  12017  12014  12026     1  0.0000000  1.0460000  1
  12021  12017  12014  12026     1  0.0000000  0.0000000  3
  12022  12019  12018  12024     1  0.0000000  0.6508444  3
  12031  12027  12033  12034     1  0.0000000  0.6973333  3
  12031  12027  12013  12035     1  0.0000000  1.0460000  1
  12031  12027  12013  12035     1  0.0000000  0.0000000  3
  12032  12027  12033  12034     1  0.0000000  0.6973333  3
  12032  12027  12013  12035     1  0.0000000  1.0460000  1
  12032  12027  12013  12035     1  0.0000000  0.0000000  3
  12036  12037  12040  12044     1  0.0000000  0.6508444  3
  12036  12037  12049  12052     1  0.0000000  1.0460000  1
  12036  12037  12049  12052     1  0.0000000  0.6694400  3
  12036  12050  12056  12057     1  0.0000000  1.0460000  1
  12036  12050  12056  12057     1  0.0000000  0.6694400  3
  12036  12058  12042  12045     1  0.0000000  1.6038667  3
  12037  12036  12050  12054     1  0.0000000  0.6508444  3
  12037  12036  12050  12055     1  0.0000000  0.6508444  3
  12037  12040  12041  12043     1  0.0000000  0.6508444  3
  12037  12040  12048  12051     1  0.0000000  1.0460000  1
  12037  12040  12048  12051     1  0.0000000  0.6694400  3
  12038  12036  12037  12040     1  0.0000000  0.6508444  3
  12038  12036  12037  12049     1  0.0000000  1.0460000  1
  12038  12036  12037  12049     1  0.0000000  0.0000000  3
  12038  12036  12037  12039     1  0.0000000  0.6508444  3
  12038  12036  12050  12056     1  0.0000000  1.0460000  1
  12038  12036  12050  12056     1  0.0000000  0.0000000  3
  12038  12036  12050  12054     1  0.0000000  0.6508444  3
  12038  12036  12050  12055     1  0.0000000  0.6508444  3
  12038  12036  12058  12042     1  0.0000000  1.6038667  3
  12039  12037  12036  12050     1  0.0000000  0.6508444  3
  12039  12037  12036  12058     1  0.0000000  1.0460000  1
  12039  12037  12036  12058     1  0.0000000  0.0000000  3
  12039  12037  12040  12041     1  0.0000000  0.6508444  3
  12039  12037  12040  12048     1  0.0000000  1.0460000  1
  12039  12037  12040  12048     1  0.0000000  0.0000000  3
  12039  12037  12040  12044     1  0.0000000  0.6508444  3
  12039  12037  12049  12052     1  0.0000000  0.6973333  3
  12040  12037  12049  12052     1  0.0000000  1.0460000  1
  12040  12037  12049  12052     1  0.0000000  0.6694400  3
  12040  12041  12042  12045     1  0.0000000  0.6508444  3
  12040  12041  12047  12053     1  0.0000000  1.0460000  1
  12040  12041  12047  12053     1  0.0000000  0.6694400  3
  12041  12040  12048  12051     1  0.0000000  1.0460000  1
  12041  12040  12048  12051     1  0.0000000  0.6694400  3
  12042  12041  12040  12044     1  0.0000000  0.6508444  3
  12042  12041  12047  12053     1  0.0000000  1.0460000  1
  12042  12041  12047  12053     1  0.0000000  0.6694400  3
  12043  12041  12040  12048     1  0.0000000  1.0460000  1
  12043  12041  12040  12048     1  0.0000000  0.0000000  3
  12043  12041  12040  12044     1  0.0000000  0.6508444  3
  12043  12041  12042  12046     1  0.0000000  1.0460000  1
  12043  12041  12042  12046     1  0.0000000  0.0000000  3
  12043  12041  12042  12058     1  0.0000000  1.0460000  1
  12043  12041  12042  12058     1  0.0000000  0.0000000  3
  12043  12041  12042  12045     1  0.0000000  0.6508444  3
  12043  12041  12047  12053     1  0.0000000  0.6973333  3
  12044  12040  12037  12049     1  0.0000000  1.0460000  1
  12044  12040  12037  12049     1  0.0000000  0.0000000  3
  12044  12040  12041  12047     1  0.0000000  1.0460000  1
  12044  12040  12041  12047     1  0.0000000  0.0000000  3
  12044  12040  12048  12051     1  0.0000000  0.6973333  3
  12045  12042  12041  12047     1  0.0000000  0.6508444  3
  12054  12050  12036  12058     1  0.0000000  1.0460000  1
  12054  12050  12036  12058     1  0.0000000  0.0000000  3
  12054  12050  12056  12057     1  0.0000000  0.6973333  3
  12055  12050  12036  12058     1  0.0000000  1.0460000  1
  12055  12050  12036  12058     1  0.0000000  0.0000000  3
  12055  12050  12056  12057     1  0.0000000  0.6973333  3
  12059  12060  12063  12067     1  0.0000000  0.6508444  3
  12059  12060  12072  12075     1  0.0000000  1.0460000  1
  12059  12060  12072  12075     1  0.0000000  0.6694400  3
  12059  12073  12079  12080     1  0.0000000  1.0460000  1
  12059  12073  12079  12080     1  0.0000000  0.6694400  3
  12059  12081  12065  12068     1  0.0000000  1.6038667  3
  12060  12063  12064  12066     1  0.0000000  0.6508444  3
  12060  12063  12071  12074     1  0.0000000  1.0460000  1
  12060  12063  12071  12074     1  0.0000000  0.6694400  3
  12060  12059  12073  12077     1  0.0000000  0.6508444  3
  12060  12059  12073  12078     1  0.0000000  0.6508444  3
  12061  12059  12060  12063     1  0.0000000  0.6508444  3
  12061  12059  12060  12072     1  0.0000000  1.0460000  1
  12061  12059  12060  12072     1  0.0000000  0.0000000  3
  12061  12059  12060  12062     1  0.0000000  0.6508444  3
  12061  12059  12073  12079     1  0.0000000  1.0460000  1
  12061  12059  12073  12079     1  0.0000000  0.0000000  3
  12061  12059  12073  12077     1  0.0000000  0.6508444  3
  12061  12059  12073  12078     1  0.0000000  0.6508444  3
  12061  12059  12081  12065     1  0.0000000  1.6038667  3
  12062  12060  12063  12064     1  0.0000000  0.6508444  3
  12062  12060  12063  12071     1  0.0000000  1.0460000  1
  12062  12060  12063  12071     1  0.0000000  0.0000000  3
  12062  12060  12063  12067     1  0.0000000  0.6508444  3
  12062  12060  12072  12075     1  0.0000000  0.6973333  3
  12062  12060  12059  12073     1  0.0000000  0.6508444  3
  12062  12060  12059  12081     1  0.0000000  1.0460000  1
  12062  12060  12059  12081     1  0.0000000  0.0000000  3
  12063  12064  12065  12068     1  0.0000000  0.6508444  3
  12063  12064  12070  12076     1  0.0000000  1.0460000  1
  12063  12064  12070  12076     1  0.0000000  0.6694400  3
  12063  12060  12072  12075     1  0.0000000  1.0460000  1
  12063  12060  12072  12075     1  0.0000000  0.6694400  3
  12064  12063  12071  12074     1  0.0000000  1.0460000  1
  12064  12063  12071  12074     1  0.0000000  0.6694400  3
  12065  12064  12070  12076     1  0.0000000  1.0460000  1
  12065  12064  12070  12076     1  0.0000000  0.6694400  3
  12065  12064  12063  12067     1  0.0000000  0.6508444  3
  12066  12064  12065  12069     1  0.0000000  1.0460000  1
  12066  12064  12065  12069     1  0.0000000  0.0000000  3
  12066  12064  12065  12081     1  0.0000000  1.0460000  1
  12066  12064  12065  12081     1  0.0000000  0.0000000  3
  12066  12064  12065  12068     1  0.0000000  0.6508444  3
  12066  12064  12070  12076     1  0.0000000  0.6973333  3
  12066  12064  12063  12071     1  0.0000000  1.0460000  1
  12066  12064  12063  12071     1  0.0000000  0.0000000  3
  12066  12064  12063  12067     1  0.0000000  0.6508444  3
  12067  12063  12064  12070     1  0.0000000  1.0460000  1
  12067  12063  12064  12070     1  0.0000000  0.0000000  3
  12067  12063  12071  12074     1  0.0000000  0.6973333  3
  12067  12063  12060  12072     1  0.0000000  1.0460000  1
  12067  12063  12060  12072     1  0.0000000  0.0000000  3
  12068  12065  12064  12070     1  0.0000000  0.6508444  3
  12077  12073  12079  12080     1  0.0000000  0.6973333  3
  12077  12073  12059  12081     1  0.0000000  1.0460000  1
  12077  12073  12059  12081     1  0.0000000  0.0000000  3
  12078  12073  12079  12080     1  0.0000000  0.6973333  3
  12078  12073  12059  12081     1  0.0000000  1.0460000  1
  12078  12073  12059  12081     1  0.0000000  0.0000000  3
  12082  12083  12086  12090     1  0.0000000  0.6508444  3
  12082  12083  12095  12098     1  0.0000000  1.0460000  1
  12082  12083  12095  12098     1  0.0000000  0.6694400  3
  12082  12096  12102  12103     1  0.0000000  1.0460000  1
  12082  12096  12102  12103     1  0.0000000  0.6694400  3
  12082  12104  12088  12091     1  0.0000000  1.6038667  3
  12083  12082  12096  12100     1  0.0000000  0.6508444  3
  12083  12082  12096  12101     1  0.0000000  0.6508444  3
  12083  12086  12087  12089     1  0.0000000  0.6508444  3
  12083  12086  12094  12097     1  0.0000000  1.0460000  1
  12083  12086  12094  12097     1  0.0000000  0.6694400  3
  12084  12082  12083  12086     1  0.0000000  0.6508444  3
  12084  12082  12083  12095     1  0.0000000  1.0460000  1
  12084  12082  12083  12095     1  0.0000000  0.0000000  3
  12084  12082  12083  12085     1  0.0000000  0.6508444  3
  12084  12082  12096  12102     1  0.0000000  1.0460000  1
  12084  12082  12096  12102     1  0.0000000  0.0000000  3
  12084  12082  12096  12100     1  0.0000000  0.6508444  3
  12084  12082  12096  12101     1  0.0000000  0.6508444  3
  12084  12082  12104  12088     1  0.0000000  1.6038667  3
  12085  12083  12082  12096     1  0.0000000  0.6508444  3
  12085  12083  12082  12104     1  0.0000000  1.0460000  1
  12085  12083  12082  12104     1  0.0000000  0.0000000  3
  12085  12083  12086  12087     1  0.0000000  0.6508444  3
  12085  12083  12086  12094     1  0.0000000  1.0460000  1
  12085  12083  12086  12094     1  0.0000000  0.0000000  3
  12085  12083  12086  12090     1  0.0000000  0.6508444  3
  12085  12083  12095  12098     1  0.0000000  0.6973333  3
  12086  12083  12095  12098     1  0.0000000  1.0460000  1
  12086  12083  12095  12098     1  0.0000000  0.6694400  3
  12086  12087  12088  12091     1  0.0000000  0.6508444  3
  12086  12087  12093  12099     1  0.0000000  1.0460000  1
  12086  12087  12093  12099     1  0.0000000  0.6694400  3
  12087  12086  12094  12097     1  0.0000000  1.0460000  1
  12087  12086  12094  12097     1  0.0000000  0.6694400  3
  12088  12087  12086  12090     1  0.0000000  0.6508444  3
  12088  12087  12093  12099     1  0.0000000  1.0460000  1
  12088  12087  12093  12099     1  0.0000000  0.6694400  3
  12089  12087  12086  12094     1  0.0000000  1.0460000  1
  12089  12087  12086  12094     1  0.0000000  0.0000000  3
  12089  12087  12086  12090     1  0.0000000  0.6508444  3
  12089  12087  12088  12092     1  0.0000000  1.0460000  1
  12089  12087  12088  12092     1  0.0000000  0.0000000  3
  12089  12087  12088  12104     1  0.0000000  1.0460000  1
  12089  12087  12088  12104     1  0.0000000  0.0000000  3
  12089  12087  12088  12091     1  0.0000000  0.6508444  3
  12089  12087  12093  12099     1  0.0000000  0.6973333  3
  12090  12086  12083  12095     1  0.0000000  1.0460000  1
  12090  12086  12083  12095     1  0.0000000  0.0000000  3
  12090  12086  12087  12093     1  0.0000000  1.0460000  1
  12090  12086  12087  12093     1  0.0000000  0.0000000  3
  12090  12086  12094  12097     1  0.0000000  0.6973333  3
  12091  12088  12087  12093     1  0.0000000  0.6508444  3
  12100  12096  12082  12104     1  0.0000000  1.0460000  1
  12100  12096  12082  12104     1  0.0000000  0.0000000  3
  12100  12096  12102  12103     1  0.0000000  0.6973333  3
  12101  12096  12082  12104     1  0.0000000  1.0460000  1
  12101  12096  12082  12104     1  0.0000000  0.0000000  3
  12101  12096  12102  12103     1  0.0000000  0.6973333  3
  12105  12106  12109  12113     1  0.0000000  0.6508444  3
  12105  12106  12118  12121     1  0.0000000  1.0460000  1
  12105  12106  12118  12121     1  0.0000000  0.6694400  3
  12105  12119  12125  12126     1  0.0000000  1.0460000  1
  12105  12119  12125  12126     1  0.0000000  0.6694400  3
  12105  12127  12111  12114     1  0.0000000  1.6038667  3
  12106  12109  12110  12112     1  0.0000000  0.6508444  3
  12106  12109  12117  12120     1  0.0000000  1.0460000  1
  12106  12109  12117  12120     1  0.0000000  0.6694400  3
  12106  12105  12119  12123     1  0.0000000  0.6508444  3
  12106  12105  12119  12124     1  0.0000000  0.6508444  3
  12107  12105  12106  12109     1  0.0000000  0.6508444  3
  12107  12105  12106  12118     1  0.0000000  1.0460000  1
  12107  12105  12106  12118     1  0.0000000  0.0000000  3
  12107  12105  12106  12108     1  0.0000000  0.6508444  3
  12107  12105  12119  12125     1  0.0000000  1.0460000  1
  12107  12105  12119  12125     1  0.0000000  0.0000000  3
  12107  12105  12119  12123     1  0.0000000  0.6508444  3
  12107  12105  12119  12124     1  0.0000000  0.6508444  3
  12107  12105  12127  12111     1  0.0000000  1.6038667  3
  12108  12106  12109  12110     1  0.0000000  0.6508444  3
  12108  12106  12109  12117     1  0.0000000  1.0460000  1
  12108  12106  12109  12117     1  0.0000000  0.0000000  3
  12108  12106  12109  12113     1  0.0000000  0.6508444  3
  12108  12106  12118  12121     1  0.0000000  0.6973333  3
  12108  12106  12105  12119     1  0.0000000  0.6508444  3
  12108  12106  12105  12127     1  0.0000000  1.0460000  1
  12108  12106  12105  12127     1  0.0000000  0.0000000  3
  12109  12110  12111  12114     1  0.0000000  0.6508444  3
  12109  12110  12116  12122     1  0.0000000  1.0460000  1
  12109  12110  12116  12122     1  0.0000000  0.6694400  3
  12109  12106  12118  12121     1  0.0000000  1.0460000  1
  12109  12106  12118  12121     1  0.0000000  0.6694400  3
  12110  12109  12117  12120     1  0.0000000  1.0460000  1
  12110  12109  12117  12120     1  0.0000000  0.6694400  3
  12111  12110  12116  12122     1  0.0000000  1.0460000  1
  12111  12110  12116  12122     1  0.0000000  0.6694400  3
  12111  12110  12109  12113     1  0.0000000  0.6508444  3
  12112  12110  12111  12115     1  0.0000000  1.0460000  1
  12112  12110  12111  12115     1  0.0000000  0.0000000  3
  12112  12110  12111  12127     1  0.0000000  1.0460000  1
  12112  12110  12111  12127     1  0.0000000  0.0000000  3
  12112  12110  12111  12114     1  0.0000000  0.6508444  3
  12112  12110  12116  12122     1  0.0000000  0.6973333  3
  12112  12110  12109  12117     1  0.0000000  1.0460000  1
  12112  12110  12109  12117     1  0.0000000  0.0000000  3
  12112  12110  12109  12113     1  0.0000000  0.6508444  3
  12113  12109  12110  12116     1  0.0000000  1.0460000  1
  12113  12109  12110  12116     1  0.0000000  0.0000000  3
  12113  12109  12117  12120     1  0.0000000  0.6973333  3
  12113  12109  12106  12118     1  0.0000000  1.0460000  1
  12113  12109  12106  12118     1  0.0000000  0.0000000  3
  12114  12111  12110  12116     1  0.0000000  0.6508444  3
  12123  12119  12125  12126     1  0.0000000  0.6973333  3
  12123  12119  12105  12127     1  0.0000000  1.0460000  1
  12123  12119  12105  12127     1  0.0000000  0.0000000  3
  12124  12119  12125  12126     1  0.0000000  0.6973333  3
  12124  12119  12105  12127     1  0.0000000  1.0460000  1
  12124  12119  12105  12127     1  0.0000000  0.0000000  3
  12128  12129  12132  12136     1  0.0000000  0.6508444  3
  12128  12129  12141  12144     1  0.0000000  1.0460000  1
  12128  12129  12141  12144     1  0.0000000  0.6694400  3
  12128  12142  12148  12149     1  0.0000000  1.0460000  1
  12128  12142  12148  12149     1  0.0000000  0.6694400  3
  12128  12150  12134  12137     1  0.0000000  1.6038667  3
  12129  12128  12142  12146     1  0.0000000  0.6508444  3
  12129  12128  12142  12147     1  0.0000000  0.6508444  3
  12129  12132  12133  12135     1  0.0000000  0.6508444  3
  12129  12132  12140  12143     1  0.0000000  1.0460000  1
  12129  12132  12140  12143     1  0.0000000  0.6694400  3
  12130  12128  12129  12132     1  0.0000000  0.6508444  3
  12130  12128  12129  12141     1  0.0000000  1.0460000  1
  12130  12128  12129  12141     1  0.0000000  0.0000000  3
  12130  12128  12129  12131     1  0.0000000  0.6508444  3
  12130  12128  12142  12148     1  0.0000000  1.0460000  1
  12130  12128  12142  12148     1  0.0000000  0.0000000  3
  12130  12128  12142  12146     1  0.0000000  0.6508444  3
  12130  12128  12142  12147     1  0.0000000  0.6508444  3
  12130  12128  12150  12134     1  0.0000000  1.6038667  3
  12131  12129  12128  12142     1  0.0000000  0.6508444  3
  12131  12129  12128  12150     1  0.0000000  1.0460000  1
  12131  12129  12128  12150     1  0.0000000  0.0000000  3
  12131  12129  12132  12133     1  0.0000000  0.6508444  3
  12131  12129  12132  12140     1  0.0000000  1.0460000  1
  12131  12129  12132  12140     1  0.0000000  0.0000000  3
  12131  12129  12132  12136     1  0.0000000  0.6508444  3
  12131  12129  12141  12144     1  0.0000000  0.6973333  3
  12132  12129  12141  12144     1  0.0000000  1.0460000  1
  12132  12129  12141  12144     1  0.0000000  0.6694400  3
  12132  12133  12134  12137     1  0.0000000  0.6508444  3
  12132  12133  12139  12145     1  0.0000000  1.0460000  1
  12132  12133  12139  12145     1  0.0000000  0.6694400  3
  12133  12132  12140  12143     1  0.0000000  1.0460000  1
  12133  12132  12140  12143     1  0.0000000  0.6694400  3
  12134  12133  12132  12136     1  0.0000000  0.6508444  3
  12134  12133  12139  12145     1  0.0000000  1.0460000  1
  12134  12133  12139  12145     1  0.0000000  0.6694400  3
  12135  12133  12132  12140     1  0.0000000  1.0460000  1
  12135  12133  12132  12140     1  0.0000000  0.0000000  3
  12135  12133  12132  12136     1  0.0000000  0.6508444  3
  12135  12133  12134  12138     1  0.0000000  1.0460000  1
  12135  12133  12134  12138     1  0.0000000  0.0000000  3
  12135  12133  12134  12150     1  0.0000000  1.0460000  1
  12135  12133  12134  12150     1  0.0000000  0.0000000  3
  12135  12133  12134  12137     1  0.0000000  0.6508444  3
  12135  12133  12139  12145     1  0.0000000  0.6973333  3
  12136  12132  12129  12141     1  0.0000000  1.0460000  1
  12136  12132  12129  12141     1  0.0000000  0.0000000  3
  12136  12132  12133  12139     1  0.0000000  1.0460000  1
  12136  12132  12133  12139     1  0.0000000  0.0000000  3
  12136  12132  12140  12143     1  0.0000000  0.6973333  3
  12137  12134  12133  12139     1  0.0000000  0.6508444  3
  12146  12142  12128  12150     1  0.0000000  1.0460000  1
  12146  12142  12128  12150     1  0.0000000  0.0000000  3
  12146  12142  12148  12149     1  0.0000000  0.6973333  3
  12147  12142  12128  12150     1  0.0000000  1.0460000  1
  12147  12142  12128  12150     1  0.0000000  0.0000000  3
  12147  12142  12148  12149     1  0.0000000  0.6973333  3
  12151  12152  12155  12159     1  0.0000000  0.6508444  3
  12151  12152  12164  12167     1  0.0000000  1.0460000  1
  12151  12152  12164  12167     1  0.0000000  0.6694400  3
  12151  12165  12171  12172     1  0.0000000  1.0460000  1
  12151  12165  12171  12172     1  0.0000000  0.6694400  3
  12151  12173  12157  12160     1  0.0000000  1.6038667  3
  12152  12155  12156  12158     1  0.0000000  0.6508444  3
  12152  12155  12163  12166     1  0.0000000  1.0460000  1
  12152  12155  12163  12166     1  0.0000000  0.6694400  3
  12152  12151  12165  12169     1  0.0000000  0.6508444  3
  12152  12151  12165  12170     1  0.0000000  0.6508444  3
  12153  12151  12152  12155     1  0.0000000  0.6508444  3
  12153  12151  12152  12164     1  0.0000000  1.0460000  1
  12153  12151  12152  12164     1  0.0000000  0.0000000  3
  12153  12151  12152  12154     1  0.0000000  0.6508444  3
  12153  12151  12165  12171     1  0.0000000  1.0460000  1
  12153  12151  12165  12171     1  0.0000000  0.0000000  3
  12153  12151  12165  12169     1  0.0000000  0.6508444  3
  12153  12151  12165  12170     1  0.0000000  0.6508444  3
  12153  12151  12173  12157     1  0.0000000  1.6038667  3
  12154  12152  12155  12156     1  0.0000000  0.6508444  3
  12154  12152  12155  12163     1  0.0000000  1.0460000  1
  12154  12152  12155  12163     1  0.0000000  0.0000000  3
  12154  12152  12155  12159     1  0.0000000  0.6508444  3
  12154  12152  12164  12167     1  0.0000000  0.6973333  3
  12154  12152  12151  12165     1  0.0000000  0.6508444  3
  12154  12152  12151  12173     1  0.0000000  1.0460000  1
  12154  12152  12151  12173     1  0.0000000  0.0000000  3
  12155  12156  12157  12160     1  0.0000000  0.6508444  3
  12155  12156  12162  12168     1  0.0000000  1.0460000  1
  12155  12156  12162  12168     1  0.0000000  0.6694400  3
  12155  12152  12164  12167     1  0.0000000  1.0460000  1
  12155  12152  12164  12167     1  0.0000000  0.6694400  3
  12156  12155  12163  12166     1  0.0000000  1.0460000  1
  12156  12155  12163  12166     1  0.0000000  0.6694400  3
  12157  12156  12162  12168     1  0.0000000  1.0460000  1
  12157  12156  12162  12168     1  0.0000000  0.6694400  3
  12157  12156  12155  12159     1  0.0000000  0.6508444  3
  12158  12156  12157  12161     1  0.0000000  1.0460000  1
  12158  12156  12157  12161     1  0.0000000  0.0000000  3
  12158  12156  12157  12173     1  0.0000000  1.0460000  1
  12158  12156  12157  12173     1  0.0000000  0.0000000  3
  12158  12156  12157  12160     1  0.0000000  0.6508444  3
  12158  12156  12162  12168     1  0.0000000  0.6973333  3
  12158  12156  12155  12163     1  0.0000000  1.0460000  1
  12158  12156  12155  12163     1  0.0000000  0.0000000  3
  12158  12156  12155  12159     1  0.0000000  0.6508444  3
  12159  12155  12156  12162     1  0.0000000  1.0460000  1
  12159  12155  12156  12162     1  0.0000000  0.0000000  3
  12159  12155  12163  12166     1  0.0000000  0.6973333  3
  12159  12155  12152  12164     1  0.0000000  1.0460000  1
  12159  12155  12152  12164     1  0.0000000  0.0000000  3
  12160  12157  12156  12162     1  0.0000000  0.6508444  3
  12169  12165  12171  12172     1  0.0000000  0.6973333  3
  12169  12165  12151  12173     1  0.0000000  1.0460000  1
  12169  12165  12151  12173     1  0.0000000  0.0000000  3
  12170  12165  12171  12172     1  0.0000000  0.6973333  3
  12170  12165  12151  12173     1  0.0000000  1.0460000  1
  12170  12165  12151  12173     1  0.0000000  0.0000000  3
  12174  12175  12178  12182     1  0.0000000  0.6508444  3
  12174  12175  12187  12190     1  0.0000000  1.0460000  1
  12174  12175  12187  12190     1  0.0000000  0.6694400  3
  12174  12188  12194  12195     1  0.0000000  1.0460000  1
  12174  12188  12194  12195     1  0.0000000  0.6694400  3
  12174  12196  12180  12183     1  0.0000000  1.6038667  3
  12175  12174  12188  12192     1  0.0000000  0.6508444  3
  12175  12174  12188  12193     1  0.0000000  0.6508444  3
  12175  12178  12179  12181     1  0.0000000  0.6508444  3
  12175  12178  12186  12189     1  0.0000000  1.0460000  1
  12175  12178  12186  12189     1  0.0000000  0.6694400  3
  12176  12174  12175  12178     1  0.0000000  0.6508444  3
  12176  12174  12175  12187     1  0.0000000  1.0460000  1
  12176  12174  12175  12187     1  0.0000000  0.0000000  3
  12176  12174  12175  12177     1  0.0000000  0.6508444  3
  12176  12174  12188  12194     1  0.0000000  1.0460000  1
  12176  12174  12188  12194     1  0.0000000  0.0000000  3
  12176  12174  12188  12192     1  0.0000000  0.6508444  3
  12176  12174  12188  12193     1  0.0000000  0.6508444  3
  12176  12174  12196  12180     1  0.0000000  1.6038667  3
  12177  12175  12174  12188     1  0.0000000  0.6508444  3
  12177  12175  12174  12196     1  0.0000000  1.0460000  1
  12177  12175  12174  12196     1  0.0000000  0.0000000  3
  12177  12175  12178  12179     1  0.0000000  0.6508444  3
  12177  12175  12178  12186     1  0.0000000  1.0460000  1
  12177  12175  12178  12186     1  0.0000000  0.0000000  3
  12177  12175  12178  12182     1  0.0000000  0.6508444  3
  12177  12175  12187  12190     1  0.0000000  0.6973333  3
  12178  12175  12187  12190     1  0.0000000  1.0460000  1
  12178  12175  12187  12190     1  0.0000000  0.6694400  3
  12178  12179  12180  12183     1  0.0000000  0.6508444  3
  12178  12179  12185  12191     1  0.0000000  1.0460000  1
  12178  12179  12185  12191     1  0.0000000  0.6694400  3
  12179  12178  12186  12189     1  0.0000000  1.0460000  1
  12179  12178  12186  12189     1  0.0000000  0.6694400  3
  12180  12179  12178  12182     1  0.0000000  0.6508444  3
  12180  12179  12185  12191     1  0.0000000  1.0460000  1
  12180  12179  12185  12191     1  0.0000000  0.6694400  3
  12181  12179  12178  12186     1  0.0000000  1.0460000  1
  12181  12179  12178  12186     1  0.0000000  0.0000000  3
  12181  12179  12178  12182     1  0.0000000  0.6508444  3
  12181  12179  12180  12184     1  0.0000000  1.0460000  1
  12181  12179  12180  12184     1  0.0000000  0.0000000  3
  12181  12179  12180  12196     1  0.0000000  1.0460000  1
  12181  12179  12180  12196     1  0.0000000  0.0000000  3
  12181  12179  12180  12183     1  0.0000000  0.6508444  3
  12181  12179  12185  12191     1  0.0000000  0.6973333  3
  12182  12178  12175  12187     1  0.0000000  1.0460000  1
  12182  12178  12175  12187     1  0.0000000  0.0000000  3
  12182  12178  12179  12185     1  0.0000000  1.0460000  1
  12182  12178  12179  12185     1  0.0000000  0.0000000  3
  12182  12178  12186  12189     1  0.0000000  0.6973333  3
  12183  12180  12179  12185     1  0.0000000  0.6508444  3
  12192  12188  12174  12196     1  0.0000000  1.0460000  1
  12192  12188  12174  12196     1  0.0000000  0.0000000  3
  12192  12188  12194  12195     1  0.0000000  0.6973333  3
  12193  12188  12174  12196     1  0.0000000  1.0460000  1
  12193  12188  12174  12196     1  0.0000000  0.0000000  3
  12193  12188  12194  12195     1  0.0000000  0.6973333  3
  12197  12198  12201  12205     1  0.0000000  0.6508444  3
  12197  12198  12210  12213     1  0.0000000  1.0460000  1
  12197  12198  12210  12213     1  0.0000000  0.6694400  3
  12197  12211  12217  12218     1  0.0000000  1.0460000  1
  12197  12211  12217  12218     1  0.0000000  0.6694400  3
  12197  12219  12203  12206     1  0.0000000  1.6038667  3
  12198  12201  12202  12204     1  0.0000000  0.6508444  3
  12198  12201  12209  12212     1  0.0000000  1.0460000  1
  12198  12201  12209  12212     1  0.0000000  0.6694400  3
  12198  12197  12211  12215     1  0.0000000  0.6508444  3
  12198  12197  12211  12216     1  0.0000000  0.6508444  3
  12199  12197  12198  12201     1  0.0000000  0.6508444  3
  12199  12197  12198  12210     1  0.0000000  1.0460000  1
  12199  12197  12198  12210     1  0.0000000  0.0000000  3
  12199  12197  12198  12200     1  0.0000000  0.6508444  3
  12199  12197  12211  12217     1  0.0000000  1.0460000  1
  12199  12197  12211  12217     1  0.0000000  0.0000000  3
  12199  12197  12211  12215     1  0.0000000  0.6508444  3
  12199  12197  12211  12216     1  0.0000000  0.6508444  3
  12199  12197  12219  12203     1  0.0000000  1.6038667  3
  12200  12198  12201  12202     1  0.0000000  0.6508444  3
  12200  12198  12201  12209     1  0.0000000  1.0460000  1
  12200  12198  12201  12209     1  0.0000000  0.0000000  3
  12200  12198  12201  12205     1  0.0000000  0.6508444  3
  12200  12198  12210  12213     1  0.0000000  0.6973333  3
  12200  12198  12197  12211     1  0.0000000  0.6508444  3
  12200  12198  12197  12219     1  0.0000000  1.0460000  1
  12200  12198  12197  12219     1  0.0000000  0.0000000  3
  12201  12202  12203  12206     1  0.0000000  0.6508444  3
  12201  12202  12208  12214     1  0.0000000  1.0460000  1
  12201  12202  12208  12214     1  0.0000000  0.6694400  3
  12201  12198  12210  12213     1  0.0000000  1.0460000  1
  12201  12198  12210  12213     1  0.0000000  0.6694400  3
  12202  12201  12209  12212     1  0.0000000  1.0460000  1
  12202  12201  12209  12212     1  0.0000000  0.6694400  3
  12203  12202  12208  12214     1  0.0000000  1.0460000  1
  12203  12202  12208  12214     1  0.0000000  0.6694400  3
  12203  12202  12201  12205     1  0.0000000  0.6508444  3
  12204  12202  12203  12207     1  0.0000000  1.0460000  1
  12204  12202  12203  12207     1  0.0000000  0.0000000  3
  12204  12202  12203  12219     1  0.0000000  1.0460000  1
  12204  12202  12203  12219     1  0.0000000  0.0000000  3
  12204  12202  12203  12206     1  0.0000000  0.6508444  3
  12204  12202  12208  12214     1  0.0000000  0.6973333  3
  12204  12202  12201  12209     1  0.0000000  1.0460000  1
  12204  12202  12201  12209     1  0.0000000  0.0000000  3
  12204  12202  12201  12205     1  0.0000000  0.6508444  3
  12205  12201  12202  12208     1  0.0000000  1.0460000  1
  12205  12201  12202  12208     1  0.0000000  0.0000000  3
  12205  12201  12209  12212     1  0.0000000  0.6973333  3
  12205  12201  12198  12210     1  0.0000000  1.0460000  1
  12205  12201  12198  12210     1  0.0000000  0.0000000  3
  12206  12203  12202  12208     1  0.0000000  0.6508444  3
  12215  12211  12217  12218     1  0.0000000  0.6973333  3
  12215  12211  12197  12219     1  0.0000000  1.0460000  1
  12215  12211  12197  12219     1  0.0000000  0.0000000  3
  12216  12211  12217  12218     1  0.0000000  0.6973333  3
  12216  12211  12197  12219     1  0.0000000  1.0460000  1
  12216  12211  12197  12219     1  0.0000000  0.0000000  3
  12220  12221  12224  12228     1  0.0000000  0.6508444  3
  12220  12221  12233  12236     1  0.0000000  1.0460000  1
  12220  12221  12233  12236     1  0.0000000  0.6694400  3
  12220  12234  12240  12241     1  0.0000000  1.0460000  1
  12220  12234  12240  12241     1  0.0000000  0.6694400  3
  12220  12242  12226  12229     1  0.0000000  1.6038667  3
  12221  12220  12234  12238     1  0.0000000  0.6508444  3
  12221  12220  12234  12239     1  0.0000000  0.6508444  3
  12221  12224  12225  12227     1  0.0000000  0.6508444  3
  12221  12224  12232  12235     1  0.0000000  1.0460000  1
  12221  12224  12232  12235     1  0.0000000  0.6694400  3
  12222  12220  12221  12224     1  0.0000000  0.6508444  3
  12222  12220  12221  12233     1  0.0000000  1.0460000  1
  12222  12220  12221  12233     1  0.0000000  0.0000000  3
  12222  12220  12221  12223     1  0.0000000  0.6508444  3
  12222  12220  12234  12240     1  0.0000000  1.0460000  1
  12222  12220  12234  12240     1  0.0000000  0.0000000  3
  12222  12220  12234  12238     1  0.0000000  0.6508444  3
  12222  12220  12234  12239     1  0.0000000  0.6508444  3
  12222  12220  12242  12226     1  0.0000000  1.6038667  3
  12223  12221  12220  12234     1  0.0000000  0.6508444  3
  12223  12221  12220  12242     1  0.0000000  1.0460000  1
  12223  12221  12220  12242     1  0.0000000  0.0000000  3
  12223  12221  12224  12225     1  0.0000000  0.6508444  3
  12223  12221  12224  12232     1  0.0000000  1.0460000  1
  12223  12221  12224  12232     1  0.0000000  0.0000000  3
  12223  12221  12224  12228     1  0.0000000  0.6508444  3
  12223  12221  12233  12236     1  0.0000000  0.6973333  3
  12224  12221  12233  12236     1  0.0000000  1.0460000  1
  12224  12221  12233  12236     1  0.0000000  0.6694400  3
  12224  12225  12226  12229     1  0.0000000  0.6508444  3
  12224  12225  12231  12237     1  0.0000000  1.0460000  1
  12224  12225  12231  12237     1  0.0000000  0.6694400  3
  12225  12224  12232  12235     1  0.0000000  1.0460000  1
  12225  12224  12232  12235     1  0.0000000  0.6694400  3
  12226  12225  12224  12228     1  0.0000000  0.6508444  3
  12226  12225  12231  12237     1  0.0000000  1.0460000  1
  12226  12225  12231  12237     1  0.0000000  0.6694400  3
  12227  12225  12224  12232     1  0.0000000  1.0460000  1
  12227  12225  12224  12232     1  0.0000000  0.0000000  3
  12227  12225  12224  12228     1  0.0000000  0.6508444  3
  12227  12225  12226  12230     1  0.0000000  1.0460000  1
  12227  12225  12226  12230     1  0.0000000  0.0000000  3
  12227  12225  12226  12242     1  0.0000000  1.0460000  1
  12227  12225  12226  12242     1  0.0000000  0.0000000  3
  12227  12225  12226  12229     1  0.0000000  0.6508444  3
  12227  12225  12231  12237     1  0.0000000  0.6973333  3
  12228  12224  12221  12233     1  0.0000000  1.0460000  1
  12228  12224  12221  12233     1  0.0000000  0.0000000  3
  12228  12224  12225  12231     1  0.0000000  1.0460000  1
  12228  12224  12225  12231     1  0.0000000  0.0000000  3
  12228  12224  12232  12235     1  0.0000000  0.6973333  3
  12229  12226  12225  12231     1  0.0000000  0.6508444  3
  12238  12234  12220  12242     1  0.0000000  1.0460000  1
  12238  12234  12220  12242     1  0.0000000  0.0000000  3
  12238  12234  12240  12241     1  0.0000000  0.6973333  3
  12239  12234  12220  12242     1  0.0000000  1.0460000  1
  12239  12234  12220  12242     1  0.0000000  0.0000000  3
  12239  12234  12240  12241     1  0.0000000  0.6973333  3
  12243  12244  12247  12251     1  0.0000000  0.6508444  3
  12243  12244  12256  12259     1  0.0000000  1.0460000  1
  12243  12244  12256  12259     1  0.0000000  0.6694400  3
  12243  12257  12263  12264     1  0.0000000  1.0460000  1
  12243  12257  12263  12264     1  0.0000000  0.6694400  3
  12243  12265  12249  12252     1  0.0000000  1.6038667  3
  12244  12247  12248  12250     1  0.0000000  0.6508444  3
  12244  12247  12255  12258     1  0.0000000  1.0460000  1
  12244  12247  12255  12258     1  0.0000000  0.6694400  3
  12244  12243  12257  12261     1  0.0000000  0.6508444  3
  12244  12243  12257  12262     1  0.0000000  0.6508444  3
  12245  12243  12244  12247     1  0.0000000  0.6508444  3
  12245  12243  12244  12256     1  0.0000000  1.0460000  1
  12245  12243  12244  12256     1  0.0000000  0.0000000  3
  12245  12243  12244  12246     1  0.0000000  0.6508444  3
  12245  12243  12257  12263     1  0.0000000  1.0460000  1
  12245  12243  12257  12263     1  0.0000000  0.0000000  3
  12245  12243  12257  12261     1  0.0000000  0.6508444  3
  12245  12243  12257  12262     1  0.0000000  0.6508444  3
  12245  12243  12265  12249     1  0.0000000  1.6038667  3
  12246  12244  12247  12248     1  0.0000000  0.6508444  3
  12246  12244  12247  12255     1  0.0000000  1.0460000  1
  12246  12244  12247  12255     1  0.0000000  0.0000000  3
  12246  12244  12247  12251     1  0.0000000  0.6508444  3
  12246  12244  12256  12259     1  0.0000000  0.6973333  3
  12246  12244  12243  12257     1  0.0000000  0.6508444  3
  12246  12244  12243  12265     1  0.0000000  1.0460000  1
  12246  12244  12243  12265     1  0.0000000  0.0000000  3
  12247  12248  12249  12252     1  0.0000000  0.6508444  3
  12247  12248  12254  12260     1  0.0000000  1.0460000  1
  12247  12248  12254  12260     1  0.0000000  0.6694400  3
  12247  12244  12256  12259     1  0.0000000  1.0460000  1
  12247  12244  12256  12259     1  0.0000000  0.6694400  3
  12248  12247  12255  12258     1  0.0000000  1.0460000  1
  12248  12247  12255  12258     1  0.0000000  0.6694400  3
  12249  12248  12254  12260     1  0.0000000  1.0460000  1
  12249  12248  12254  12260     1  0.0000000  0.6694400  3
  12249  12248  12247  12251     1  0.0000000  0.6508444  3
  12250  12248  12249  12253     1  0.0000000  1.0460000  1
  12250  12248  12249  12253     1  0.0000000  0.0000000  3
  12250  12248  12249  12265     1  0.0000000  1.0460000  1
  12250  12248  12249  12265     1  0.0000000  0.0000000  3
  12250  12248  12249  12252     1  0.0000000  0.6508444  3
  12250  12248  12254  12260     1  0.0000000  0.6973333  3
  12250  12248  12247  12255     1  0.0000000  1.0460000  1
  12250  12248  12247  12255     1  0.0000000  0.0000000  3
  12250  12248  12247  12251     1  0.0000000  0.6508444  3
  12251  12247  12248  12254     1  0.0000000  1.0460000  1
  12251  12247  12248  12254     1  0.0000000  0.0000000  3
  12251  12247  12255  12258     1  0.0000000  0.6973333  3
  12251  12247  12244  12256     1  0.0000000  1.0460000  1
  12251  12247  12244  12256     1  0.0000000  0.0000000  3
  12252  12249  12248  12254     1  0.0000000  0.6508444  3
  12261  12257  12263  12264     1  0.0000000  0.6973333  3
  12261  12257  12243  12265     1  0.0000000  1.0460000  1
  12261  12257  12243  12265     1  0.0000000  0.0000000  3
  12262  12257  12263  12264     1  0.0000000  0.6973333  3
  12262  12257  12243  12265     1  0.0000000  1.0460000  1
  12262  12257  12243  12265     1  0.0000000  0.0000000  3
  12266  12267  12270  12274     1  0.0000000  0.6508444  3
  12266  12267  12279  12282     1  0.0000000  1.0460000  1
  12266  12267  12279  12282     1  0.0000000  0.6694400  3
  12266  12280  12286  12287     1  0.0000000  1.0460000  1
  12266  12280  12286  12287     1  0.0000000  0.6694400  3
  12266  12288  12272  12275     1  0.0000000  1.6038667  3
  12267  12266  12280  12284     1  0.0000000  0.6508444  3
  12267  12266  12280  12285     1  0.0000000  0.6508444  3
  12267  12270  12271  12273     1  0.0000000  0.6508444  3
  12267  12270  12278  12281     1  0.0000000  1.0460000  1
  12267  12270  12278  12281     1  0.0000000  0.6694400  3
  12268  12266  12267  12270     1  0.0000000  0.6508444  3
  12268  12266  12267  12279     1  0.0000000  1.0460000  1
  12268  12266  12267  12279     1  0.0000000  0.0000000  3
  12268  12266  12267  12269     1  0.0000000  0.6508444  3
  12268  12266  12280  12286     1  0.0000000  1.0460000  1
  12268  12266  12280  12286     1  0.0000000  0.0000000  3
  12268  12266  12280  12284     1  0.0000000  0.6508444  3
  12268  12266  12280  12285     1  0.0000000  0.6508444  3
  12268  12266  12288  12272     1  0.0000000  1.6038667  3
  12269  12267  12266  12280     1  0.0000000  0.6508444  3
  12269  12267  12266  12288     1  0.0000000  1.0460000  1
  12269  12267  12266  12288     1  0.0000000  0.0000000  3
  12269  12267  12270  12271     1  0.0000000  0.6508444  3
  12269  12267  12270  12278     1  0.0000000  1.0460000  1
  12269  12267  12270  12278     1  0.0000000  0.0000000  3
  12269  12267  12270  12274     1  0.0000000  0.6508444  3
  12269  12267  12279  12282     1  0.0000000  0.6973333  3
  12270  12267  12279  12282     1  0.0000000  1.0460000  1
  12270  12267  12279  12282     1  0.0000000  0.6694400  3
  12270  12271  12272  12275     1  0.0000000  0.6508444  3
  12270  12271  12277  12283     1  0.0000000  1.0460000  1
  12270  12271  12277  12283     1  0.0000000  0.6694400  3
  12271  12270  12278  12281     1  0.0000000  1.0460000  1
  12271  12270  12278  12281     1  0.0000000  0.6694400  3
  12272  12271  12270  12274     1  0.0000000  0.6508444  3
  12272  12271  12277  12283     1  0.0000000  1.0460000  1
  12272  12271  12277  12283     1  0.0000000  0.6694400  3
  12273  12271  12270  12278     1  0.0000000  1.0460000  1
  12273  12271  12270  12278     1  0.0000000  0.0000000  3
  12273  12271  12270  12274     1  0.0000000  0.6508444  3
  12273  12271  12272  12276     1  0.0000000  1.0460000  1
  12273  12271  12272  12276     1  0.0000000  0.0000000  3
  12273  12271  12272  12288     1  0.0000000  1.0460000  1
  12273  12271  12272  12288     1  0.0000000  0.0000000  3
  12273  12271  12272  12275     1  0.0000000  0.6508444  3
  12273  12271  12277  12283     1  0.0000000  0.6973333  3
  12274  12270  12267  12279     1  0.0000000  1.0460000  1
  12274  12270  12267  12279     1  0.0000000  0.0000000  3
  12274  12270  12271  12277     1  0.0000000  1.0460000  1
  12274  12270  12271  12277     1  0.0000000  0.0000000  3
  12274  12270  12278  12281     1  0.0000000  0.6973333  3
  12275  12272  12271  12277     1  0.0000000  0.6508444  3
  12284  12280  12266  12288     1  0.0000000  1.0460000  1
  12284  12280  12266  12288     1  0.0000000  0.0000000  3
  12284  12280  12286  12287     1  0.0000000  0.6973333  3
  12285  12280  12266  12288     1  0.0000000  1.0460000  1
  12285  12280  12266  12288     1  0.0000000  0.0000000  3
  12285  12280  12286  12287     1  0.0000000  0.6973333  3
  12289  12290  12293  12297     1  0.0000000  0.6508444  3
  12289  12290  12302  12305     1  0.0000000  1.0460000  1
  12289  12290  12302  12305     1  0.0000000  0.6694400  3
  12289  12303  12309  12310     1  0.0000000  1.0460000  1
  12289  12303  12309  12310     1  0.0000000  0.6694400  3
  12289  12311  12295  12298     1  0.0000000  1.6038667  3
  12290  12293  12294  12296     1  0.0000000  0.6508444  3
  12290  12293  12301  12304     1  0.0000000  1.0460000  1
  12290  12293  12301  12304     1  0.0000000  0.6694400  3
  12290  12289  12303  12307     1  0.0000000  0.6508444  3
  12290  12289  12303  12308     1  0.0000000  0.6508444  3
  12291  12289  12290  12293     1  0.0000000  0.6508444  3
  12291  12289  12290  12302     1  0.0000000  1.0460000  1
  12291  12289  12290  12302     1  0.0000000  0.0000000  3
  12291  12289  12290  12292     1  0.0000000  0.6508444  3
  12291  12289  12303  12309     1  0.0000000  1.0460000  1
  12291  12289  12303  12309     1  0.0000000  0.0000000  3
  12291  12289  12303  12307     1  0.0000000  0.6508444  3
  12291  12289  12303  12308     1  0.0000000  0.6508444  3
  12291  12289  12311  12295     1  0.0000000  1.6038667  3
  12292  12290  12293  12294     1  0.0000000  0.6508444  3
  12292  12290  12293  12301     1  0.0000000  1.0460000  1
  12292  12290  12293  12301     1  0.0000000  0.0000000  3
  12292  12290  12293  12297     1  0.0000000  0.6508444  3
  12292  12290  12302  12305     1  0.0000000  0.6973333  3
  12292  12290  12289  12303     1  0.0000000  0.6508444  3
  12292  12290  12289  12311     1  0.0000000  1.0460000  1
  12292  12290  12289  12311     1  0.0000000  0.0000000  3
  12293  12294  12295  12298     1  0.0000000  0.6508444  3
  12293  12294  12300  12306     1  0.0000000  1.0460000  1
  12293  12294  12300  12306     1  0.0000000  0.6694400  3
  12293  12290  12302  12305     1  0.0000000  1.0460000  1
  12293  12290  12302  12305     1  0.0000000  0.6694400  3
  12294  12293  12301  12304     1  0.0000000  1.0460000  1
  12294  12293  12301  12304     1  0.0000000  0.6694400  3
  12295  12294  12300  12306     1  0.0000000  1.0460000  1
  12295  12294  12300  12306     1  0.0000000  0.6694400  3
  12295  12294  12293  12297     1  0.0000000  0.6508444  3
  12296  12294  12295  12299     1  0.0000000  1.0460000  1
  12296  12294  12295  12299     1  0.0000000  0.0000000  3
  12296  12294  12295  12311     1  0.0000000  1.0460000  1
  12296  12294  12295  12311     1  0.0000000  0.0000000  3
  12296  12294  12295  12298     1  0.0000000  0.6508444  3
  12296  12294  12300  12306     1  0.0000000  0.6973333  3
  12296  12294  12293  12301     1  0.0000000  1.0460000  1
  12296  12294  12293  12301     1  0.0000000  0.0000000  3
  12296  12294  12293  12297     1  0.0000000  0.6508444  3
  12297  12293  12294  12300     1  0.0000000  1.0460000  1
  12297  12293  12294  12300     1  0.0000000  0.0000000  3
  12297  12293  12301  12304     1  0.0000000  0.6973333  3
  12297  12293  12290  12302     1  0.0000000  1.0460000  1
  12297  12293  12290  12302     1  0.0000000  0.0000000  3
  12298  12295  12294  12300     1  0.0000000  0.6508444  3
  12307  12303  12309  12310     1  0.0000000  0.6973333  3
  12307  12303  12289  12311     1  0.0000000  1.0460000  1
  12307  12303  12289  12311     1  0.0000000  0.0000000  3
  12308  12303  12309  12310     1  0.0000000  0.6973333  3
  12308  12303  12289  12311     1  0.0000000  1.0460000  1
  12308  12303  12289  12311     1  0.0000000  0.0000000  3
  12312  12313  12316  12320     1  0.0000000  0.6508444  3
  12312  12313  12325  12328     1  0.0000000  1.0460000  1
  12312  12313  12325  12328     1  0.0000000  0.6694400  3
  12312  12326  12332  12333     1  0.0000000  1.0460000  1
  12312  12326  12332  12333     1  0.0000000  0.6694400  3
  12312  12334  12318  12321     1  0.0000000  1.6038667  3
  12313  12312  12326  12330     1  0.0000000  0.6508444  3
  12313  12312  12326  12331     1  0.0000000  0.6508444  3
  12313  12316  12317  12319     1  0.0000000  0.6508444  3
  12313  12316  12324  12327     1  0.0000000  1.0460000  1
  12313  12316  12324  12327     1  0.0000000  0.6694400  3
  12314  12312  12313  12316     1  0.0000000  0.6508444  3
  12314  12312  12313  12325     1  0.0000000  1.0460000  1
  12314  12312  12313  12325     1  0.0000000  0.0000000  3
  12314  12312  12313  12315     1  0.0000000  0.6508444  3
  12314  12312  12326  12332     1  0.0000000  1.0460000  1
  12314  12312  12326  12332     1  0.0000000  0.0000000  3
  12314  12312  12326  12330     1  0.0000000  0.6508444  3
  12314  12312  12326  12331     1  0.0000000  0.6508444  3
  12314  12312  12334  12318     1  0.0000000  1.6038667  3
  12315  12313  12312  12326     1  0.0000000  0.6508444  3
  12315  12313  12312  12334     1  0.0000000  1.0460000  1
  12315  12313  12312  12334     1  0.0000000  0.0000000  3
  12315  12313  12316  12317     1  0.0000000  0.6508444  3
  12315  12313  12316  12324     1  0.0000000  1.0460000  1
  12315  12313  12316  12324     1  0.0000000  0.0000000  3
  12315  12313  12316  12320     1  0.0000000  0.6508444  3
  12315  12313  12325  12328     1  0.0000000  0.6973333  3
  12316  12313  12325  12328     1  0.0000000  1.0460000  1
  12316  12313  12325  12328     1  0.0000000  0.6694400  3
  12316  12317  12318  12321     1  0.0000000  0.6508444  3
  12316  12317  12323  12329     1  0.0000000  1.0460000  1
  12316  12317  12323  12329     1  0.0000000  0.6694400  3
  12317  12316  12324  12327     1  0.0000000  1.0460000  1
  12317  12316  12324  12327     1  0.0000000  0.6694400  3
  12318  12317  12316  12320     1  0.0000000  0.6508444  3
  12318  12317  12323  12329     1  0.0000000  1.0460000  1
  12318  12317  12323  12329     1  0.0000000  0.6694400  3
  12319  12317  12316  12324     1  0.0000000  1.0460000  1
  12319  12317  12316  12324     1  0.0000000  0.0000000  3
  12319  12317  12316  12320     1  0.0000000  0.6508444  3
  12319  12317  12318  12322     1  0.0000000  1.0460000  1
  12319  12317  12318  12322     1  0.0000000  0.0000000  3
  12319  12317  12318  12334     1  0.0000000  1.0460000  1
  12319  12317  12318  12334     1  0.0000000  0.0000000  3
  12319  12317  12318  12321     1  0.0000000  0.6508444  3
  12319  12317  12323  12329     1  0.0000000  0.6973333  3
  12320  12316  12313  12325     1  0.0000000  1.0460000  1
  12320  12316  12313  12325     1  0.0000000  0.0000000  3
  12320  12316  12317  12323     1  0.0000000  1.0460000  1
  12320  12316  12317  12323     1  0.0000000  0.0000000  3
  12320  12316  12324  12327     1  0.0000000  0.6973333  3
  12321  12318  12317  12323     1  0.0000000  0.6508444  3
  12330  12326  12312  12334     1  0.0000000  1.0460000  1
  12330  12326  12312  12334     1  0.0000000  0.0000000  3
  12330  12326  12332  12333     1  0.0000000  0.6973333  3
  12331  12326  12312  12334     1  0.0000000  1.0460000  1
  12331  12326  12312  12334     1  0.0000000  0.0000000  3
  12331  12326  12332  12333     1  0.0000000  0.6973333  3
  12335  12336  12339  12343     1  0.0000000  0.6508444  3
  12335  12336  12348  12351     1  0.0000000  1.0460000  1
  12335  12336  12348  12351     1  0.0000000  0.6694400  3
  12335  12349  12355  12356     1  0.0000000  1.0460000  1
  12335  12349  12355  12356     1  0.0000000  0.6694400  3
  12335  12357  12341  12344     1  0.0000000  1.6038667  3
  12336  12339  12340  12342     1  0.0000000  0.6508444  3
  12336  12339  12347  12350     1  0.0000000  1.0460000  1
  12336  12339  12347  12350     1  0.0000000  0.6694400  3
  12336  12335  12349  12353     1  0.0000000  0.6508444  3
  12336  12335  12349  12354     1  0.0000000  0.6508444  3
  12337  12335  12336  12339     1  0.0000000  0.6508444  3
  12337  12335  12336  12348     1  0.0000000  1.0460000  1
  12337  12335  12336  12348     1  0.0000000  0.0000000  3
  12337  12335  12336  12338     1  0.0000000  0.6508444  3
  12337  12335  12349  12355     1  0.0000000  1.0460000  1
  12337  12335  12349  12355     1  0.0000000  0.0000000  3
  12337  12335  12349  12353     1  0.0000000  0.6508444  3
  12337  12335  12349  12354     1  0.0000000  0.6508444  3
  12337  12335  12357  12341     1  0.0000000  1.6038667  3
  12338  12336  12339  12340     1  0.0000000  0.6508444  3
  12338  12336  12339  12347     1  0.0000000  1.0460000  1
  12338  12336  12339  12347     1  0.0000000  0.0000000  3
  12338  12336  12339  12343     1  0.0000000  0.6508444  3
  12338  12336  12348  12351     1  0.0000000  0.6973333  3
  12338  12336  12335  12349     1  0.0000000  0.6508444  3
  12338  12336  12335  12357     1  0.0000000  1.0460000  1
  12338  12336  12335  12357     1  0.0000000  0.0000000  3
  12339  12340  12341  12344     1  0.0000000  0.6508444  3
  12339  12340  12346  12352     1  0.0000000  1.0460000  1
  12339  12340  12346  12352     1  0.0000000  0.6694400  3
  12339  12336  12348  12351     1  0.0000000  1.0460000  1
  12339  12336  12348  12351     1  0.0000000  0.6694400  3
  12340  12339  12347  12350     1  0.0000000  1.0460000  1
  12340  12339  12347  12350     1  0.0000000  0.6694400  3
  12341  12340  12346  12352     1  0.0000000  1.0460000  1
  12341  12340  12346  12352     1  0.0000000  0.6694400  3
  12341  12340  12339  12343     1  0.0000000  0.6508444  3
  12342  12340  12341  12345     1  0.0000000  1.0460000  1
  12342  12340  12341  12345     1  0.0000000  0.0000000  3
  12342  12340  12341  12357     1  0.0000000  1.0460000  1
  12342  12340  12341  12357     1  0.0000000  0.0000000  3
  12342  12340  12341  12344     1  0.0000000  0.6508444  3
  12342  12340  12346  12352     1  0.0000000  0.6973333  3
  12342  12340  12339  12347     1  0.0000000  1.0460000  1
  12342  12340  12339  12347     1  0.0000000  0.0000000  3
  12342  12340  12339  12343     1  0.0000000  0.6508444  3
  12343  12339  12340  12346     1  0.0000000  1.0460000  1
  12343  12339  12340  12346     1  0.0000000  0.0000000  3
  12343  12339  12347  12350     1  0.0000000  0.6973333  3
  12343  12339  12336  12348     1  0.0000000  1.0460000  1
  12343  12339  12336  12348     1  0.0000000  0.0000000  3
  12344  12341  12340  12346     1  0.0000000  0.6508444  3
  12353  12349  12355  12356     1  0.0000000  0.6973333  3
  12353  12349  12335  12357     1  0.0000000  1.0460000  1
  12353  12349  12335  12357     1  0.0000000  0.0000000  3
  12354  12349  12355  12356     1  0.0000000  0.6973333  3
  12354  12349  12335  12357     1  0.0000000  1.0460000  1
  12354  12349  12335  12357     1  0.0000000  0.0000000  3
  12358  12359  12362  12366     1  0.0000000  0.6508444  3
  12358  12359  12371  12374     1  0.0000000  1.0460000  1
  12358  12359  12371  12374     1  0.0000000  0.6694400  3
  12358  12372  12378  12379     1  0.0000000  1.0460000  1
  12358  12372  12378  12379     1  0.0000000  0.6694400  3
  12358  12380  12364  12367     1  0.0000000  1.6038667  3
  12359  12358  12372  12376     1  0.0000000  0.6508444  3
  12359  12358  12372  12377     1  0.0000000  0.6508444  3
  12359  12362  12363  12365     1  0.0000000  0.6508444  3
  12359  12362  12370  12373     1  0.0000000  1.0460000  1
  12359  12362  12370  12373     1  0.0000000  0.6694400  3
  12360  12358  12359  12362     1  0.0000000  0.6508444  3
  12360  12358  12359  12371     1  0.0000000  1.0460000  1
  12360  12358  12359  12371     1  0.0000000  0.0000000  3
  12360  12358  12359  12361     1  0.0000000  0.6508444  3
  12360  12358  12372  12378     1  0.0000000  1.0460000  1
  12360  12358  12372  12378     1  0.0000000  0.0000000  3
  12360  12358  12372  12376     1  0.0000000  0.6508444  3
  12360  12358  12372  12377     1  0.0000000  0.6508444  3
  12360  12358  12380  12364     1  0.0000000  1.6038667  3
  12361  12359  12358  12372     1  0.0000000  0.6508444  3
  12361  12359  12358  12380     1  0.0000000  1.0460000  1
  12361  12359  12358  12380     1  0.0000000  0.0000000  3
  12361  12359  12362  12363     1  0.0000000  0.6508444  3
  12361  12359  12362  12370     1  0.0000000  1.0460000  1
  12361  12359  12362  12370     1  0.0000000  0.0000000  3
  12361  12359  12362  12366     1  0.0000000  0.6508444  3
  12361  12359  12371  12374     1  0.0000000  0.6973333  3
  12362  12359  12371  12374     1  0.0000000  1.0460000  1
  12362  12359  12371  12374     1  0.0000000  0.6694400  3
  12362  12363  12364  12367     1  0.0000000  0.6508444  3
  12362  12363  12369  12375     1  0.0000000  1.0460000  1
  12362  12363  12369  12375     1  0.0000000  0.6694400  3
  12363  12362  12370  12373     1  0.0000000  1.0460000  1
  12363  12362  12370  12373     1  0.0000000  0.6694400  3
  12364  12363  12362  12366     1  0.0000000  0.6508444  3
  12364  12363  12369  12375     1  0.0000000  1.0460000  1
  12364  12363  12369  12375     1  0.0000000  0.6694400  3
  12365  12363  12362  12370     1  0.0000000  1.0460000  1
  12365  12363  12362  12370     1  0.0000000  0.0000000  3
  12365  12363  12362  12366     1  0.0000000  0.6508444  3
  12365  12363  12364  12368     1  0.0000000  1.0460000  1
  12365  12363  12364  12368     1  0.0000000  0.0000000  3
  12365  12363  12364  12380     1  0.0000000  1.0460000  1
  12365  12363  12364  12380     1  0.0000000  0.0000000  3
  12365  12363  12364  12367     1  0.0000000  0.6508444  3
  12365  12363  12369  12375     1  0.0000000  0.6973333  3
  12366  12362  12359  12371     1  0.0000000  1.0460000  1
  12366  12362  12359  12371     1  0.0000000  0.0000000  3
  12366  12362  12363  12369     1  0.0000000  1.0460000  1
  12366  12362  12363  12369     1  0.0000000  0.0000000  3
  12366  12362  12370  12373     1  0.0000000  0.6973333  3
  12367  12364  12363  12369     1  0.0000000  0.6508444  3
  12376  12372  12358  12380     1  0.0000000  1.0460000  1
  12376  12372  12358  12380     1  0.0000000  0.0000000  3
  12376  12372  12378  12379     1  0.0000000  0.6973333  3
  12377  12372  12358  12380     1  0.0000000  1.0460000  1
  12377  12372  12358  12380     1  0.0000000  0.0000000  3
  12377  12372  12378  12379     1  0.0000000  0.6973333  3
  12381  12382  12385  12389     1  0.0000000  0.6508444  3
  12381  12382  12394  12397     1  0.0000000  1.0460000  1
  12381  12382  12394  12397     1  0.0000000  0.6694400  3
  12381  12395  12401  12402     1  0.0000000  1.0460000  1
  12381  12395  12401  12402     1  0.0000000  0.6694400  3
  12381  12403  12387  12390     1  0.0000000  1.6038667  3
  12382  12385  12386  12388     1  0.0000000  0.6508444  3
  12382  12385  12393  12396     1  0.0000000  1.0460000  1
  12382  12385  12393  12396     1  0.0000000  0.6694400  3
  12382  12381  12395  12399     1  0.0000000  0.6508444  3
  12382  12381  12395  12400     1  0.0000000  0.6508444  3
  12383  12381  12382  12385     1  0.0000000  0.6508444  3
  12383  12381  12382  12394     1  0.0000000  1.0460000  1
  12383  12381  12382  12394     1  0.0000000  0.0000000  3
  12383  12381  12382  12384     1  0.0000000  0.6508444  3
  12383  12381  12395  12401     1  0.0000000  1.0460000  1
  12383  12381  12395  12401     1  0.0000000  0.0000000  3
  12383  12381  12395  12399     1  0.0000000  0.6508444  3
  12383  12381  12395  12400     1  0.0000000  0.6508444  3
  12383  12381  12403  12387     1  0.0000000  1.6038667  3
  12384  12382  12385  12386     1  0.0000000  0.6508444  3
  12384  12382  12385  12393     1  0.0000000  1.0460000  1
  12384  12382  12385  12393     1  0.0000000  0.0000000  3
  12384  12382  12385  12389     1  0.0000000  0.6508444  3
  12384  12382  12394  12397     1  0.0000000  0.6973333  3
  12384  12382  12381  12395     1  0.0000000  0.6508444  3
  12384  12382  12381  12403     1  0.0000000  1.0460000  1
  12384  12382  12381  12403     1  0.0000000  0.0000000  3
  12385  12386  12387  12390     1  0.0000000  0.6508444  3
  12385  12386  12392  12398     1  0.0000000  1.0460000  1
  12385  12386  12392  12398     1  0.0000000  0.6694400  3
  12385  12382  12394  12397     1  0.0000000  1.0460000  1
  12385  12382  12394  12397     1  0.0000000  0.6694400  3
  12386  12385  12393  12396     1  0.0000000  1.0460000  1
  12386  12385  12393  12396     1  0.0000000  0.6694400  3
  12387  12386  12392  12398     1  0.0000000  1.0460000  1
  12387  12386  12392  12398     1  0.0000000  0.6694400  3
  12387  12386  12385  12389     1  0.0000000  0.6508444  3
  12388  12386  12387  12391     1  0.0000000  1.0460000  1
  12388  12386  12387  12391     1  0.0000000  0.0000000  3
  12388  12386  12387  12403     1  0.0000000  1.0460000  1
  12388  12386  12387  12403     1  0.0000000  0.0000000  3
  12388  12386  12387  12390     1  0.0000000  0.6508444  3
  12388  12386  12392  12398     1  0.0000000  0.6973333  3
  12388  12386  12385  12393     1  0.0000000  1.0460000  1
  12388  12386  12385  12393     1  0.0000000  0.0000000  3
  12388  12386  12385  12389     1  0.0000000  0.6508444  3
  12389  12385  12386  12392     1  0.0000000  1.0460000  1
  12389  12385  12386  12392     1  0.0000000  0.0000000  3
  12389  12385  12393  12396     1  0.0000000  0.6973333  3
  12389  12385  12382  12394     1  0.0000000  1.0460000  1
  12389  12385  12382  12394     1  0.0000000  0.0000000  3
  12390  12387  12386  12392     1  0.0000000  0.6508444  3
  12399  12395  12401  12402     1  0.0000000  0.6973333  3
  12399  12395  12381  12403     1  0.0000000  1.0460000  1
  12399  12395  12381  12403     1  0.0000000  0.0000000  3
  12400  12395  12401  12402     1  0.0000000  0.6973333  3
  12400  12395  12381  12403     1  0.0000000  1.0460000  1
  12400  12395  12381  12403     1  0.0000000  0.0000000  3
  12404  12405  12408  12412     1  0.0000000  0.6508444  3
  12404  12405  12417  12420     1  0.0000000  1.0460000  1
  12404  12405  12417  12420     1  0.0000000  0.6694400  3
  12404  12418  12424  12425     1  0.0000000  1.0460000  1
  12404  12418  12424  12425     1  0.0000000  0.6694400  3
  12404  12426  12410  12413     1  0.0000000  1.6038667  3
  12405  12404  12418  12422     1  0.0000000  0.6508444  3
  12405  12404  12418  12423     1  0.0000000  0.6508444  3
  12405  12408  12409  12411     1  0.0000000  0.6508444  3
  12405  12408  12416  12419     1  0.0000000  1.0460000  1
  12405  12408  12416  12419     1  0.0000000  0.6694400  3
  12406  12404  12405  12408     1  0.0000000  0.6508444  3
  12406  12404  12405  12417     1  0.0000000  1.0460000  1
  12406  12404  12405  12417     1  0.0000000  0.0000000  3
  12406  12404  12405  12407     1  0.0000000  0.6508444  3
  12406  12404  12418  12424     1  0.0000000  1.0460000  1
  12406  12404  12418  12424     1  0.0000000  0.0000000  3
  12406  12404  12418  12422     1  0.0000000  0.6508444  3
  12406  12404  12418  12423     1  0.0000000  0.6508444  3
  12406  12404  12426  12410     1  0.0000000  1.6038667  3
  12407  12405  12404  12418     1  0.0000000  0.6508444  3
  12407  12405  12404  12426     1  0.0000000  1.0460000  1
  12407  12405  12404  12426     1  0.0000000  0.0000000  3
  12407  12405  12408  12409     1  0.0000000  0.6508444  3
  12407  12405  12408  12416     1  0.0000000  1.0460000  1
  12407  12405  12408  12416     1  0.0000000  0.0000000  3
  12407  12405  12408  12412     1  0.0000000  0.6508444  3
  12407  12405  12417  12420     1  0.0000000  0.6973333  3
  12408  12405  12417  12420     1  0.0000000  1.0460000  1
  12408  12405  12417  12420     1  0.0000000  0.6694400  3
  12408  12409  12410  12413     1  0.0000000  0.6508444  3
  12408  12409  12415  12421     1  0.0000000  1.0460000  1
  12408  12409  12415  12421     1  0.0000000  0.6694400  3
  12409  12408  12416  12419     1  0.0000000  1.0460000  1
  12409  12408  12416  12419     1  0.0000000  0.6694400  3
  12410  12409  12408  12412     1  0.0000000  0.6508444  3
  12410  12409  12415  12421     1  0.0000000  1.0460000  1
  12410  12409  12415  12421     1  0.0000000  0.6694400  3
  12411  12409  12408  12416     1  0.0000000  1.0460000  1
  12411  12409  12408  12416     1  0.0000000  0.0000000  3
  12411  12409  12408  12412     1  0.0000000  0.6508444  3
  12411  12409  12410  12414     1  0.0000000  1.0460000  1
  12411  12409  12410  12414     1  0.0000000  0.0000000  3
  12411  12409  12410  12426     1  0.0000000  1.0460000  1
  12411  12409  12410  12426     1  0.0000000  0.0000000  3
  12411  12409  12410  12413     1  0.0000000  0.6508444  3
  12411  12409  12415  12421     1  0.0000000  0.6973333  3
  12412  12408  12405  12417     1  0.0000000  1.0460000  1
  12412  12408  12405  12417     1  0.0000000  0.0000000  3
  12412  12408  12409  12415     1  0.0000000  1.0460000  1
  12412  12408  12409  12415     1  0.0000000  0.0000000  3
  12412  12408  12416  12419     1  0.0000000  0.6973333  3
  12413  12410  12409  12415     1  0.0000000  0.6508444  3
  12422  12418  12404  12426     1  0.0000000  1.0460000  1
  12422  12418  12404  12426     1  0.0000000  0.0000000  3
  12422  12418  12424  12425     1  0.0000000  0.6973333  3
  12423  12418  12404  12426     1  0.0000000  1.0460000  1
  12423  12418  12404  12426     1  0.0000000  0.0000000  3
  12423  12418  12424  12425     1  0.0000000  0.6973333  3
  12427  12428  12431  12435     1  0.0000000  0.6508444  3
  12427  12428  12440  12443     1  0.0000000  1.0460000  1
  12427  12428  12440  12443     1  0.0000000  0.6694400  3
  12427  12441  12447  12448     1  0.0000000  1.0460000  1
  12427  12441  12447  12448     1  0.0000000  0.6694400  3
  12427  12449  12433  12436     1  0.0000000  1.6038667  3
  12428  12431  12432  12434     1  0.0000000  0.6508444  3
  12428  12431  12439  12442     1  0.0000000  1.0460000  1
  12428  12431  12439  12442     1  0.0000000  0.6694400  3
  12428  12427  12441  12445     1  0.0000000  0.6508444  3
  12428  12427  12441  12446     1  0.0000000  0.6508444  3
  12429  12427  12428  12431     1  0.0000000  0.6508444  3
  12429  12427  12428  12440     1  0.0000000  1.0460000  1
  12429  12427  12428  12440     1  0.0000000  0.0000000  3
  12429  12427  12428  12430     1  0.0000000  0.6508444  3
  12429  12427  12441  12447     1  0.0000000  1.0460000  1
  12429  12427  12441  12447     1  0.0000000  0.0000000  3
  12429  12427  12441  12445     1  0.0000000  0.6508444  3
  12429  12427  12441  12446     1  0.0000000  0.6508444  3
  12429  12427  12449  12433     1  0.0000000  1.6038667  3
  12430  12428  12431  12432     1  0.0000000  0.6508444  3
  12430  12428  12431  12439     1  0.0000000  1.0460000  1
  12430  12428  12431  12439     1  0.0000000  0.0000000  3
  12430  12428  12431  12435     1  0.0000000  0.6508444  3
  12430  12428  12440  12443     1  0.0000000  0.6973333  3
  12430  12428  12427  12441     1  0.0000000  0.6508444  3
  12430  12428  12427  12449     1  0.0000000  1.0460000  1
  12430  12428  12427  12449     1  0.0000000  0.0000000  3
  12431  12432  12433  12436     1  0.0000000  0.6508444  3
  12431  12432  12438  12444     1  0.0000000  1.0460000  1
  12431  12432  12438  12444     1  0.0000000  0.6694400  3
  12431  12428  12440  12443     1  0.0000000  1.0460000  1
  12431  12428  12440  12443     1  0.0000000  0.6694400  3
  12432  12431  12439  12442     1  0.0000000  1.0460000  1
  12432  12431  12439  12442     1  0.0000000  0.6694400  3
  12433  12432  12438  12444     1  0.0000000  1.0460000  1
  12433  12432  12438  12444     1  0.0000000  0.6694400  3
  12433  12432  12431  12435     1  0.0000000  0.6508444  3
  12434  12432  12433  12437     1  0.0000000  1.0460000  1
  12434  12432  12433  12437     1  0.0000000  0.0000000  3
  12434  12432  12433  12449     1  0.0000000  1.0460000  1
  12434  12432  12433  12449     1  0.0000000  0.0000000  3
  12434  12432  12433  12436     1  0.0000000  0.6508444  3
  12434  12432  12438  12444     1  0.0000000  0.6973333  3
  12434  12432  12431  12439     1  0.0000000  1.0460000  1
  12434  12432  12431  12439     1  0.0000000  0.0000000  3
  12434  12432  12431  12435     1  0.0000000  0.6508444  3
  12435  12431  12432  12438     1  0.0000000  1.0460000  1
  12435  12431  12432  12438     1  0.0000000  0.0000000  3
  12435  12431  12439  12442     1  0.0000000  0.6973333  3
  12435  12431  12428  12440     1  0.0000000  1.0460000  1
  12435  12431  12428  12440     1  0.0000000  0.0000000  3
  12436  12433  12432  12438     1  0.0000000  0.6508444  3
  12445  12441  12447  12448     1  0.0000000  0.6973333  3
  12445  12441  12427  12449     1  0.0000000  1.0460000  1
  12445  12441  12427  12449     1  0.0000000  0.0000000  3
  12446  12441  12447  12448     1  0.0000000  0.6973333  3
  12446  12441  12427  12449     1  0.0000000  1.0460000  1
  12446  12441  12427  12449     1  0.0000000  0.0000000  3
  12450  12451  12454  12458     1  0.0000000  0.6508444  3
  12450  12451  12463  12466     1  0.0000000  1.0460000  1
  12450  12451  12463  12466     1  0.0000000  0.6694400  3
  12450  12464  12470  12471     1  0.0000000  1.0460000  1
  12450  12464  12470  12471     1  0.0000000  0.6694400  3
  12450  12472  12456  12459     1  0.0000000  1.6038667  3
  12451  12450  12464  12468     1  0.0000000  0.6508444  3
  12451  12450  12464  12469     1  0.0000000  0.6508444  3
  12451  12454  12455  12457     1  0.0000000  0.6508444  3
  12451  12454  12462  12465     1  0.0000000  1.0460000  1
  12451  12454  12462  12465     1  0.0000000  0.6694400  3
  12452  12450  12451  12454     1  0.0000000  0.6508444  3
  12452  12450  12451  12463     1  0.0000000  1.0460000  1
  12452  12450  12451  12463     1  0.0000000  0.0000000  3
  12452  12450  12451  12453     1  0.0000000  0.6508444  3
  12452  12450  12464  12470     1  0.0000000  1.0460000  1
  12452  12450  12464  12470     1  0.0000000  0.0000000  3
  12452  12450  12464  12468     1  0.0000000  0.6508444  3
  12452  12450  12464  12469     1  0.0000000  0.6508444  3
  12452  12450  12472  12456     1  0.0000000  1.6038667  3
  12453  12451  12450  12464     1  0.0000000  0.6508444  3
  12453  12451  12450  12472     1  0.0000000  1.0460000  1
  12453  12451  12450  12472     1  0.0000000  0.0000000  3
  12453  12451  12454  12455     1  0.0000000  0.6508444  3
  12453  12451  12454  12462     1  0.0000000  1.0460000  1
  12453  12451  12454  12462     1  0.0000000  0.0000000  3
  12453  12451  12454  12458     1  0.0000000  0.6508444  3
  12453  12451  12463  12466     1  0.0000000  0.6973333  3
  12454  12451  12463  12466     1  0.0000000  1.0460000  1
  12454  12451  12463  12466     1  0.0000000  0.6694400  3
  12454  12455  12456  12459     1  0.0000000  0.6508444  3
  12454  12455  12461  12467     1  0.0000000  1.0460000  1
  12454  12455  12461  12467     1  0.0000000  0.6694400  3
  12455  12454  12462  12465     1  0.0000000  1.0460000  1
  12455  12454  12462  12465     1  0.0000000  0.6694400  3
  12456  12455  12454  12458     1  0.0000000  0.6508444  3
  12456  12455  12461  12467     1  0.0000000  1.0460000  1
  12456  12455  12461  12467     1  0.0000000  0.6694400  3
  12457  12455  12454  12462     1  0.0000000  1.0460000  1
  12457  12455  12454  12462     1  0.0000000  0.0000000  3
  12457  12455  12454  12458     1  0.0000000  0.6508444  3
  12457  12455  12456  12460     1  0.0000000  1.0460000  1
  12457  12455  12456  12460     1  0.0000000  0.0000000  3
  12457  12455  12456  12472     1  0.0000000  1.0460000  1
  12457  12455  12456  12472     1  0.0000000  0.0000000  3
  12457  12455  12456  12459     1  0.0000000  0.6508444  3
  12457  12455  12461  12467     1  0.0000000  0.6973333  3
  12458  12454  12451  12463     1  0.0000000  1.0460000  1
  12458  12454  12451  12463     1  0.0000000  0.0000000  3
  12458  12454  12455  12461     1  0.0000000  1.0460000  1
  12458  12454  12455  12461     1  0.0000000  0.0000000  3
  12458  12454  12462  12465     1  0.0000000  0.6973333  3
  12459  12456  12455  12461     1  0.0000000  0.6508444  3
  12468  12464  12450  12472     1  0.0000000  1.0460000  1
  12468  12464  12450  12472     1  0.0000000  0.0000000  3
  12468  12464  12470  12471     1  0.0000000  0.6973333  3
  12469  12464  12450  12472     1  0.0000000  1.0460000  1
  12469  12464  12450  12472     1  0.0000000  0.0000000  3
  12469  12464  12470  12471     1  0.0000000  0.6973333  3
  12473  12474  12477  12481     1  0.0000000  0.6508444  3
  12473  12474  12486  12489     1  0.0000000  1.0460000  1
  12473  12474  12486  12489     1  0.0000000  0.6694400  3
  12473  12487  12493  12494     1  0.0000000  1.0460000  1
  12473  12487  12493  12494     1  0.0000000  0.6694400  3
  12473  12495  12479  12482     1  0.0000000  1.6038667  3
  12474  12477  12478  12480     1  0.0000000  0.6508444  3
  12474  12477  12485  12488     1  0.0000000  1.0460000  1
  12474  12477  12485  12488     1  0.0000000  0.6694400  3
  12474  12473  12487  12491     1  0.0000000  0.6508444  3
  12474  12473  12487  12492     1  0.0000000  0.6508444  3
  12475  12473  12474  12477     1  0.0000000  0.6508444  3
  12475  12473  12474  12486     1  0.0000000  1.0460000  1
  12475  12473  12474  12486     1  0.0000000  0.0000000  3
  12475  12473  12474  12476     1  0.0000000  0.6508444  3
  12475  12473  12487  12493     1  0.0000000  1.0460000  1
  12475  12473  12487  12493     1  0.0000000  0.0000000  3
  12475  12473  12487  12491     1  0.0000000  0.6508444  3
  12475  12473  12487  12492     1  0.0000000  0.6508444  3
  12475  12473  12495  12479     1  0.0000000  1.6038667  3
  12476  12474  12477  12478     1  0.0000000  0.6508444  3
  12476  12474  12477  12485     1  0.0000000  1.0460000  1
  12476  12474  12477  12485     1  0.0000000  0.0000000  3
  12476  12474  12477  12481     1  0.0000000  0.6508444  3
  12476  12474  12486  12489     1  0.0000000  0.6973333  3
  12476  12474  12473  12487     1  0.0000000  0.6508444  3
  12476  12474  12473  12495     1  0.0000000  1.0460000  1
  12476  12474  12473  12495     1  0.0000000  0.0000000  3
  12477  12478  12479  12482     1  0.0000000  0.6508444  3
  12477  12478  12484  12490     1  0.0000000  1.0460000  1
  12477  12478  12484  12490     1  0.0000000  0.6694400  3
  12477  12474  12486  12489     1  0.0000000  1.0460000  1
  12477  12474  12486  12489     1  0.0000000  0.6694400  3
  12478  12477  12485  12488     1  0.0000000  1.0460000  1
  12478  12477  12485  12488     1  0.0000000  0.6694400  3
  12479  12478  12484  12490     1  0.0000000  1.0460000  1
  12479  12478  12484  12490     1  0.0000000  0.6694400  3
  12479  12478  12477  12481     1  0.0000000  0.6508444  3
  12480  12478  12479  12483     1  0.0000000  1.0460000  1
  12480  12478  12479  12483     1  0.0000000  0.0000000  3
  12480  12478  12479  12495     1  0.0000000  1.0460000  1
  12480  12478  12479  12495     1  0.0000000  0.0000000  3
  12480  12478  12479  12482     1  0.0000000  0.6508444  3
  12480  12478  12484  12490     1  0.0000000  0.6973333  3
  12480  12478  12477  12485     1  0.0000000  1.0460000  1
  12480  12478  12477  12485     1  0.0000000  0.0000000  3
  12480  12478  12477  12481     1  0.0000000  0.6508444  3
  12481  12477  12478  12484     1  0.0000000  1.0460000  1
  12481  12477  12478  12484     1  0.0000000  0.0000000  3
  12481  12477  12485  12488     1  0.0000000  0.6973333  3
  12481  12477  12474  12486     1  0.0000000  1.0460000  1
  12481  12477  12474  12486     1  0.0000000  0.0000000  3
  12482  12479  12478  12484     1  0.0000000  0.6508444  3
  12491  12487  12493  12494     1  0.0000000  0.6973333  3
  12491  12487  12473  12495     1  0.0000000  1.0460000  1
  12491  12487  12473  12495     1  0.0000000  0.0000000  3
  12492  12487  12493  12494     1  0.0000000  0.6973333  3
  12492  12487  12473  12495     1  0.0000000  1.0460000  1
  12492  12487  12473  12495     1  0.0000000  0.0000000  3
  12496  12497  12500  12504     1  0.0000000  0.6508444  3
  12496  12497  12509  12512     1  0.0000000  1.0460000  1
  12496  12497  12509  12512     1  0.0000000  0.6694400  3
  12496  12510  12516  12517     1  0.0000000  1.0460000  1
  12496  12510  12516  12517     1  0.0000000  0.6694400  3
  12496  12518  12502  12505     1  0.0000000  1.6038667  3
  12497  12496  12510  12514     1  0.0000000  0.6508444  3
  12497  12496  12510  12515     1  0.0000000  0.6508444  3
  12497  12500  12501  12503     1  0.0000000  0.6508444  3
  12497  12500  12508  12511     1  0.0000000  1.0460000  1
  12497  12500  12508  12511     1  0.0000000  0.6694400  3
  12498  12496  12497  12500     1  0.0000000  0.6508444  3
  12498  12496  12497  12509     1  0.0000000  1.0460000  1
  12498  12496  12497  12509     1  0.0000000  0.0000000  3
  12498  12496  12497  12499     1  0.0000000  0.6508444  3
  12498  12496  12510  12516     1  0.0000000  1.0460000  1
  12498  12496  12510  12516     1  0.0000000  0.0000000  3
  12498  12496  12510  12514     1  0.0000000  0.6508444  3
  12498  12496  12510  12515     1  0.0000000  0.6508444  3
  12498  12496  12518  12502     1  0.0000000  1.6038667  3
  12499  12497  12496  12510     1  0.0000000  0.6508444  3
  12499  12497  12496  12518     1  0.0000000  1.0460000  1
  12499  12497  12496  12518     1  0.0000000  0.0000000  3
  12499  12497  12500  12501     1  0.0000000  0.6508444  3
  12499  12497  12500  12508     1  0.0000000  1.0460000  1
  12499  12497  12500  12508     1  0.0000000  0.0000000  3
  12499  12497  12500  12504     1  0.0000000  0.6508444  3
  12499  12497  12509  12512     1  0.0000000  0.6973333  3
  12500  12497  12509  12512     1  0.0000000  1.0460000  1
  12500  12497  12509  12512     1  0.0000000  0.6694400  3
  12500  12501  12502  12505     1  0.0000000  0.6508444  3
  12500  12501  12507  12513     1  0.0000000  1.0460000  1
  12500  12501  12507  12513     1  0.0000000  0.6694400  3
  12501  12500  12508  12511     1  0.0000000  1.0460000  1
  12501  12500  12508  12511     1  0.0000000  0.6694400  3
  12502  12501  12500  12504     1  0.0000000  0.6508444  3
  12502  12501  12507  12513     1  0.0000000  1.0460000  1
  12502  12501  12507  12513     1  0.0000000  0.6694400  3
  12503  12501  12500  12508     1  0.0000000  1.0460000  1
  12503  12501  12500  12508     1  0.0000000  0.0000000  3
  12503  12501  12500  12504     1  0.0000000  0.6508444  3
  12503  12501  12502  12506     1  0.0000000  1.0460000  1
  12503  12501  12502  12506     1  0.0000000  0.0000000  3
  12503  12501  12502  12518     1  0.0000000  1.0460000  1
  12503  12501  12502  12518     1  0.0000000  0.0000000  3
  12503  12501  12502  12505     1  0.0000000  0.6508444  3
  12503  12501  12507  12513     1  0.0000000  0.6973333  3
  12504  12500  12497  12509     1  0.0000000  1.0460000  1
  12504  12500  12497  12509     1  0.0000000  0.0000000  3
  12504  12500  12501  12507     1  0.0000000  1.0460000  1
  12504  12500  12501  12507     1  0.0000000  0.0000000  3
  12504  12500  12508  12511     1  0.0000000  0.6973333  3
  12505  12502  12501  12507     1  0.0000000  0.6508444  3
  12514  12510  12496  12518     1  0.0000000  1.0460000  1
  12514  12510  12496  12518     1  0.0000000  0.0000000  3
  12514  12510  12516  12517     1  0.0000000  0.6973333  3
  12515  12510  12496  12518     1  0.0000000  1.0460000  1
  12515  12510  12496  12518     1  0.0000000  0.0000000  3
  12515  12510  12516  12517     1  0.0000000  0.6973333  3
  12519  12520  12523  12527     1  0.0000000  0.6508444  3
  12519  12520  12532  12535     1  0.0000000  1.0460000  1
  12519  12520  12532  12535     1  0.0000000  0.6694400  3
  12519  12533  12539  12540     1  0.0000000  1.0460000  1
  12519  12533  12539  12540     1  0.0000000  0.6694400  3
  12519  12541  12525  12528     1  0.0000000  1.6038667  3
  12520  12523  12524  12526     1  0.0000000  0.6508444  3
  12520  12523  12531  12534     1  0.0000000  1.0460000  1
  12520  12523  12531  12534     1  0.0000000  0.6694400  3
  12520  12519  12533  12537     1  0.0000000  0.6508444  3
  12520  12519  12533  12538     1  0.0000000  0.6508444  3
  12521  12519  12520  12523     1  0.0000000  0.6508444  3
  12521  12519  12520  12532     1  0.0000000  1.0460000  1
  12521  12519  12520  12532     1  0.0000000  0.0000000  3
  12521  12519  12520  12522     1  0.0000000  0.6508444  3
  12521  12519  12533  12539     1  0.0000000  1.0460000  1
  12521  12519  12533  12539     1  0.0000000  0.0000000  3
  12521  12519  12533  12537     1  0.0000000  0.6508444  3
  12521  12519  12533  12538     1  0.0000000  0.6508444  3
  12521  12519  12541  12525     1  0.0000000  1.6038667  3
  12522  12520  12523  12524     1  0.0000000  0.6508444  3
  12522  12520  12523  12531     1  0.0000000  1.0460000  1
  12522  12520  12523  12531     1  0.0000000  0.0000000  3
  12522  12520  12523  12527     1  0.0000000  0.6508444  3
  12522  12520  12532  12535     1  0.0000000  0.6973333  3
  12522  12520  12519  12533     1  0.0000000  0.6508444  3
  12522  12520  12519  12541     1  0.0000000  1.0460000  1
  12522  12520  12519  12541     1  0.0000000  0.0000000  3
  12523  12524  12525  12528     1  0.0000000  0.6508444  3
  12523  12524  12530  12536     1  0.0000000  1.0460000  1
  12523  12524  12530  12536     1  0.0000000  0.6694400  3
  12523  12520  12532  12535     1  0.0000000  1.0460000  1
  12523  12520  12532  12535     1  0.0000000  0.6694400  3
  12524  12523  12531  12534     1  0.0000000  1.0460000  1
  12524  12523  12531  12534     1  0.0000000  0.6694400  3
  12525  12524  12530  12536     1  0.0000000  1.0460000  1
  12525  12524  12530  12536     1  0.0000000  0.6694400  3
  12525  12524  12523  12527     1  0.0000000  0.6508444  3
  12526  12524  12525  12529     1  0.0000000  1.0460000  1
  12526  12524  12525  12529     1  0.0000000  0.0000000  3
  12526  12524  12525  12541     1  0.0000000  1.0460000  1
  12526  12524  12525  12541     1  0.0000000  0.0000000  3
  12526  12524  12525  12528     1  0.0000000  0.6508444  3
  12526  12524  12530  12536     1  0.0000000  0.6973333  3
  12526  12524  12523  12531     1  0.0000000  1.0460000  1
  12526  12524  12523  12531     1  0.0000000  0.0000000  3
  12526  12524  12523  12527     1  0.0000000  0.6508444  3
  12527  12523  12524  12530     1  0.0000000  1.0460000  1
  12527  12523  12524  12530     1  0.0000000  0.0000000  3
  12527  12523  12531  12534     1  0.0000000  0.6973333  3
  12527  12523  12520  12532     1  0.0000000  1.0460000  1
  12527  12523  12520  12532     1  0.0000000  0.0000000  3
  12528  12525  12524  12530     1  0.0000000  0.6508444  3
  12537  12533  12539  12540     1  0.0000000  0.6973333  3
  12537  12533  12519  12541     1  0.0000000  1.0460000  1
  12537  12533  12519  12541     1  0.0000000  0.0000000  3
  12538  12533  12539  12540     1  0.0000000  0.6973333  3
  12538  12533  12519  12541     1  0.0000000  1.0460000  1
  12538  12533  12519  12541     1  0.0000000  0.0000000  3
  12542  12543  12546  12550     1  0.0000000  0.6508444  3
  12542  12543  12555  12558     1  0.0000000  1.0460000  1
  12542  12543  12555  12558     1  0.0000000  0.6694400  3
  12542  12556  12562  12563     1  0.0000000  1.0460000  1
  12542  12556  12562  12563     1  0.0000000  0.6694400  3
  12542  12564  12548  12551     1  0.0000000  1.6038667  3
  12543  12542  12556  12560     1  0.0000000  0.6508444  3
  12543  12542  12556  12561     1  0.0000000  0.6508444  3
  12543  12546  12547  12549     1  0.0000000  0.6508444  3
  12543  12546  12554  12557     1  0.0000000  1.0460000  1
  12543  12546  12554  12557     1  0.0000000  0.6694400  3
  12544  12542  12543  12546     1  0.0000000  0.6508444  3
  12544  12542  12543  12555     1  0.0000000  1.0460000  1
  12544  12542  12543  12555     1  0.0000000  0.0000000  3
  12544  12542  12543  12545     1  0.0000000  0.6508444  3
  12544  12542  12556  12562     1  0.0000000  1.0460000  1
  12544  12542  12556  12562     1  0.0000000  0.0000000  3
  12544  12542  12556  12560     1  0.0000000  0.6508444  3
  12544  12542  12556  12561     1  0.0000000  0.6508444  3
  12544  12542  12564  12548     1  0.0000000  1.6038667  3
  12545  12543  12542  12556     1  0.0000000  0.6508444  3
  12545  12543  12542  12564     1  0.0000000  1.0460000  1
  12545  12543  12542  12564     1  0.0000000  0.0000000  3
  12545  12543  12546  12547     1  0.0000000  0.6508444  3
  12545  12543  12546  12554     1  0.0000000  1.0460000  1
  12545  12543  12546  12554     1  0.0000000  0.0000000  3
  12545  12543  12546  12550     1  0.0000000  0.6508444  3
  12545  12543  12555  12558     1  0.0000000  0.6973333  3
  12546  12543  12555  12558     1  0.0000000  1.0460000  1
  12546  12543  12555  12558     1  0.0000000  0.6694400  3
  12546  12547  12548  12551     1  0.0000000  0.6508444  3
  12546  12547  12553  12559     1  0.0000000  1.0460000  1
  12546  12547  12553  12559     1  0.0000000  0.6694400  3
  12547  12546  12554  12557     1  0.0000000  1.0460000  1
  12547  12546  12554  12557     1  0.0000000  0.6694400  3
  12548  12547  12546  12550     1  0.0000000  0.6508444  3
  12548  12547  12553  12559     1  0.0000000  1.0460000  1
  12548  12547  12553  12559     1  0.0000000  0.6694400  3
  12549  12547  12546  12554     1  0.0000000  1.0460000  1
  12549  12547  12546  12554     1  0.0000000  0.0000000  3
  12549  12547  12546  12550     1  0.0000000  0.6508444  3
  12549  12547  12548  12552     1  0.0000000  1.0460000  1
  12549  12547  12548  12552     1  0.0000000  0.0000000  3
  12549  12547  12548  12564     1  0.0000000  1.0460000  1
  12549  12547  12548  12564     1  0.0000000  0.0000000  3
  12549  12547  12548  12551     1  0.0000000  0.6508444  3
  12549  12547  12553  12559     1  0.0000000  0.6973333  3
  12550  12546  12543  12555     1  0.0000000  1.0460000  1
  12550  12546  12543  12555     1  0.0000000  0.0000000  3
  12550  12546  12547  12553     1  0.0000000  1.0460000  1
  12550  12546  12547  12553     1  0.0000000  0.0000000  3
  12550  12546  12554  12557     1  0.0000000  0.6973333  3
  12551  12548  12547  12553     1  0.0000000  0.6508444  3
  12560  12556  12542  12564     1  0.0000000  1.0460000  1
  12560  12556  12542  12564     1  0.0000000  0.0000000  3
  12560  12556  12562  12563     1  0.0000000  0.6973333  3
  12561  12556  12542  12564     1  0.0000000  1.0460000  1
  12561  12556  12542  12564     1  0.0000000  0.0000000  3
  12561  12556  12562  12563     1  0.0000000  0.6973333  3
  12565  12566  12569  12573     1  0.0000000  0.6508444  3
  12565  12566  12578  12581     1  0.0000000  1.0460000  1
  12565  12566  12578  12581     1  0.0000000  0.6694400  3
  12565  12579  12585  12586     1  0.0000000  1.0460000  1
  12565  12579  12585  12586     1  0.0000000  0.6694400  3
  12565  12587  12571  12574     1  0.0000000  1.6038667  3
  12566  12569  12570  12572     1  0.0000000  0.6508444  3
  12566  12569  12577  12580     1  0.0000000  1.0460000  1
  12566  12569  12577  12580     1  0.0000000  0.6694400  3
  12566  12565  12579  12583     1  0.0000000  0.6508444  3
  12566  12565  12579  12584     1  0.0000000  0.6508444  3
  12567  12565  12566  12569     1  0.0000000  0.6508444  3
  12567  12565  12566  12578     1  0.0000000  1.0460000  1
  12567  12565  12566  12578     1  0.0000000  0.0000000  3
  12567  12565  12566  12568     1  0.0000000  0.6508444  3
  12567  12565  12579  12585     1  0.0000000  1.0460000  1
  12567  12565  12579  12585     1  0.0000000  0.0000000  3
  12567  12565  12579  12583     1  0.0000000  0.6508444  3
  12567  12565  12579  12584     1  0.0000000  0.6508444  3
  12567  12565  12587  12571     1  0.0000000  1.6038667  3
  12568  12566  12569  12570     1  0.0000000  0.6508444  3
  12568  12566  12569  12577     1  0.0000000  1.0460000  1
  12568  12566  12569  12577     1  0.0000000  0.0000000  3
  12568  12566  12569  12573     1  0.0000000  0.6508444  3
  12568  12566  12578  12581     1  0.0000000  0.6973333  3
  12568  12566  12565  12579     1  0.0000000  0.6508444  3
  12568  12566  12565  12587     1  0.0000000  1.0460000  1
  12568  12566  12565  12587     1  0.0000000  0.0000000  3
  12569  12570  12571  12574     1  0.0000000  0.6508444  3
  12569  12570  12576  12582     1  0.0000000  1.0460000  1
  12569  12570  12576  12582     1  0.0000000  0.6694400  3
  12569  12566  12578  12581     1  0.0000000  1.0460000  1
  12569  12566  12578  12581     1  0.0000000  0.6694400  3
  12570  12569  12577  12580     1  0.0000000  1.0460000  1
  12570  12569  12577  12580     1  0.0000000  0.6694400  3
  12571  12570  12576  12582     1  0.0000000  1.0460000  1
  12571  12570  12576  12582     1  0.0000000  0.6694400  3
  12571  12570  12569  12573     1  0.0000000  0.6508444  3
  12572  12570  12571  12575     1  0.0000000  1.0460000  1
  12572  12570  12571  12575     1  0.0000000  0.0000000  3
  12572  12570  12571  12587     1  0.0000000  1.0460000  1
  12572  12570  12571  12587     1  0.0000000  0.0000000  3
  12572  12570  12571  12574     1  0.0000000  0.6508444  3
  12572  12570  12576  12582     1  0.0000000  0.6973333  3
  12572  12570  12569  12577     1  0.0000000  1.0460000  1
  12572  12570  12569  12577     1  0.0000000  0.0000000  3
  12572  12570  12569  12573     1  0.0000000  0.6508444  3
  12573  12569  12570  12576     1  0.0000000  1.0460000  1
  12573  12569  12570  12576     1  0.0000000  0.0000000  3
  12573  12569  12577  12580     1  0.0000000  0.6973333  3
  12573  12569  12566  12578     1  0.0000000  1.0460000  1
  12573  12569  12566  12578     1  0.0000000  0.0000000  3
  12574  12571  12570  12576     1  0.0000000  0.6508444  3
  12583  12579  12585  12586     1  0.0000000  0.6973333  3
  12583  12579  12565  12587     1  0.0000000  1.0460000  1
  12583  12579  12565  12587     1  0.0000000  0.0000000  3
  12584  12579  12585  12586     1  0.0000000  0.6973333  3
  12584  12579  12565  12587     1  0.0000000  1.0460000  1
  12584  12579  12565  12587     1  0.0000000  0.0000000  3
  12588  12589  12592  12596     1  0.0000000  0.6508444  3
  12588  12589  12601  12604     1  0.0000000  1.0460000  1
  12588  12589  12601  12604     1  0.0000000  0.6694400  3
  12588  12602  12608  12609     1  0.0000000  1.0460000  1
  12588  12602  12608  12609     1  0.0000000  0.6694400  3
  12588  12610  12594  12597     1  0.0000000  1.6038667  3
  12589  12588  12602  12606     1  0.0000000  0.6508444  3
  12589  12588  12602  12607     1  0.0000000  0.6508444  3
  12589  12592  12593  12595     1  0.0000000  0.6508444  3
  12589  12592  12600  12603     1  0.0000000  1.0460000  1
  12589  12592  12600  12603     1  0.0000000  0.6694400  3
  12590  12588  12589  12592     1  0.0000000  0.6508444  3
  12590  12588  12589  12601     1  0.0000000  1.0460000  1
  12590  12588  12589  12601     1  0.0000000  0.0000000  3
  12590  12588  12589  12591     1  0.0000000  0.6508444  3
  12590  12588  12602  12608     1  0.0000000  1.0460000  1
  12590  12588  12602  12608     1  0.0000000  0.0000000  3
  12590  12588  12602  12606     1  0.0000000  0.6508444  3
  12590  12588  12602  12607     1  0.0000000  0.6508444  3
  12590  12588  12610  12594     1  0.0000000  1.6038667  3
  12591  12589  12588  12602     1  0.0000000  0.6508444  3
  12591  12589  12588  12610     1  0.0000000  1.0460000  1
  12591  12589  12588  12610     1  0.0000000  0.0000000  3
  12591  12589  12592  12593     1  0.0000000  0.6508444  3
  12591  12589  12592  12600     1  0.0000000  1.0460000  1
  12591  12589  12592  12600     1  0.0000000  0.0000000  3
  12591  12589  12592  12596     1  0.0000000  0.6508444  3
  12591  12589  12601  12604     1  0.0000000  0.6973333  3
  12592  12589  12601  12604     1  0.0000000  1.0460000  1
  12592  12589  12601  12604     1  0.0000000  0.6694400  3
  12592  12593  12594  12597     1  0.0000000  0.6508444  3
  12592  12593  12599  12605     1  0.0000000  1.0460000  1
  12592  12593  12599  12605     1  0.0000000  0.6694400  3
  12593  12592  12600  12603     1  0.0000000  1.0460000  1
  12593  12592  12600  12603     1  0.0000000  0.6694400  3
  12594  12593  12592  12596     1  0.0000000  0.6508444  3
  12594  12593  12599  12605     1  0.0000000  1.0460000  1
  12594  12593  12599  12605     1  0.0000000  0.6694400  3
  12595  12593  12592  12600     1  0.0000000  1.0460000  1
  12595  12593  12592  12600     1  0.0000000  0.0000000  3
  12595  12593  12592  12596     1  0.0000000  0.6508444  3
  12595  12593  12594  12598     1  0.0000000  1.0460000  1
  12595  12593  12594  12598     1  0.0000000  0.0000000  3
  12595  12593  12594  12610     1  0.0000000  1.0460000  1
  12595  12593  12594  12610     1  0.0000000  0.0000000  3
  12595  12593  12594  12597     1  0.0000000  0.6508444  3
  12595  12593  12599  12605     1  0.0000000  0.6973333  3
  12596  12592  12589  12601     1  0.0000000  1.0460000  1
  12596  12592  12589  12601     1  0.0000000  0.0000000  3
  12596  12592  12593  12599     1  0.0000000  1.0460000  1
  12596  12592  12593  12599     1  0.0000000  0.0000000  3
  12596  12592  12600  12603     1  0.0000000  0.6973333  3
  12597  12594  12593  12599     1  0.0000000  0.6508444  3
  12606  12602  12588  12610     1  0.0000000  1.0460000  1
  12606  12602  12588  12610     1  0.0000000  0.0000000  3
  12606  12602  12608  12609     1  0.0000000  0.6973333  3
  12607  12602  12588  12610     1  0.0000000  1.0460000  1
  12607  12602  12588  12610     1  0.0000000  0.0000000  3
  12607  12602  12608  12609     1  0.0000000  0.6973333  3
  12611  12612  12615  12619     1  0.0000000  0.6508444  3
  12611  12612  12624  12627     1  0.0000000  1.0460000  1
  12611  12612  12624  12627     1  0.0000000  0.6694400  3
  12611  12625  12631  12632     1  0.0000000  1.0460000  1
  12611  12625  12631  12632     1  0.0000000  0.6694400  3
  12611  12633  12617  12620     1  0.0000000  1.6038667  3
  12612  12615  12616  12618     1  0.0000000  0.6508444  3
  12612  12615  12623  12626     1  0.0000000  1.0460000  1
  12612  12615  12623  12626     1  0.0000000  0.6694400  3
  12612  12611  12625  12629     1  0.0000000  0.6508444  3
  12612  12611  12625  12630     1  0.0000000  0.6508444  3
  12613  12611  12612  12615     1  0.0000000  0.6508444  3
  12613  12611  12612  12624     1  0.0000000  1.0460000  1
  12613  12611  12612  12624     1  0.0000000  0.0000000  3
  12613  12611  12612  12614     1  0.0000000  0.6508444  3
  12613  12611  12625  12631     1  0.0000000  1.0460000  1
  12613  12611  12625  12631     1  0.0000000  0.0000000  3
  12613  12611  12625  12629     1  0.0000000  0.6508444  3
  12613  12611  12625  12630     1  0.0000000  0.6508444  3
  12613  12611  12633  12617     1  0.0000000  1.6038667  3
  12614  12612  12615  12616     1  0.0000000  0.6508444  3
  12614  12612  12615  12623     1  0.0000000  1.0460000  1
  12614  12612  12615  12623     1  0.0000000  0.0000000  3
  12614  12612  12615  12619     1  0.0000000  0.6508444  3
  12614  12612  12624  12627     1  0.0000000  0.6973333  3
  12614  12612  12611  12625     1  0.0000000  0.6508444  3
  12614  12612  12611  12633     1  0.0000000  1.0460000  1
  12614  12612  12611  12633     1  0.0000000  0.0000000  3
  12615  12616  12617  12620     1  0.0000000  0.6508444  3
  12615  12616  12622  12628     1  0.0000000  1.0460000  1
  12615  12616  12622  12628     1  0.0000000  0.6694400  3
  12615  12612  12624  12627     1  0.0000000  1.0460000  1
  12615  12612  12624  12627     1  0.0000000  0.6694400  3
  12616  12615  12623  12626     1  0.0000000  1.0460000  1
  12616  12615  12623  12626     1  0.0000000  0.6694400  3
  12617  12616  12622  12628     1  0.0000000  1.0460000  1
  12617  12616  12622  12628     1  0.0000000  0.6694400  3
  12617  12616  12615  12619     1  0.0000000  0.6508444  3
  12618  12616  12617  12621     1  0.0000000  1.0460000  1
  12618  12616  12617  12621     1  0.0000000  0.0000000  3
  12618  12616  12617  12633     1  0.0000000  1.0460000  1
  12618  12616  12617  12633     1  0.0000000  0.0000000  3
  12618  12616  12617  12620     1  0.0000000  0.6508444  3
  12618  12616  12622  12628     1  0.0000000  0.6973333  3
  12618  12616  12615  12623     1  0.0000000  1.0460000  1
  12618  12616  12615  12623     1  0.0000000  0.0000000  3
  12618  12616  12615  12619     1  0.0000000  0.6508444  3
  12619  12615  12616  12622     1  0.0000000  1.0460000  1
  12619  12615  12616  12622     1  0.0000000  0.0000000  3
  12619  12615  12623  12626     1  0.0000000  0.6973333  3
  12619  12615  12612  12624     1  0.0000000  1.0460000  1
  12619  12615  12612  12624     1  0.0000000  0.0000000  3
  12620  12617  12616  12622     1  0.0000000  0.6508444  3
  12629  12625  12631  12632     1  0.0000000  0.6973333  3
  12629  12625  12611  12633     1  0.0000000  1.0460000  1
  12629  12625  12611  12633     1  0.0000000  0.0000000  3
  12630  12625  12631  12632     1  0.0000000  0.6973333  3
  12630  12625  12611  12633     1  0.0000000  1.0460000  1
  12630  12625  12611  12633     1  0.0000000  0.0000000  3
  12634  12635  12638  12642     1  0.0000000  0.6508444  3
  12634  12635  12647  12650     1  0.0000000  1.0460000  1
  12634  12635  12647  12650     1  0.0000000  0.6694400  3
  12634  12648  12654  12655     1  0.0000000  1.0460000  1
  12634  12648  12654  12655     1  0.0000000  0.6694400  3
  12634  12656  12640  12643     1  0.0000000  1.6038667  3
  12635  12634  12648  12652     1  0.0000000  0.6508444  3
  12635  12634  12648  12653     1  0.0000000  0.6508444  3
  12635  12638  12639  12641     1  0.0000000  0.6508444  3
  12635  12638  12646  12649     1  0.0000000  1.0460000  1
  12635  12638  12646  12649     1  0.0000000  0.6694400  3
  12636  12634  12635  12638     1  0.0000000  0.6508444  3
  12636  12634  12635  12647     1  0.0000000  1.0460000  1
  12636  12634  12635  12647     1  0.0000000  0.0000000  3
  12636  12634  12635  12637     1  0.0000000  0.6508444  3
  12636  12634  12648  12654     1  0.0000000  1.0460000  1
  12636  12634  12648  12654     1  0.0000000  0.0000000  3
  12636  12634  12648  12652     1  0.0000000  0.6508444  3
  12636  12634  12648  12653     1  0.0000000  0.6508444  3
  12636  12634  12656  12640     1  0.0000000  1.6038667  3
  12637  12635  12634  12648     1  0.0000000  0.6508444  3
  12637  12635  12634  12656     1  0.0000000  1.0460000  1
  12637  12635  12634  12656     1  0.0000000  0.0000000  3
  12637  12635  12638  12639     1  0.0000000  0.6508444  3
  12637  12635  12638  12646     1  0.0000000  1.0460000  1
  12637  12635  12638  12646     1  0.0000000  0.0000000  3
  12637  12635  12638  12642     1  0.0000000  0.6508444  3
  12637  12635  12647  12650     1  0.0000000  0.6973333  3
  12638  12635  12647  12650     1  0.0000000  1.0460000  1
  12638  12635  12647  12650     1  0.0000000  0.6694400  3
  12638  12639  12640  12643     1  0.0000000  0.6508444  3
  12638  12639  12645  12651     1  0.0000000  1.0460000  1
  12638  12639  12645  12651     1  0.0000000  0.6694400  3
  12639  12638  12646  12649     1  0.0000000  1.0460000  1
  12639  12638  12646  12649     1  0.0000000  0.6694400  3
  12640  12639  12638  12642     1  0.0000000  0.6508444  3
  12640  12639  12645  12651     1  0.0000000  1.0460000  1
  12640  12639  12645  12651     1  0.0000000  0.6694400  3
  12641  12639  12638  12646     1  0.0000000  1.0460000  1
  12641  12639  12638  12646     1  0.0000000  0.0000000  3
  12641  12639  12638  12642     1  0.0000000  0.6508444  3
  12641  12639  12640  12644     1  0.0000000  1.0460000  1
  12641  12639  12640  12644     1  0.0000000  0.0000000  3
  12641  12639  12640  12656     1  0.0000000  1.0460000  1
  12641  12639  12640  12656     1  0.0000000  0.0000000  3
  12641  12639  12640  12643     1  0.0000000  0.6508444  3
  12641  12639  12645  12651     1  0.0000000  0.6973333  3
  12642  12638  12635  12647     1  0.0000000  1.0460000  1
  12642  12638  12635  12647     1  0.0000000  0.0000000  3
  12642  12638  12639  12645     1  0.0000000  1.0460000  1
  12642  12638  12639  12645     1  0.0000000  0.0000000  3
  12642  12638  12646  12649     1  0.0000000  0.6973333  3
  12643  12640  12639  12645     1  0.0000000  0.6508444  3
  12652  12648  12634  12656     1  0.0000000  1.0460000  1
  12652  12648  12634  12656     1  0.0000000  0.0000000  3
  12652  12648  12654  12655     1  0.0000000  0.6973333  3
  12653  12648  12634  12656     1  0.0000000  1.0460000  1
  12653  12648  12634  12656     1  0.0000000  0.0000000  3
  12653  12648  12654  12655     1  0.0000000  0.6973333  3
  12657  12658  12661  12665     1  0.0000000  0.6508444  3
  12657  12658  12670  12673     1  0.0000000  1.0460000  1
  12657  12658  12670  12673     1  0.0000000  0.6694400  3
  12657  12671  12677  12678     1  0.0000000  1.0460000  1
  12657  12671  12677  12678     1  0.0000000  0.6694400  3
  12657  12679  12663  12666     1  0.0000000  1.6038667  3
  12658  12661  12662  12664     1  0.0000000  0.6508444  3
  12658  12661  12669  12672     1  0.0000000  1.0460000  1
  12658  12661  12669  12672     1  0.0000000  0.6694400  3
  12658  12657  12671  12675     1  0.0000000  0.6508444  3
  12658  12657  12671  12676     1  0.0000000  0.6508444  3
  12659  12657  12658  12661     1  0.0000000  0.6508444  3
  12659  12657  12658  12670     1  0.0000000  1.0460000  1
  12659  12657  12658  12670     1  0.0000000  0.0000000  3
  12659  12657  12658  12660     1  0.0000000  0.6508444  3
  12659  12657  12671  12677     1  0.0000000  1.0460000  1
  12659  12657  12671  12677     1  0.0000000  0.0000000  3
  12659  12657  12671  12675     1  0.0000000  0.6508444  3
  12659  12657  12671  12676     1  0.0000000  0.6508444  3
  12659  12657  12679  12663     1  0.0000000  1.6038667  3
  12660  12658  12661  12662     1  0.0000000  0.6508444  3
  12660  12658  12661  12669     1  0.0000000  1.0460000  1
  12660  12658  12661  12669     1  0.0000000  0.0000000  3
  12660  12658  12661  12665     1  0.0000000  0.6508444  3
  12660  12658  12670  12673     1  0.0000000  0.6973333  3
  12660  12658  12657  12671     1  0.0000000  0.6508444  3
  12660  12658  12657  12679     1  0.0000000  1.0460000  1
  12660  12658  12657  12679     1  0.0000000  0.0000000  3
  12661  12662  12663  12666     1  0.0000000  0.6508444  3
  12661  12662  12668  12674     1  0.0000000  1.0460000  1
  12661  12662  12668  12674     1  0.0000000  0.6694400  3
  12661  12658  12670  12673     1  0.0000000  1.0460000  1
  12661  12658  12670  12673     1  0.0000000  0.6694400  3
  12662  12661  12669  12672     1  0.0000000  1.0460000  1
  12662  12661  12669  12672     1  0.0000000  0.6694400  3
  12663  12662  12668  12674     1  0.0000000  1.0460000  1
  12663  12662  12668  12674     1  0.0000000  0.6694400  3
  12663  12662  12661  12665     1  0.0000000  0.6508444  3
  12664  12662  12663  12667     1  0.0000000  1.0460000  1
  12664  12662  12663  12667     1  0.0000000  0.0000000  3
  12664  12662  12663  12679     1  0.0000000  1.0460000  1
  12664  12662  12663  12679     1  0.0000000  0.0000000  3
  12664  12662  12663  12666     1  0.0000000  0.6508444  3
  12664  12662  12668  12674     1  0.0000000  0.6973333  3
  12664  12662  12661  12669     1  0.0000000  1.0460000  1
  12664  12662  12661  12669     1  0.0000000  0.0000000  3
  12664  12662  12661  12665     1  0.0000000  0.6508444  3
  12665  12661  12662  12668     1  0.0000000  1.0460000  1
  12665  12661  12662  12668     1  0.0000000  0.0000000  3
  12665  12661  12669  12672     1  0.0000000  0.6973333  3
  12665  12661  12658  12670     1  0.0000000  1.0460000  1
  12665  12661  12658  12670     1  0.0000000  0.0000000  3
  12666  12663  12662  12668     1  0.0000000  0.6508444  3
  12675  12671  12677  12678     1  0.0000000  0.6973333  3
  12675  12671  12657  12679     1  0.0000000  1.0460000  1
  12675  12671  12657  12679     1  0.0000000  0.0000000  3
  12676  12671  12677  12678     1  0.0000000  0.6973333  3
  12676  12671  12657  12679     1  0.0000000  1.0460000  1
  12676  12671  12657  12679     1  0.0000000  0.0000000  3
  12680  12681  12684  12688     1  0.0000000  0.6508444  3
  12680  12681  12693  12696     1  0.0000000  1.0460000  1
  12680  12681  12693  12696     1  0.0000000  0.6694400  3
  12680  12694  12700  12701     1  0.0000000  1.0460000  1
  12680  12694  12700  12701     1  0.0000000  0.6694400  3
  12680  12702  12686  12689     1  0.0000000  1.6038667  3
  12681  12680  12694  12698     1  0.0000000  0.6508444  3
  12681  12680  12694  12699     1  0.0000000  0.6508444  3
  12681  12684  12685  12687     1  0.0000000  0.6508444  3
  12681  12684  12692  12695     1  0.0000000  1.0460000  1
  12681  12684  12692  12695     1  0.0000000  0.6694400  3
  12682  12680  12681  12684     1  0.0000000  0.6508444  3
  12682  12680  12681  12693     1  0.0000000  1.0460000  1
  12682  12680  12681  12693     1  0.0000000  0.0000000  3
  12682  12680  12681  12683     1  0.0000000  0.6508444  3
  12682  12680  12694  12700     1  0.0000000  1.0460000  1
  12682  12680  12694  12700     1  0.0000000  0.0000000  3
  12682  12680  12694  12698     1  0.0000000  0.6508444  3
  12682  12680  12694  12699     1  0.0000000  0.6508444  3
  12682  12680  12702  12686     1  0.0000000  1.6038667  3
  12683  12681  12680  12694     1  0.0000000  0.6508444  3
  12683  12681  12680  12702     1  0.0000000  1.0460000  1
  12683  12681  12680  12702     1  0.0000000  0.0000000  3
  12683  12681  12684  12685     1  0.0000000  0.6508444  3
  12683  12681  12684  12692     1  0.0000000  1.0460000  1
  12683  12681  12684  12692     1  0.0000000  0.0000000  3
  12683  12681  12684  12688     1  0.0000000  0.6508444  3
  12683  12681  12693  12696     1  0.0000000  0.6973333  3
  12684  12681  12693  12696     1  0.0000000  1.0460000  1
  12684  12681  12693  12696     1  0.0000000  0.6694400  3
  12684  12685  12686  12689     1  0.0000000  0.6508444  3
  12684  12685  12691  12697     1  0.0000000  1.0460000  1
  12684  12685  12691  12697     1  0.0000000  0.6694400  3
  12685  12684  12692  12695     1  0.0000000  1.0460000  1
  12685  12684  12692  12695     1  0.0000000  0.6694400  3
  12686  12685  12684  12688     1  0.0000000  0.6508444  3
  12686  12685  12691  12697     1  0.0000000  1.0460000  1
  12686  12685  12691  12697     1  0.0000000  0.6694400  3
  12687  12685  12684  12692     1  0.0000000  1.0460000  1
  12687  12685  12684  12692     1  0.0000000  0.0000000  3
  12687  12685  12684  12688     1  0.0000000  0.6508444  3
  12687  12685  12686  12690     1  0.0000000  1.0460000  1
  12687  12685  12686  12690     1  0.0000000  0.0000000  3
  12687  12685  12686  12702     1  0.0000000  1.0460000  1
  12687  12685  12686  12702     1  0.0000000  0.0000000  3
  12687  12685  12686  12689     1  0.0000000  0.6508444  3
  12687  12685  12691  12697     1  0.0000000  0.6973333  3
  12688  12684  12681  12693     1  0.0000000  1.0460000  1
  12688  12684  12681  12693     1  0.0000000  0.0000000  3
  12688  12684  12685  12691     1  0.0000000  1.0460000  1
  12688  12684  12685  12691     1  0.0000000  0.0000000  3
  12688  12684  12692  12695     1  0.0000000  0.6973333  3
  12689  12686  12685  12691     1  0.0000000  0.6508444  3
  12698  12694  12680  12702     1  0.0000000  1.0460000  1
  12698  12694  12680  12702     1  0.0000000  0.0000000  3
  12698  12694  12700  12701     1  0.0000000  0.6973333  3
  12699  12694  12680  12702     1  0.0000000  1.0460000  1
  12699  12694  12680  12702     1  0.0000000  0.0000000  3
  12699  12694  12700  12701     1  0.0000000  0.6973333  3
  12703  12704  12707  12711     1  0.0000000  0.6508444  3
  12703  12704  12716  12719     1  0.0000000  1.0460000  1
  12703  12704  12716  12719     1  0.0000000  0.6694400  3
  12703  12717  12723  12724     1  0.0000000  1.0460000  1
  12703  12717  12723  12724     1  0.0000000  0.6694400  3
  12703  12725  12709  12712     1  0.0000000  1.6038667  3
  12704  12707  12708  12710     1  0.0000000  0.6508444  3
  12704  12707  12715  12718     1  0.0000000  1.0460000  1
  12704  12707  12715  12718     1  0.0000000  0.6694400  3
  12704  12703  12717  12721     1  0.0000000  0.6508444  3
  12704  12703  12717  12722     1  0.0000000  0.6508444  3
  12705  12703  12704  12707     1  0.0000000  0.6508444  3
  12705  12703  12704  12716     1  0.0000000  1.0460000  1
  12705  12703  12704  12716     1  0.0000000  0.0000000  3
  12705  12703  12704  12706     1  0.0000000  0.6508444  3
  12705  12703  12717  12723     1  0.0000000  1.0460000  1
  12705  12703  12717  12723     1  0.0000000  0.0000000  3
  12705  12703  12717  12721     1  0.0000000  0.6508444  3
  12705  12703  12717  12722     1  0.0000000  0.6508444  3
  12705  12703  12725  12709     1  0.0000000  1.6038667  3
  12706  12704  12707  12708     1  0.0000000  0.6508444  3
  12706  12704  12707  12715     1  0.0000000  1.0460000  1
  12706  12704  12707  12715     1  0.0000000  0.0000000  3
  12706  12704  12707  12711     1  0.0000000  0.6508444  3
  12706  12704  12716  12719     1  0.0000000  0.6973333  3
  12706  12704  12703  12717     1  0.0000000  0.6508444  3
  12706  12704  12703  12725     1  0.0000000  1.0460000  1
  12706  12704  12703  12725     1  0.0000000  0.0000000  3
  12707  12708  12709  12712     1  0.0000000  0.6508444  3
  12707  12708  12714  12720     1  0.0000000  1.0460000  1
  12707  12708  12714  12720     1  0.0000000  0.6694400  3
  12707  12704  12716  12719     1  0.0000000  1.0460000  1
  12707  12704  12716  12719     1  0.0000000  0.6694400  3
  12708  12707  12715  12718     1  0.0000000  1.0460000  1
  12708  12707  12715  12718     1  0.0000000  0.6694400  3
  12709  12708  12714  12720     1  0.0000000  1.0460000  1
  12709  12708  12714  12720     1  0.0000000  0.6694400  3
  12709  12708  12707  12711     1  0.0000000  0.6508444  3
  12710  12708  12709  12713     1  0.0000000  1.0460000  1
  12710  12708  12709  12713     1  0.0000000  0.0000000  3
  12710  12708  12709  12725     1  0.0000000  1.0460000  1
  12710  12708  12709  12725     1  0.0000000  0.0000000  3
  12710  12708  12709  12712     1  0.0000000  0.6508444  3
  12710  12708  12714  12720     1  0.0000000  0.6973333  3
  12710  12708  12707  12715     1  0.0000000  1.0460000  1
  12710  12708  12707  12715     1  0.0000000  0.0000000  3
  12710  12708  12707  12711     1  0.0000000  0.6508444  3
  12711  12707  12708  12714     1  0.0000000  1.0460000  1
  12711  12707  12708  12714     1  0.0000000  0.0000000  3
  12711  12707  12715  12718     1  0.0000000  0.6973333  3
  12711  12707  12704  12716     1  0.0000000  1.0460000  1
  12711  12707  12704  12716     1  0.0000000  0.0000000  3
  12712  12709  12708  12714     1  0.0000000  0.6508444  3
  12721  12717  12723  12724     1  0.0000000  0.6973333  3
  12721  12717  12703  12725     1  0.0000000  1.0460000  1
  12721  12717  12703  12725     1  0.0000000  0.0000000  3
  12722  12717  12723  12724     1  0.0000000  0.6973333  3
  12722  12717  12703  12725     1  0.0000000  1.0460000  1
  12722  12717  12703  12725     1  0.0000000  0.0000000  3
  12726  12727  12730  12734     1  0.0000000  0.6508444  3
  12726  12727  12739  12742     1  0.0000000  1.0460000  1
  12726  12727  12739  12742     1  0.0000000  0.6694400  3
  12726  12740  12746  12747     1  0.0000000  1.0460000  1
  12726  12740  12746  12747     1  0.0000000  0.6694400  3
  12726  12748  12732  12735     1  0.0000000  1.6038667  3
  12727  12726  12740  12744     1  0.0000000  0.6508444  3
  12727  12726  12740  12745     1  0.0000000  0.6508444  3
  12727  12730  12731  12733     1  0.0000000  0.6508444  3
  12727  12730  12738  12741     1  0.0000000  1.0460000  1
  12727  12730  12738  12741     1  0.0000000  0.6694400  3
  12728  12726  12727  12730     1  0.0000000  0.6508444  3
  12728  12726  12727  12739     1  0.0000000  1.0460000  1
  12728  12726  12727  12739     1  0.0000000  0.0000000  3
  12728  12726  12727  12729     1  0.0000000  0.6508444  3
  12728  12726  12740  12746     1  0.0000000  1.0460000  1
  12728  12726  12740  12746     1  0.0000000  0.0000000  3
  12728  12726  12740  12744     1  0.0000000  0.6508444  3
  12728  12726  12740  12745     1  0.0000000  0.6508444  3
  12728  12726  12748  12732     1  0.0000000  1.6038667  3
  12729  12727  12726  12740     1  0.0000000  0.6508444  3
  12729  12727  12726  12748     1  0.0000000  1.0460000  1
  12729  12727  12726  12748     1  0.0000000  0.0000000  3
  12729  12727  12730  12731     1  0.0000000  0.6508444  3
  12729  12727  12730  12738     1  0.0000000  1.0460000  1
  12729  12727  12730  12738     1  0.0000000  0.0000000  3
  12729  12727  12730  12734     1  0.0000000  0.6508444  3
  12729  12727  12739  12742     1  0.0000000  0.6973333  3
  12730  12727  12739  12742     1  0.0000000  1.0460000  1
  12730  12727  12739  12742     1  0.0000000  0.6694400  3
  12730  12731  12732  12735     1  0.0000000  0.6508444  3
  12730  12731  12737  12743     1  0.0000000  1.0460000  1
  12730  12731  12737  12743     1  0.0000000  0.6694400  3
  12731  12730  12738  12741     1  0.0000000  1.0460000  1
  12731  12730  12738  12741     1  0.0000000  0.6694400  3
  12732  12731  12730  12734     1  0.0000000  0.6508444  3
  12732  12731  12737  12743     1  0.0000000  1.0460000  1
  12732  12731  12737  12743     1  0.0000000  0.6694400  3
  12733  12731  12730  12738     1  0.0000000  1.0460000  1
  12733  12731  12730  12738     1  0.0000000  0.0000000  3
  12733  12731  12730  12734     1  0.0000000  0.6508444  3
  12733  12731  12732  12736     1  0.0000000  1.0460000  1
  12733  12731  12732  12736     1  0.0000000  0.0000000  3
  12733  12731  12732  12748     1  0.0000000  1.0460000  1
  12733  12731  12732  12748     1  0.0000000  0.0000000  3
  12733  12731  12732  12735     1  0.0000000  0.6508444  3
  12733  12731  12737  12743     1  0.0000000  0.6973333  3
  12734  12730  12727  12739     1  0.0000000  1.0460000  1
  12734  12730  12727  12739     1  0.0000000  0.0000000  3
  12734  12730  12731  12737     1  0.0000000  1.0460000  1
  12734  12730  12731  12737     1  0.0000000  0.0000000  3
  12734  12730  12738  12741     1  0.0000000  0.6973333  3
  12735  12732  12731  12737     1  0.0000000  0.6508444  3
  12744  12740  12726  12748     1  0.0000000  1.0460000  1
  12744  12740  12726  12748     1  0.0000000  0.0000000  3
  12744  12740  12746  12747     1  0.0000000  0.6973333  3
  12745  12740  12726  12748     1  0.0000000  1.0460000  1
  12745  12740  12726  12748     1  0.0000000  0.0000000  3
  12745  12740  12746  12747     1  0.0000000  0.6973333  3
  12749  12750  12753  12757     1  0.0000000  0.6508444  3
  12749  12750  12762  12765     1  0.0000000  1.0460000  1
  12749  12750  12762  12765     1  0.0000000  0.6694400  3
  12749  12763  12769  12770     1  0.0000000  1.0460000  1
  12749  12763  12769  12770     1  0.0000000  0.6694400  3
  12749  12771  12755  12758     1  0.0000000  1.6038667  3
  12750  12753  12754  12756     1  0.0000000  0.6508444  3
  12750  12753  12761  12764     1  0.0000000  1.0460000  1
  12750  12753  12761  12764     1  0.0000000  0.6694400  3
  12750  12749  12763  12767     1  0.0000000  0.6508444  3
  12750  12749  12763  12768     1  0.0000000  0.6508444  3
  12751  12749  12750  12753     1  0.0000000  0.6508444  3
  12751  12749  12750  12762     1  0.0000000  1.0460000  1
  12751  12749  12750  12762     1  0.0000000  0.0000000  3
  12751  12749  12750  12752     1  0.0000000  0.6508444  3
  12751  12749  12763  12769     1  0.0000000  1.0460000  1
  12751  12749  12763  12769     1  0.0000000  0.0000000  3
  12751  12749  12763  12767     1  0.0000000  0.6508444  3
  12751  12749  12763  12768     1  0.0000000  0.6508444  3
  12751  12749  12771  12755     1  0.0000000  1.6038667  3
  12752  12750  12753  12754     1  0.0000000  0.6508444  3
  12752  12750  12753  12761     1  0.0000000  1.0460000  1
  12752  12750  12753  12761     1  0.0000000  0.0000000  3
  12752  12750  12753  12757     1  0.0000000  0.6508444  3
  12752  12750  12762  12765     1  0.0000000  0.6973333  3
  12752  12750  12749  12763     1  0.0000000  0.6508444  3
  12752  12750  12749  12771     1  0.0000000  1.0460000  1
  12752  12750  12749  12771     1  0.0000000  0.0000000  3
  12753  12754  12755  12758     1  0.0000000  0.6508444  3
  12753  12754  12760  12766     1  0.0000000  1.0460000  1
  12753  12754  12760  12766     1  0.0000000  0.6694400  3
  12753  12750  12762  12765     1  0.0000000  1.0460000  1
  12753  12750  12762  12765     1  0.0000000  0.6694400  3
  12754  12753  12761  12764     1  0.0000000  1.0460000  1
  12754  12753  12761  12764     1  0.0000000  0.6694400  3
  12755  12754  12760  12766     1  0.0000000  1.0460000  1
  12755  12754  12760  12766     1  0.0000000  0.6694400  3
  12755  12754  12753  12757     1  0.0000000  0.6508444  3
  12756  12754  12755  12759     1  0.0000000  1.0460000  1
  12756  12754  12755  12759     1  0.0000000  0.0000000  3
  12756  12754  12755  12771     1  0.0000000  1.0460000  1
  12756  12754  12755  12771     1  0.0000000  0.0000000  3
  12756  12754  12755  12758     1  0.0000000  0.6508444  3
  12756  12754  12760  12766     1  0.0000000  0.6973333  3
  12756  12754  12753  12761     1  0.0000000  1.0460000  1
  12756  12754  12753  12761     1  0.0000000  0.0000000  3
  12756  12754  12753  12757     1  0.0000000  0.6508444  3
  12757  12753  12754  12760     1  0.0000000  1.0460000  1
  12757  12753  12754  12760     1  0.0000000  0.0000000  3
  12757  12753  12761  12764     1  0.0000000  0.6973333  3
  12757  12753  12750  12762     1  0.0000000  1.0460000  1
  12757  12753  12750  12762     1  0.0000000  0.0000000  3
  12758  12755  12754  12760     1  0.0000000  0.6508444  3
  12767  12763  12769  12770     1  0.0000000  0.6973333  3
  12767  12763  12749  12771     1  0.0000000  1.0460000  1
  12767  12763  12749  12771     1  0.0000000  0.0000000  3
  12768  12763  12769  12770     1  0.0000000  0.6973333  3
  12768  12763  12749  12771     1  0.0000000  1.0460000  1
  12768  12763  12749  12771     1  0.0000000  0.0000000  3
  12772  12773  12776  12780     1  0.0000000  0.6508444  3
  12772  12773  12785  12788     1  0.0000000  1.0460000  1
  12772  12773  12785  12788     1  0.0000000  0.6694400  3
  12772  12786  12792  12793     1  0.0000000  1.0460000  1
  12772  12786  12792  12793     1  0.0000000  0.6694400  3
  12772  12794  12778  12781     1  0.0000000  1.6038667  3
  12773  12772  12786  12790     1  0.0000000  0.6508444  3
  12773  12772  12786  12791     1  0.0000000  0.6508444  3
  12773  12776  12777  12779     1  0.0000000  0.6508444  3
  12773  12776  12784  12787     1  0.0000000  1.0460000  1
  12773  12776  12784  12787     1  0.0000000  0.6694400  3
  12774  12772  12773  12776     1  0.0000000  0.6508444  3
  12774  12772  12773  12785     1  0.0000000  1.0460000  1
  12774  12772  12773  12785     1  0.0000000  0.0000000  3
  12774  12772  12773  12775     1  0.0000000  0.6508444  3
  12774  12772  12786  12792     1  0.0000000  1.0460000  1
  12774  12772  12786  12792     1  0.0000000  0.0000000  3
  12774  12772  12786  12790     1  0.0000000  0.6508444  3
  12774  12772  12786  12791     1  0.0000000  0.6508444  3
  12774  12772  12794  12778     1  0.0000000  1.6038667  3
  12775  12773  12772  12786     1  0.0000000  0.6508444  3
  12775  12773  12772  12794     1  0.0000000  1.0460000  1
  12775  12773  12772  12794     1  0.0000000  0.0000000  3
  12775  12773  12776  12777     1  0.0000000  0.6508444  3
  12775  12773  12776  12784     1  0.0000000  1.0460000  1
  12775  12773  12776  12784     1  0.0000000  0.0000000  3
  12775  12773  12776  12780     1  0.0000000  0.6508444  3
  12775  12773  12785  12788     1  0.0000000  0.6973333  3
  12776  12773  12785  12788     1  0.0000000  1.0460000  1
  12776  12773  12785  12788     1  0.0000000  0.6694400  3
  12776  12777  12778  12781     1  0.0000000  0.6508444  3
  12776  12777  12783  12789     1  0.0000000  1.0460000  1
  12776  12777  12783  12789     1  0.0000000  0.6694400  3
  12777  12776  12784  12787     1  0.0000000  1.0460000  1
  12777  12776  12784  12787     1  0.0000000  0.6694400  3
  12778  12777  12776  12780     1  0.0000000  0.6508444  3
  12778  12777  12783  12789     1  0.0000000  1.0460000  1
  12778  12777  12783  12789     1  0.0000000  0.6694400  3
  12779  12777  12776  12784     1  0.0000000  1.0460000  1
  12779  12777  12776  12784     1  0.0000000  0.0000000  3
  12779  12777  12776  12780     1  0.0000000  0.6508444  3
  12779  12777  12778  12782     1  0.0000000  1.0460000  1
  12779  12777  12778  12782     1  0.0000000  0.0000000  3
  12779  12777  12778  12794     1  0.0000000  1.0460000  1
  12779  12777  12778  12794     1  0.0000000  0.0000000  3
  12779  12777  12778  12781     1  0.0000000  0.6508444  3
  12779  12777  12783  12789     1  0.0000000  0.6973333  3
  12780  12776  12773  12785     1  0.0000000  1.0460000  1
  12780  12776  12773  12785     1  0.0000000  0.0000000  3
  12780  12776  12777  12783     1  0.0000000  1.0460000  1
  12780  12776  12777  12783     1  0.0000000  0.0000000  3
  12780  12776  12784  12787     1  0.0000000  0.6973333  3
  12781  12778  12777  12783     1  0.0000000  0.6508444  3
  12790  12786  12772  12794     1  0.0000000  1.0460000  1
  12790  12786  12772  12794     1  0.0000000  0.0000000  3
  12790  12786  12792  12793     1  0.0000000  0.6973333  3
  12791  12786  12772  12794     1  0.0000000  1.0460000  1
  12791  12786  12772  12794     1  0.0000000  0.0000000  3
  12791  12786  12792  12793     1  0.0000000  0.6973333  3
  12795  12796  12799  12803     1  0.0000000  0.6508444  3
  12795  12796  12808  12811     1  0.0000000  1.0460000  1
  12795  12796  12808  12811     1  0.0000000  0.6694400  3
  12795  12809  12815  12816     1  0.0000000  1.0460000  1
  12795  12809  12815  12816     1  0.0000000  0.6694400  3
  12795  12817  12801  12804     1  0.0000000  1.6038667  3
  12796  12799  12800  12802     1  0.0000000  0.6508444  3
  12796  12799  12807  12810     1  0.0000000  1.0460000  1
  12796  12799  12807  12810     1  0.0000000  0.6694400  3
  12796  12795  12809  12813     1  0.0000000  0.6508444  3
  12796  12795  12809  12814     1  0.0000000  0.6508444  3
  12797  12795  12796  12799     1  0.0000000  0.6508444  3
  12797  12795  12796  12808     1  0.0000000  1.0460000  1
  12797  12795  12796  12808     1  0.0000000  0.0000000  3
  12797  12795  12796  12798     1  0.0000000  0.6508444  3
  12797  12795  12809  12815     1  0.0000000  1.0460000  1
  12797  12795  12809  12815     1  0.0000000  0.0000000  3
  12797  12795  12809  12813     1  0.0000000  0.6508444  3
  12797  12795  12809  12814     1  0.0000000  0.6508444  3
  12797  12795  12817  12801     1  0.0000000  1.6038667  3
  12798  12796  12799  12800     1  0.0000000  0.6508444  3
  12798  12796  12799  12807     1  0.0000000  1.0460000  1
  12798  12796  12799  12807     1  0.0000000  0.0000000  3
  12798  12796  12799  12803     1  0.0000000  0.6508444  3
  12798  12796  12808  12811     1  0.0000000  0.6973333  3
  12798  12796  12795  12809     1  0.0000000  0.6508444  3
  12798  12796  12795  12817     1  0.0000000  1.0460000  1
  12798  12796  12795  12817     1  0.0000000  0.0000000  3
  12799  12800  12801  12804     1  0.0000000  0.6508444  3
  12799  12800  12806  12812     1  0.0000000  1.0460000  1
  12799  12800  12806  12812     1  0.0000000  0.6694400  3
  12799  12796  12808  12811     1  0.0000000  1.0460000  1
  12799  12796  12808  12811     1  0.0000000  0.6694400  3
  12800  12799  12807  12810     1  0.0000000  1.0460000  1
  12800  12799  12807  12810     1  0.0000000  0.6694400  3
  12801  12800  12806  12812     1  0.0000000  1.0460000  1
  12801  12800  12806  12812     1  0.0000000  0.6694400  3
  12801  12800  12799  12803     1  0.0000000  0.6508444  3
  12802  12800  12801  12805     1  0.0000000  1.0460000  1
  12802  12800  12801  12805     1  0.0000000  0.0000000  3
  12802  12800  12801  12817     1  0.0000000  1.0460000  1
  12802  12800  12801  12817     1  0.0000000  0.0000000  3
  12802  12800  12801  12804     1  0.0000000  0.6508444  3
  12802  12800  12806  12812     1  0.0000000  0.6973333  3
  12802  12800  12799  12807     1  0.0000000  1.0460000  1
  12802  12800  12799  12807     1  0.0000000  0.0000000  3
  12802  12800  12799  12803     1  0.0000000  0.6508444  3
  12803  12799  12800  12806     1  0.0000000  1.0460000  1
  12803  12799  12800  12806     1  0.0000000  0.0000000  3
  12803  12799  12807  12810     1  0.0000000  0.6973333  3
  12803  12799  12796  12808     1  0.0000000  1.0460000  1
  12803  12799  12796  12808     1  0.0000000  0.0000000  3
  12804  12801  12800  12806     1  0.0000000  0.6508444  3
  12813  12809  12815  12816     1  0.0000000  0.6973333  3
  12813  12809  12795  12817     1  0.0000000  1.0460000  1
  12813  12809  12795  12817     1  0.0000000  0.0000000  3
  12814  12809  12815  12816     1  0.0000000  0.6973333  3
  12814  12809  12795  12817     1  0.0000000  1.0460000  1
  12814  12809  12795  12817     1  0.0000000  0.0000000  3
  12818  12819  12822  12826     1  0.0000000  0.6508444  3
  12818  12819  12831  12834     1  0.0000000  1.0460000  1
  12818  12819  12831  12834     1  0.0000000  0.6694400  3
  12818  12832  12838  12839     1  0.0000000  1.0460000  1
  12818  12832  12838  12839     1  0.0000000  0.6694400  3
  12818  12840  12824  12827     1  0.0000000  1.6038667  3
  12819  12818  12832  12836     1  0.0000000  0.6508444  3
  12819  12818  12832  12837     1  0.0000000  0.6508444  3
  12819  12822  12823  12825     1  0.0000000  0.6508444  3
  12819  12822  12830  12833     1  0.0000000  1.0460000  1
  12819  12822  12830  12833     1  0.0000000  0.6694400  3
  12820  12818  12819  12822     1  0.0000000  0.6508444  3
  12820  12818  12819  12831     1  0.0000000  1.0460000  1
  12820  12818  12819  12831     1  0.0000000  0.0000000  3
  12820  12818  12819  12821     1  0.0000000  0.6508444  3
  12820  12818  12832  12838     1  0.0000000  1.0460000  1
  12820  12818  12832  12838     1  0.0000000  0.0000000  3
  12820  12818  12832  12836     1  0.0000000  0.6508444  3
  12820  12818  12832  12837     1  0.0000000  0.6508444  3
  12820  12818  12840  12824     1  0.0000000  1.6038667  3
  12821  12819  12818  12832     1  0.0000000  0.6508444  3
  12821  12819  12818  12840     1  0.0000000  1.0460000  1
  12821  12819  12818  12840     1  0.0000000  0.0000000  3
  12821  12819  12822  12823     1  0.0000000  0.6508444  3
  12821  12819  12822  12830     1  0.0000000  1.0460000  1
  12821  12819  12822  12830     1  0.0000000  0.0000000  3
  12821  12819  12822  12826     1  0.0000000  0.6508444  3
  12821  12819  12831  12834     1  0.0000000  0.6973333  3
  12822  12819  12831  12834     1  0.0000000  1.0460000  1
  12822  12819  12831  12834     1  0.0000000  0.6694400  3
  12822  12823  12824  12827     1  0.0000000  0.6508444  3
  12822  12823  12829  12835     1  0.0000000  1.0460000  1
  12822  12823  12829  12835     1  0.0000000  0.6694400  3
  12823  12822  12830  12833     1  0.0000000  1.0460000  1
  12823  12822  12830  12833     1  0.0000000  0.6694400  3
  12824  12823  12822  12826     1  0.0000000  0.6508444  3
  12824  12823  12829  12835     1  0.0000000  1.0460000  1
  12824  12823  12829  12835     1  0.0000000  0.6694400  3
  12825  12823  12822  12830     1  0.0000000  1.0460000  1
  12825  12823  12822  12830     1  0.0000000  0.0000000  3
  12825  12823  12822  12826     1  0.0000000  0.6508444  3
  12825  12823  12824  12828     1  0.0000000  1.0460000  1
  12825  12823  12824  12828     1  0.0000000  0.0000000  3
  12825  12823  12824  12840     1  0.0000000  1.0460000  1
  12825  12823  12824  12840     1  0.0000000  0.0000000  3
  12825  12823  12824  12827     1  0.0000000  0.6508444  3
  12825  12823  12829  12835     1  0.0000000  0.6973333  3
  12826  12822  12819  12831     1  0.0000000  1.0460000  1
  12826  12822  12819  12831     1  0.0000000  0.0000000  3
  12826  12822  12823  12829     1  0.0000000  1.0460000  1
  12826  12822  12823  12829     1  0.0000000  0.0000000  3
  12826  12822  12830  12833     1  0.0000000  0.6973333  3
  12827  12824  12823  12829     1  0.0000000  0.6508444  3
  12836  12832  12818  12840     1  0.0000000  1.0460000  1
  12836  12832  12818  12840     1  0.0000000  0.0000000  3
  12836  12832  12838  12839     1  0.0000000  0.6973333  3
  12837  12832  12818  12840     1  0.0000000  1.0460000  1
  12837  12832  12818  12840     1  0.0000000  0.0000000  3
  12837  12832  12838  12839     1  0.0000000  0.6973333  3
  12841  12842  12845  12849     1  0.0000000  0.6508444  3
  12841  12842  12854  12857     1  0.0000000  1.0460000  1
  12841  12842  12854  12857     1  0.0000000  0.6694400  3
  12841  12855  12861  12862     1  0.0000000  1.0460000  1
  12841  12855  12861  12862     1  0.0000000  0.6694400  3
  12841  12863  12847  12850     1  0.0000000  1.6038667  3
  12842  12845  12846  12848     1  0.0000000  0.6508444  3
  12842  12845  12853  12856     1  0.0000000  1.0460000  1
  12842  12845  12853  12856     1  0.0000000  0.6694400  3
  12842  12841  12855  12859     1  0.0000000  0.6508444  3
  12842  12841  12855  12860     1  0.0000000  0.6508444  3
  12843  12841  12842  12845     1  0.0000000  0.6508444  3
  12843  12841  12842  12854     1  0.0000000  1.0460000  1
  12843  12841  12842  12854     1  0.0000000  0.0000000  3
  12843  12841  12842  12844     1  0.0000000  0.6508444  3
  12843  12841  12855  12861     1  0.0000000  1.0460000  1
  12843  12841  12855  12861     1  0.0000000  0.0000000  3
  12843  12841  12855  12859     1  0.0000000  0.6508444  3
  12843  12841  12855  12860     1  0.0000000  0.6508444  3
  12843  12841  12863  12847     1  0.0000000  1.6038667  3
  12844  12842  12845  12846     1  0.0000000  0.6508444  3
  12844  12842  12845  12853     1  0.0000000  1.0460000  1
  12844  12842  12845  12853     1  0.0000000  0.0000000  3
  12844  12842  12845  12849     1  0.0000000  0.6508444  3
  12844  12842  12854  12857     1  0.0000000  0.6973333  3
  12844  12842  12841  12855     1  0.0000000  0.6508444  3
  12844  12842  12841  12863     1  0.0000000  1.0460000  1
  12844  12842  12841  12863     1  0.0000000  0.0000000  3
  12845  12846  12847  12850     1  0.0000000  0.6508444  3
  12845  12846  12852  12858     1  0.0000000  1.0460000  1
  12845  12846  12852  12858     1  0.0000000  0.6694400  3
  12845  12842  12854  12857     1  0.0000000  1.0460000  1
  12845  12842  12854  12857     1  0.0000000  0.6694400  3
  12846  12845  12853  12856     1  0.0000000  1.0460000  1
  12846  12845  12853  12856     1  0.0000000  0.6694400  3
  12847  12846  12852  12858     1  0.0000000  1.0460000  1
  12847  12846  12852  12858     1  0.0000000  0.6694400  3
  12847  12846  12845  12849     1  0.0000000  0.6508444  3
  12848  12846  12847  12851     1  0.0000000  1.0460000  1
  12848  12846  12847  12851     1  0.0000000  0.0000000  3
  12848  12846  12847  12863     1  0.0000000  1.0460000  1
  12848  12846  12847  12863     1  0.0000000  0.0000000  3
  12848  12846  12847  12850     1  0.0000000  0.6508444  3
  12848  12846  12852  12858     1  0.0000000  0.6973333  3
  12848  12846  12845  12853     1  0.0000000  1.0460000  1
  12848  12846  12845  12853     1  0.0000000  0.0000000  3
  12848  12846  12845  12849     1  0.0000000  0.6508444  3
  12849  12845  12846  12852     1  0.0000000  1.0460000  1
  12849  12845  12846  12852     1  0.0000000  0.0000000  3
  12849  12845  12853  12856     1  0.0000000  0.6973333  3
  12849  12845  12842  12854     1  0.0000000  1.0460000  1
  12849  12845  12842  12854     1  0.0000000  0.0000000  3
  12850  12847  12846  12852     1  0.0000000  0.6508444  3
  12859  12855  12861  12862     1  0.0000000  0.6973333  3
  12859  12855  12841  12863     1  0.0000000  1.0460000  1
  12859  12855  12841  12863     1  0.0000000  0.0000000  3
  12860  12855  12861  12862     1  0.0000000  0.6973333  3
  12860  12855  12841  12863     1  0.0000000  1.0460000  1
  12860  12855  12841  12863     1  0.0000000  0.0000000  3
  12864  12865  12868  12872     1  0.0000000  0.6508444  3
  12864  12865  12877  12880     1  0.0000000  1.0460000  1
  12864  12865  12877  12880     1  0.0000000  0.6694400  3
  12864  12878  12884  12885     1  0.0000000  1.0460000  1
  12864  12878  12884  12885     1  0.0000000  0.6694400  3
  12864  12886  12870  12873     1  0.0000000  1.6038667  3
  12865  12864  12878  12882     1  0.0000000  0.6508444  3
  12865  12864  12878  12883     1  0.0000000  0.6508444  3
  12865  12868  12869  12871     1  0.0000000  0.6508444  3
  12865  12868  12876  12879     1  0.0000000  1.0460000  1
  12865  12868  12876  12879     1  0.0000000  0.6694400  3
  12866  12864  12865  12868     1  0.0000000  0.6508444  3
  12866  12864  12865  12877     1  0.0000000  1.0460000  1
  12866  12864  12865  12877     1  0.0000000  0.0000000  3
  12866  12864  12865  12867     1  0.0000000  0.6508444  3
  12866  12864  12878  12884     1  0.0000000  1.0460000  1
  12866  12864  12878  12884     1  0.0000000  0.0000000  3
  12866  12864  12878  12882     1  0.0000000  0.6508444  3
  12866  12864  12878  12883     1  0.0000000  0.6508444  3
  12866  12864  12886  12870     1  0.0000000  1.6038667  3
  12867  12865  12864  12878     1  0.0000000  0.6508444  3
  12867  12865  12864  12886     1  0.0000000  1.0460000  1
  12867  12865  12864  12886     1  0.0000000  0.0000000  3
  12867  12865  12868  12869     1  0.0000000  0.6508444  3
  12867  12865  12868  12876     1  0.0000000  1.0460000  1
  12867  12865  12868  12876     1  0.0000000  0.0000000  3
  12867  12865  12868  12872     1  0.0000000  0.6508444  3
  12867  12865  12877  12880     1  0.0000000  0.6973333  3
  12868  12865  12877  12880     1  0.0000000  1.0460000  1
  12868  12865  12877  12880     1  0.0000000  0.6694400  3
  12868  12869  12870  12873     1  0.0000000  0.6508444  3
  12868  12869  12875  12881     1  0.0000000  1.0460000  1
  12868  12869  12875  12881     1  0.0000000  0.6694400  3
  12869  12868  12876  12879     1  0.0000000  1.0460000  1
  12869  12868  12876  12879     1  0.0000000  0.6694400  3
  12870  12869  12868  12872     1  0.0000000  0.6508444  3
  12870  12869  12875  12881     1  0.0000000  1.0460000  1
  12870  12869  12875  12881     1  0.0000000  0.6694400  3
  12871  12869  12868  12876     1  0.0000000  1.0460000  1
  12871  12869  12868  12876     1  0.0000000  0.0000000  3
  12871  12869  12868  12872     1  0.0000000  0.6508444  3
  12871  12869  12870  12874     1  0.0000000  1.0460000  1
  12871  12869  12870  12874     1  0.0000000  0.0000000  3
  12871  12869  12870  12886     1  0.0000000  1.0460000  1
  12871  12869  12870  12886     1  0.0000000  0.0000000  3
  12871  12869  12870  12873     1  0.0000000  0.6508444  3
  12871  12869  12875  12881     1  0.0000000  0.6973333  3
  12872  12868  12865  12877     1  0.0000000  1.0460000  1
  12872  12868  12865  12877     1  0.0000000  0.0000000  3
  12872  12868  12869  12875     1  0.0000000  1.0460000  1
  12872  12868  12869  12875     1  0.0000000  0.0000000  3
  12872  12868  12876  12879     1  0.0000000  0.6973333  3
  12873  12870  12869  12875     1  0.0000000  0.6508444  3
  12882  12878  12864  12886     1  0.0000000  1.0460000  1
  12882  12878  12864  12886     1  0.0000000  0.0000000  3
  12882  12878  12884  12885     1  0.0000000  0.6973333  3
  12883  12878  12864  12886     1  0.0000000  1.0460000  1
  12883  12878  12864  12886     1  0.0000000  0.0000000  3
  12883  12878  12884  12885     1  0.0000000  0.6973333  3
  12887  12888  12891  12895     1  0.0000000  0.6508444  3
  12887  12888  12900  12903     1  0.0000000  1.0460000  1
  12887  12888  12900  12903     1  0.0000000  0.6694400  3
  12887  12901  12907  12908     1  0.0000000  1.0460000  1
  12887  12901  12907  12908     1  0.0000000  0.6694400  3
  12887  12909  12893  12896     1  0.0000000  1.6038667  3
  12888  12891  12892  12894     1  0.0000000  0.6508444  3
  12888  12891  12899  12902     1  0.0000000  1.0460000  1
  12888  12891  12899  12902     1  0.0000000  0.6694400  3
  12888  12887  12901  12905     1  0.0000000  0.6508444  3
  12888  12887  12901  12906     1  0.0000000  0.6508444  3
  12889  12887  12888  12891     1  0.0000000  0.6508444  3
  12889  12887  12888  12900     1  0.0000000  1.0460000  1
  12889  12887  12888  12900     1  0.0000000  0.0000000  3
  12889  12887  12888  12890     1  0.0000000  0.6508444  3
  12889  12887  12901  12907     1  0.0000000  1.0460000  1
  12889  12887  12901  12907     1  0.0000000  0.0000000  3
  12889  12887  12901  12905     1  0.0000000  0.6508444  3
  12889  12887  12901  12906     1  0.0000000  0.6508444  3
  12889  12887  12909  12893     1  0.0000000  1.6038667  3
  12890  12888  12891  12892     1  0.0000000  0.6508444  3
  12890  12888  12891  12899     1  0.0000000  1.0460000  1
  12890  12888  12891  12899     1  0.0000000  0.0000000  3
  12890  12888  12891  12895     1  0.0000000  0.6508444  3
  12890  12888  12900  12903     1  0.0000000  0.6973333  3
  12890  12888  12887  12901     1  0.0000000  0.6508444  3
  12890  12888  12887  12909     1  0.0000000  1.0460000  1
  12890  12888  12887  12909     1  0.0000000  0.0000000  3
  12891  12892  12893  12896     1  0.0000000  0.6508444  3
  12891  12892  12898  12904     1  0.0000000  1.0460000  1
  12891  12892  12898  12904     1  0.0000000  0.6694400  3
  12891  12888  12900  12903     1  0.0000000  1.0460000  1
  12891  12888  12900  12903     1  0.0000000  0.6694400  3
  12892  12891  12899  12902     1  0.0000000  1.0460000  1
  12892  12891  12899  12902     1  0.0000000  0.6694400  3
  12893  12892  12898  12904     1  0.0000000  1.0460000  1
  12893  12892  12898  12904     1  0.0000000  0.6694400  3
  12893  12892  12891  12895     1  0.0000000  0.6508444  3
  12894  12892  12893  12897     1  0.0000000  1.0460000  1
  12894  12892  12893  12897     1  0.0000000  0.0000000  3
  12894  12892  12893  12909     1  0.0000000  1.0460000  1
  12894  12892  12893  12909     1  0.0000000  0.0000000  3
  12894  12892  12893  12896     1  0.0000000  0.6508444  3
  12894  12892  12898  12904     1  0.0000000  0.6973333  3
  12894  12892  12891  12899     1  0.0000000  1.0460000  1
  12894  12892  12891  12899     1  0.0000000  0.0000000  3
  12894  12892  12891  12895     1  0.0000000  0.6508444  3
  12895  12891  12892  12898     1  0.0000000  1.0460000  1
  12895  12891  12892  12898     1  0.0000000  0.0000000  3
  12895  12891  12899  12902     1  0.0000000  0.6973333  3
  12895  12891  12888  12900     1  0.0000000  1.0460000  1
  12895  12891  12888  12900     1  0.0000000  0.0000000  3
  12896  12893  12892  12898     1  0.0000000  0.6508444  3
  12905  12901  12907  12908     1  0.0000000  0.6973333  3
  12905  12901  12887  12909     1  0.0000000  1.0460000  1
  12905  12901  12887  12909     1  0.0000000  0.0000000  3
  12906  12901  12907  12908     1  0.0000000  0.6973333  3
  12906  12901  12887  12909     1  0.0000000  1.0460000  1
  12906  12901  12887  12909     1  0.0000000  0.0000000  3
  12910  12911  12914  12918     1  0.0000000  0.6508444  3
  12910  12911  12923  12926     1  0.0000000  1.0460000  1
  12910  12911  12923  12926     1  0.0000000  0.6694400  3
  12910  12924  12930  12931     1  0.0000000  1.0460000  1
  12910  12924  12930  12931     1  0.0000000  0.6694400  3
  12910  12932  12916  12919     1  0.0000000  1.6038667  3
  12911  12910  12924  12928     1  0.0000000  0.6508444  3
  12911  12910  12924  12929     1  0.0000000  0.6508444  3
  12911  12914  12915  12917     1  0.0000000  0.6508444  3
  12911  12914  12922  12925     1  0.0000000  1.0460000  1
  12911  12914  12922  12925     1  0.0000000  0.6694400  3
  12912  12910  12911  12914     1  0.0000000  0.6508444  3
  12912  12910  12911  12923     1  0.0000000  1.0460000  1
  12912  12910  12911  12923     1  0.0000000  0.0000000  3
  12912  12910  12911  12913     1  0.0000000  0.6508444  3
  12912  12910  12924  12930     1  0.0000000  1.0460000  1
  12912  12910  12924  12930     1  0.0000000  0.0000000  3
  12912  12910  12924  12928     1  0.0000000  0.6508444  3
  12912  12910  12924  12929     1  0.0000000  0.6508444  3
  12912  12910  12932  12916     1  0.0000000  1.6038667  3
  12913  12911  12910  12924     1  0.0000000  0.6508444  3
  12913  12911  12910  12932     1  0.0000000  1.0460000  1
  12913  12911  12910  12932     1  0.0000000  0.0000000  3
  12913  12911  12914  12915     1  0.0000000  0.6508444  3
  12913  12911  12914  12922     1  0.0000000  1.0460000  1
  12913  12911  12914  12922     1  0.0000000  0.0000000  3
  12913  12911  12914  12918     1  0.0000000  0.6508444  3
  12913  12911  12923  12926     1  0.0000000  0.6973333  3
  12914  12911  12923  12926     1  0.0000000  1.0460000  1
  12914  12911  12923  12926     1  0.0000000  0.6694400  3
  12914  12915  12916  12919     1  0.0000000  0.6508444  3
  12914  12915  12921  12927     1  0.0000000  1.0460000  1
  12914  12915  12921  12927     1  0.0000000  0.6694400  3
  12915  12914  12922  12925     1  0.0000000  1.0460000  1
  12915  12914  12922  12925     1  0.0000000  0.6694400  3
  12916  12915  12914  12918     1  0.0000000  0.6508444  3
  12916  12915  12921  12927     1  0.0000000  1.0460000  1
  12916  12915  12921  12927     1  0.0000000  0.6694400  3
  12917  12915  12914  12922     1  0.0000000  1.0460000  1
  12917  12915  12914  12922     1  0.0000000  0.0000000  3
  12917  12915  12914  12918     1  0.0000000  0.6508444  3
  12917  12915  12916  12920     1  0.0000000  1.0460000  1
  12917  12915  12916  12920     1  0.0000000  0.0000000  3
  12917  12915  12916  12932     1  0.0000000  1.0460000  1
  12917  12915  12916  12932     1  0.0000000  0.0000000  3
  12917  12915  12916  12919     1  0.0000000  0.6508444  3
  12917  12915  12921  12927     1  0.0000000  0.6973333  3
  12918  12914  12911  12923     1  0.0000000  1.0460000  1
  12918  12914  12911  12923     1  0.0000000  0.0000000  3
  12918  12914  12915  12921     1  0.0000000  1.0460000  1
  12918  12914  12915  12921     1  0.0000000  0.0000000  3
  12918  12914  12922  12925     1  0.0000000  0.6973333  3
  12919  12916  12915  12921     1  0.0000000  0.6508444  3
  12928  12924  12910  12932     1  0.0000000  1.0460000  1
  12928  12924  12910  12932     1  0.0000000  0.0000000  3
  12928  12924  12930  12931     1  0.0000000  0.6973333  3
  12929  12924  12910  12932     1  0.0000000  1.0460000  1
  12929  12924  12910  12932     1  0.0000000  0.0000000  3
  12929  12924  12930  12931     1  0.0000000  0.6973333  3
  12933  12934  12937  12941     1  0.0000000  0.6508444  3
  12933  12934  12946  12949     1  0.0000000  1.0460000  1
  12933  12934  12946  12949     1  0.0000000  0.6694400  3
  12933  12947  12953  12954     1  0.0000000  1.0460000  1
  12933  12947  12953  12954     1  0.0000000  0.6694400  3
  12933  12955  12939  12942     1  0.0000000  1.6038667  3
  12934  12937  12938  12940     1  0.0000000  0.6508444  3
  12934  12937  12945  12948     1  0.0000000  1.0460000  1
  12934  12937  12945  12948     1  0.0000000  0.6694400  3
  12934  12933  12947  12951     1  0.0000000  0.6508444  3
  12934  12933  12947  12952     1  0.0000000  0.6508444  3
  12935  12933  12934  12937     1  0.0000000  0.6508444  3
  12935  12933  12934  12946     1  0.0000000  1.0460000  1
  12935  12933  12934  12946     1  0.0000000  0.0000000  3
  12935  12933  12934  12936     1  0.0000000  0.6508444  3
  12935  12933  12947  12953     1  0.0000000  1.0460000  1
  12935  12933  12947  12953     1  0.0000000  0.0000000  3
  12935  12933  12947  12951     1  0.0000000  0.6508444  3
  12935  12933  12947  12952     1  0.0000000  0.6508444  3
  12935  12933  12955  12939     1  0.0000000  1.6038667  3
  12936  12934  12937  12938     1  0.0000000  0.6508444  3
  12936  12934  12937  12945     1  0.0000000  1.0460000  1
  12936  12934  12937  12945     1  0.0000000  0.0000000  3
  12936  12934  12937  12941     1  0.0000000  0.6508444  3
  12936  12934  12946  12949     1  0.0000000  0.6973333  3
  12936  12934  12933  12947     1  0.0000000  0.6508444  3
  12936  12934  12933  12955     1  0.0000000  1.0460000  1
  12936  12934  12933  12955     1  0.0000000  0.0000000  3
  12937  12938  12939  12942     1  0.0000000  0.6508444  3
  12937  12938  12944  12950     1  0.0000000  1.0460000  1
  12937  12938  12944  12950     1  0.0000000  0.6694400  3
  12937  12934  12946  12949     1  0.0000000  1.0460000  1
  12937  12934  12946  12949     1  0.0000000  0.6694400  3
  12938  12937  12945  12948     1  0.0000000  1.0460000  1
  12938  12937  12945  12948     1  0.0000000  0.6694400  3
  12939  12938  12944  12950     1  0.0000000  1.0460000  1
  12939  12938  12944  12950     1  0.0000000  0.6694400  3
  12939  12938  12937  12941     1  0.0000000  0.6508444  3
  12940  12938  12939  12943     1  0.0000000  1.0460000  1
  12940  12938  12939  12943     1  0.0000000  0.0000000  3
  12940  12938  12939  12955     1  0.0000000  1.0460000  1
  12940  12938  12939  12955     1  0.0000000  0.0000000  3
  12940  12938  12939  12942     1  0.0000000  0.6508444  3
  12940  12938  12944  12950     1  0.0000000  0.6973333  3
  12940  12938  12937  12945     1  0.0000000  1.0460000  1
  12940  12938  12937  12945     1  0.0000000  0.0000000  3
  12940  12938  12937  12941     1  0.0000000  0.6508444  3
  12941  12937  12938  12944     1  0.0000000  1.0460000  1
  12941  12937  12938  12944     1  0.0000000  0.0000000  3
  12941  12937  12945  12948     1  0.0000000  0.6973333  3
  12941  12937  12934  12946     1  0.0000000  1.0460000  1
  12941  12937  12934  12946     1  0.0000000  0.0000000  3
  12942  12939  12938  12944     1  0.0000000  0.6508444  3
  12951  12947  12953  12954     1  0.0000000  0.6973333  3
  12951  12947  12933  12955     1  0.0000000  1.0460000  1
  12951  12947  12933  12955     1  0.0000000  0.0000000  3
  12952  12947  12953  12954     1  0.0000000  0.6973333  3
  12952  12947  12933  12955     1  0.0000000  1.0460000  1
  12952  12947  12933  12955     1  0.0000000  0.0000000  3
  12956  12957  12960  12964     1  0.0000000  0.6508444  3
  12956  12957  12969  12972     1  0.0000000  1.0460000  1
  12956  12957  12969  12972     1  0.0000000  0.6694400  3
  12956  12970  12976  12977     1  0.0000000  1.0460000  1
  12956  12970  12976  12977     1  0.0000000  0.6694400  3
  12956  12978  12962  12965     1  0.0000000  1.6038667  3
  12957  12956  12970  12974     1  0.0000000  0.6508444  3
  12957  12956  12970  12975     1  0.0000000  0.6508444  3
  12957  12960  12961  12963     1  0.0000000  0.6508444  3
  12957  12960  12968  12971     1  0.0000000  1.0460000  1
  12957  12960  12968  12971     1  0.0000000  0.6694400  3
  12958  12956  12957  12960     1  0.0000000  0.6508444  3
  12958  12956  12957  12969     1  0.0000000  1.0460000  1
  12958  12956  12957  12969     1  0.0000000  0.0000000  3
  12958  12956  12957  12959     1  0.0000000  0.6508444  3
  12958  12956  12970  12976     1  0.0000000  1.0460000  1
  12958  12956  12970  12976     1  0.0000000  0.0000000  3
  12958  12956  12970  12974     1  0.0000000  0.6508444  3
  12958  12956  12970  12975     1  0.0000000  0.6508444  3
  12958  12956  12978  12962     1  0.0000000  1.6038667  3
  12959  12957  12956  12970     1  0.0000000  0.6508444  3
  12959  12957  12956  12978     1  0.0000000  1.0460000  1
  12959  12957  12956  12978     1  0.0000000  0.0000000  3
  12959  12957  12960  12961     1  0.0000000  0.6508444  3
  12959  12957  12960  12968     1  0.0000000  1.0460000  1
  12959  12957  12960  12968     1  0.0000000  0.0000000  3
  12959  12957  12960  12964     1  0.0000000  0.6508444  3
  12959  12957  12969  12972     1  0.0000000  0.6973333  3
  12960  12957  12969  12972     1  0.0000000  1.0460000  1
  12960  12957  12969  12972     1  0.0000000  0.6694400  3
  12960  12961  12962  12965     1  0.0000000  0.6508444  3
  12960  12961  12967  12973     1  0.0000000  1.0460000  1
  12960  12961  12967  12973     1  0.0000000  0.6694400  3
  12961  12960  12968  12971     1  0.0000000  1.0460000  1
  12961  12960  12968  12971     1  0.0000000  0.6694400  3
  12962  12961  12960  12964     1  0.0000000  0.6508444  3
  12962  12961  12967  12973     1  0.0000000  1.0460000  1
  12962  12961  12967  12973     1  0.0000000  0.6694400  3
  12963  12961  12960  12968     1  0.0000000  1.0460000  1
  12963  12961  12960  12968     1  0.0000000  0.0000000  3
  12963  12961  12960  12964     1  0.0000000  0.6508444  3
  12963  12961  12962  12966     1  0.0000000  1.0460000  1
  12963  12961  12962  12966     1  0.0000000  0.0000000  3
  12963  12961  12962  12978     1  0.0000000  1.0460000  1
  12963  12961  12962  12978     1  0.0000000  0.0000000  3
  12963  12961  12962  12965     1  0.0000000  0.6508444  3
  12963  12961  12967  12973     1  0.0000000  0.6973333  3
  12964  12960  12957  12969     1  0.0000000  1.0460000  1
  12964  12960  12957  12969     1  0.0000000  0.0000000  3
  12964  12960  12961  12967     1  0.0000000  1.0460000  1
  12964  12960  12961  12967     1  0.0000000  0.0000000  3
  12964  12960  12968  12971     1  0.0000000  0.6973333  3
  12965  12962  12961  12967     1  0.0000000  0.6508444  3
  12974  12970  12956  12978     1  0.0000000  1.0460000  1
  12974  12970  12956  12978     1  0.0000000  0.0000000  3
  12974  12970  12976  12977     1  0.0000000  0.6973333  3
  12975  12970  12956  12978     1  0.0000000  1.0460000  1
  12975  12970  12956  12978     1  0.0000000  0.0000000  3
  12975  12970  12976  12977     1  0.0000000  0.6973333  3
  12979  12980  12983  12987     1  0.0000000  0.6508444  3
  12979  12980  12992  12995     1  0.0000000  1.0460000  1
  12979  12980  12992  12995     1  0.0000000  0.6694400  3
  12979  12993  12999  13000     1  0.0000000  1.0460000  1
  12979  12993  12999  13000     1  0.0000000  0.6694400  3
  12979  13001  12985  12988     1  0.0000000  1.6038667  3
  12980  12983  12984  12986     1  0.0000000  0.6508444  3
  12980  12983  12991  12994     1  0.0000000  1.0460000  1
  12980  12983  12991  12994     1  0.0000000  0.6694400  3
  12980  12979  12993  12997     1  0.0000000  0.6508444  3
  12980  12979  12993  12998     1  0.0000000  0.6508444  3
  12981  12979  12980  12983     1  0.0000000  0.6508444  3
  12981  12979  12980  12992     1  0.0000000  1.0460000  1
  12981  12979  12980  12992     1  0.0000000  0.0000000  3
  12981  12979  12980  12982     1  0.0000000  0.6508444  3
  12981  12979  12993  12999     1  0.0000000  1.0460000  1
  12981  12979  12993  12999     1  0.0000000  0.0000000  3
  12981  12979  12993  12997     1  0.0000000  0.6508444  3
  12981  12979  12993  12998     1  0.0000000  0.6508444  3
  12981  12979  13001  12985     1  0.0000000  1.6038667  3
  12982  12980  12983  12984     1  0.0000000  0.6508444  3
  12982  12980  12983  12991     1  0.0000000  1.0460000  1
  12982  12980  12983  12991     1  0.0000000  0.0000000  3
  12982  12980  12983  12987     1  0.0000000  0.6508444  3
  12982  12980  12992  12995     1  0.0000000  0.6973333  3
  12982  12980  12979  12993     1  0.0000000  0.6508444  3
  12982  12980  12979  13001     1  0.0000000  1.0460000  1
  12982  12980  12979  13001     1  0.0000000  0.0000000  3
  12983  12984  12985  12988     1  0.0000000  0.6508444  3
  12983  12984  12990  12996     1  0.0000000  1.0460000  1
  12983  12984  12990  12996     1  0.0000000  0.6694400  3
  12983  12980  12992  12995     1  0.0000000  1.0460000  1
  12983  12980  12992  12995     1  0.0000000  0.6694400  3
  12984  12983  12991  12994     1  0.0000000  1.0460000  1
  12984  12983  12991  12994     1  0.0000000  0.6694400  3
  12985  12984  12990  12996     1  0.0000000  1.0460000  1
  12985  12984  12990  12996     1  0.0000000  0.6694400  3
  12985  12984  12983  12987     1  0.0000000  0.6508444  3
  12986  12984  12985  12989     1  0.0000000  1.0460000  1
  12986  12984  12985  12989     1  0.0000000  0.0000000  3
  12986  12984  12985  13001     1  0.0000000  1.0460000  1
  12986  12984  12985  13001     1  0.0000000  0.0000000  3
  12986  12984  12985  12988     1  0.0000000  0.6508444  3
  12986  12984  12990  12996     1  0.0000000  0.6973333  3
  12986  12984  12983  12991     1  0.0000000  1.0460000  1
  12986  12984  12983  12991     1  0.0000000  0.0000000  3
  12986  12984  12983  12987     1  0.0000000  0.6508444  3
  12987  12983  12984  12990     1  0.0000000  1.0460000  1
  12987  12983  12984  12990     1  0.0000000  0.0000000  3
  12987  12983  12991  12994     1  0.0000000  0.6973333  3
  12987  12983  12980  12992     1  0.0000000  1.0460000  1
  12987  12983  12980  12992     1  0.0000000  0.0000000  3
  12988  12985  12984  12990     1  0.0000000  0.6508444  3
  12997  12993  12999  13000     1  0.0000000  0.6973333  3
  12997  12993  12979  13001     1  0.0000000  1.0460000  1
  12997  12993  12979  13001     1  0.0000000  0.0000000  3
  12998  12993  12999  13000     1  0.0000000  0.6973333  3
  12998  12993  12979  13001     1  0.0000000  1.0460000  1
  12998  12993  12979  13001     1  0.0000000  0.0000000  3
  13002  13003  13006  13010     1  0.0000000  0.6508444  3
  13002  13003  13015  13018     1  0.0000000  1.0460000  1
  13002  13003  13015  13018     1  0.0000000  0.6694400  3
  13002  13016  13022  13023     1  0.0000000  1.0460000  1
  13002  13016  13022  13023     1  0.0000000  0.6694400  3
  13002  13024  13008  13011     1  0.0000000  1.6038667  3
  13003  13002  13016  13020     1  0.0000000  0.6508444  3
  13003  13002  13016  13021     1  0.0000000  0.6508444  3
  13003  13006  13007  13009     1  0.0000000  0.6508444  3
  13003  13006  13014  13017     1  0.0000000  1.0460000  1
  13003  13006  13014  13017     1  0.0000000  0.6694400  3
  13004  13002  13003  13006     1  0.0000000  0.6508444  3
  13004  13002  13003  13015     1  0.0000000  1.0460000  1
  13004  13002  13003  13015     1  0.0000000  0.0000000  3
  13004  13002  13003  13005     1  0.0000000  0.6508444  3
  13004  13002  13016  13022     1  0.0000000  1.0460000  1
  13004  13002  13016  13022     1  0.0000000  0.0000000  3
  13004  13002  13016  13020     1  0.0000000  0.6508444  3
  13004  13002  13016  13021     1  0.0000000  0.6508444  3
  13004  13002  13024  13008     1  0.0000000  1.6038667  3
  13005  13003  13002  13016     1  0.0000000  0.6508444  3
  13005  13003  13002  13024     1  0.0000000  1.0460000  1
  13005  13003  13002  13024     1  0.0000000  0.0000000  3
  13005  13003  13006  13007     1  0.0000000  0.6508444  3
  13005  13003  13006  13014     1  0.0000000  1.0460000  1
  13005  13003  13006  13014     1  0.0000000  0.0000000  3
  13005  13003  13006  13010     1  0.0000000  0.6508444  3
  13005  13003  13015  13018     1  0.0000000  0.6973333  3
  13006  13003  13015  13018     1  0.0000000  1.0460000  1
  13006  13003  13015  13018     1  0.0000000  0.6694400  3
  13006  13007  13008  13011     1  0.0000000  0.6508444  3
  13006  13007  13013  13019     1  0.0000000  1.0460000  1
  13006  13007  13013  13019     1  0.0000000  0.6694400  3
  13007  13006  13014  13017     1  0.0000000  1.0460000  1
  13007  13006  13014  13017     1  0.0000000  0.6694400  3
  13008  13007  13006  13010     1  0.0000000  0.6508444  3
  13008  13007  13013  13019     1  0.0000000  1.0460000  1
  13008  13007  13013  13019     1  0.0000000  0.6694400  3
  13009  13007  13006  13014     1  0.0000000  1.0460000  1
  13009  13007  13006  13014     1  0.0000000  0.0000000  3
  13009  13007  13006  13010     1  0.0000000  0.6508444  3
  13009  13007  13008  13012     1  0.0000000  1.0460000  1
  13009  13007  13008  13012     1  0.0000000  0.0000000  3
  13009  13007  13008  13024     1  0.0000000  1.0460000  1
  13009  13007  13008  13024     1  0.0000000  0.0000000  3
  13009  13007  13008  13011     1  0.0000000  0.6508444  3
  13009  13007  13013  13019     1  0.0000000  0.6973333  3
  13010  13006  13003  13015     1  0.0000000  1.0460000  1
  13010  13006  13003  13015     1  0.0000000  0.0000000  3
  13010  13006  13007  13013     1  0.0000000  1.0460000  1
  13010  13006  13007  13013     1  0.0000000  0.0000000  3
  13010  13006  13014  13017     1  0.0000000  0.6973333  3
  13011  13008  13007  13013     1  0.0000000  0.6508444  3
  13020  13016  13002  13024     1  0.0000000  1.0460000  1
  13020  13016  13002  13024     1  0.0000000  0.0000000  3
  13020  13016  13022  13023     1  0.0000000  0.6973333  3
  13021  13016  13002  13024     1  0.0000000  1.0460000  1
  13021  13016  13002  13024     1  0.0000000  0.0000000  3
  13021  13016  13022  13023     1  0.0000000  0.6973333  3
  13025  13026  13029  13033     1  0.0000000  0.6508444  3
  13025  13026  13038  13041     1  0.0000000  1.0460000  1
  13025  13026  13038  13041     1  0.0000000  0.6694400  3
  13025  13039  13045  13046     1  0.0000000  1.0460000  1
  13025  13039  13045  13046     1  0.0000000  0.6694400  3
  13025  13047  13031  13034     1  0.0000000  1.6038667  3
  13026  13029  13030  13032     1  0.0000000  0.6508444  3
  13026  13029  13037  13040     1  0.0000000  1.0460000  1
  13026  13029  13037  13040     1  0.0000000  0.6694400  3
  13026  13025  13039  13043     1  0.0000000  0.6508444  3
  13026  13025  13039  13044     1  0.0000000  0.6508444  3
  13027  13025  13026  13029     1  0.0000000  0.6508444  3
  13027  13025  13026  13038     1  0.0000000  1.0460000  1
  13027  13025  13026  13038     1  0.0000000  0.0000000  3
  13027  13025  13026  13028     1  0.0000000  0.6508444  3
  13027  13025  13039  13045     1  0.0000000  1.0460000  1
  13027  13025  13039  13045     1  0.0000000  0.0000000  3
  13027  13025  13039  13043     1  0.0000000  0.6508444  3
  13027  13025  13039  13044     1  0.0000000  0.6508444  3
  13027  13025  13047  13031     1  0.0000000  1.6038667  3
  13028  13026  13029  13030     1  0.0000000  0.6508444  3
  13028  13026  13029  13037     1  0.0000000  1.0460000  1
  13028  13026  13029  13037     1  0.0000000  0.0000000  3
  13028  13026  13029  13033     1  0.0000000  0.6508444  3
  13028  13026  13038  13041     1  0.0000000  0.6973333  3
  13028  13026  13025  13039     1  0.0000000  0.6508444  3
  13028  13026  13025  13047     1  0.0000000  1.0460000  1
  13028  13026  13025  13047     1  0.0000000  0.0000000  3
  13029  13030  13031  13034     1  0.0000000  0.6508444  3
  13029  13030  13036  13042     1  0.0000000  1.0460000  1
  13029  13030  13036  13042     1  0.0000000  0.6694400  3
  13029  13026  13038  13041     1  0.0000000  1.0460000  1
  13029  13026  13038  13041     1  0.0000000  0.6694400  3
  13030  13029  13037  13040     1  0.0000000  1.0460000  1
  13030  13029  13037  13040     1  0.0000000  0.6694400  3
  13031  13030  13036  13042     1  0.0000000  1.0460000  1
  13031  13030  13036  13042     1  0.0000000  0.6694400  3
  13031  13030  13029  13033     1  0.0000000  0.6508444  3
  13032  13030  13031  13035     1  0.0000000  1.0460000  1
  13032  13030  13031  13035     1  0.0000000  0.0000000  3
  13032  13030  13031  13047     1  0.0000000  1.0460000  1
  13032  13030  13031  13047     1  0.0000000  0.0000000  3
  13032  13030  13031  13034     1  0.0000000  0.6508444  3
  13032  13030  13036  13042     1  0.0000000  0.6973333  3
  13032  13030  13029  13037     1  0.0000000  1.0460000  1
  13032  13030  13029  13037     1  0.0000000  0.0000000  3
  13032  13030  13029  13033     1  0.0000000  0.6508444  3
  13033  13029  13030  13036     1  0.0000000  1.0460000  1
  13033  13029  13030  13036     1  0.0000000  0.0000000  3
  13033  13029  13037  13040     1  0.0000000  0.6973333  3
  13033  13029  13026  13038     1  0.0000000  1.0460000  1
  13033  13029  13026  13038     1  0.0000000  0.0000000  3
  13034  13031  13030  13036     1  0.0000000  0.6508444  3
  13043  13039  13045  13046     1  0.0000000  0.6973333  3
  13043  13039  13025  13047     1  0.0000000  1.0460000  1
  13043  13039  13025  13047     1  0.0000000  0.0000000  3
  13044  13039  13045  13046     1  0.0000000  0.6973333  3
  13044  13039  13025  13047     1  0.0000000  1.0460000  1
  13044  13039  13025  13047     1  0.0000000  0.0000000  3
  13048  13049  13052  13056     1  0.0000000  0.6508444  3
  13048  13049  13061  13064     1  0.0000000  1.0460000  1
  13048  13049  13061  13064     1  0.0000000  0.6694400  3
  13048  13062  13068  13069     1  0.0000000  1.0460000  1
  13048  13062  13068  13069     1  0.0000000  0.6694400  3
  13048  13070  13054  13057     1  0.0000000  1.6038667  3
  13049  13048  13062  13066     1  0.0000000  0.6508444  3
  13049  13048  13062  13067     1  0.0000000  0.6508444  3
  13049  13052  13053  13055     1  0.0000000  0.6508444  3
  13049  13052  13060  13063     1  0.0000000  1.0460000  1
  13049  13052  13060  13063     1  0.0000000  0.6694400  3
  13050  13048  13049  13052     1  0.0000000  0.6508444  3
  13050  13048  13049  13061     1  0.0000000  1.0460000  1
  13050  13048  13049  13061     1  0.0000000  0.0000000  3
  13050  13048  13049  13051     1  0.0000000  0.6508444  3
  13050  13048  13062  13068     1  0.0000000  1.0460000  1
  13050  13048  13062  13068     1  0.0000000  0.0000000  3
  13050  13048  13062  13066     1  0.0000000  0.6508444  3
  13050  13048  13062  13067     1  0.0000000  0.6508444  3
  13050  13048  13070  13054     1  0.0000000  1.6038667  3
  13051  13049  13048  13062     1  0.0000000  0.6508444  3
  13051  13049  13048  13070     1  0.0000000  1.0460000  1
  13051  13049  13048  13070     1  0.0000000  0.0000000  3
  13051  13049  13052  13053     1  0.0000000  0.6508444  3
  13051  13049  13052  13060     1  0.0000000  1.0460000  1
  13051  13049  13052  13060     1  0.0000000  0.0000000  3
  13051  13049  13052  13056     1  0.0000000  0.6508444  3
  13051  13049  13061  13064     1  0.0000000  0.6973333  3
  13052  13049  13061  13064     1  0.0000000  1.0460000  1
  13052  13049  13061  13064     1  0.0000000  0.6694400  3
  13052  13053  13054  13057     1  0.0000000  0.6508444  3
  13052  13053  13059  13065     1  0.0000000  1.0460000  1
  13052  13053  13059  13065     1  0.0000000  0.6694400  3
  13053  13052  13060  13063     1  0.0000000  1.0460000  1
  13053  13052  13060  13063     1  0.0000000  0.6694400  3
  13054  13053  13052  13056     1  0.0000000  0.6508444  3
  13054  13053  13059  13065     1  0.0000000  1.0460000  1
  13054  13053  13059  13065     1  0.0000000  0.6694400  3
  13055  13053  13052  13060     1  0.0000000  1.0460000  1
  13055  13053  13052  13060     1  0.0000000  0.0000000  3
  13055  13053  13052  13056     1  0.0000000  0.6508444  3
  13055  13053  13054  13058     1  0.0000000  1.0460000  1
  13055  13053  13054  13058     1  0.0000000  0.0000000  3
  13055  13053  13054  13070     1  0.0000000  1.0460000  1
  13055  13053  13054  13070     1  0.0000000  0.0000000  3
  13055  13053  13054  13057     1  0.0000000  0.6508444  3
  13055  13053  13059  13065     1  0.0000000  0.6973333  3
  13056  13052  13049  13061     1  0.0000000  1.0460000  1
  13056  13052  13049  13061     1  0.0000000  0.0000000  3
  13056  13052  13053  13059     1  0.0000000  1.0460000  1
  13056  13052  13053  13059     1  0.0000000  0.0000000  3
  13056  13052  13060  13063     1  0.0000000  0.6973333  3
  13057  13054  13053  13059     1  0.0000000  0.6508444  3
  13066  13062  13048  13070     1  0.0000000  1.0460000  1
  13066  13062  13048  13070     1  0.0000000  0.0000000  3
  13066  13062  13068  13069     1  0.0000000  0.6973333  3
  13067  13062  13048  13070     1  0.0000000  1.0460000  1
  13067  13062  13048  13070     1  0.0000000  0.0000000  3
  13067  13062  13068  13069     1  0.0000000  0.6973333  3
  13071  13072  13075  13079     1  0.0000000  0.6508444  3
  13071  13072  13084  13087     1  0.0000000  1.0460000  1
  13071  13072  13084  13087     1  0.0000000  0.6694400  3
  13071  13085  13091  13092     1  0.0000000  1.0460000  1
  13071  13085  13091  13092     1  0.0000000  0.6694400  3
  13071  13093  13077  13080     1  0.0000000  1.6038667  3
  13072  13075  13076  13078     1  0.0000000  0.6508444  3
  13072  13075  13083  13086     1  0.0000000  1.0460000  1
  13072  13075  13083  13086     1  0.0000000  0.6694400  3
  13072  13071  13085  13089     1  0.0000000  0.6508444  3
  13072  13071  13085  13090     1  0.0000000  0.6508444  3
  13073  13071  13072  13075     1  0.0000000  0.6508444  3
  13073  13071  13072  13084     1  0.0000000  1.0460000  1
  13073  13071  13072  13084     1  0.0000000  0.0000000  3
  13073  13071  13072  13074     1  0.0000000  0.6508444  3
  13073  13071  13085  13091     1  0.0000000  1.0460000  1
  13073  13071  13085  13091     1  0.0000000  0.0000000  3
  13073  13071  13085  13089     1  0.0000000  0.6508444  3
  13073  13071  13085  13090     1  0.0000000  0.6508444  3
  13073  13071  13093  13077     1  0.0000000  1.6038667  3
  13074  13072  13075  13076     1  0.0000000  0.6508444  3
  13074  13072  13075  13083     1  0.0000000  1.0460000  1
  13074  13072  13075  13083     1  0.0000000  0.0000000  3
  13074  13072  13075  13079     1  0.0000000  0.6508444  3
  13074  13072  13084  13087     1  0.0000000  0.6973333  3
  13074  13072  13071  13085     1  0.0000000  0.6508444  3
  13074  13072  13071  13093     1  0.0000000  1.0460000  1
  13074  13072  13071  13093     1  0.0000000  0.0000000  3
  13075  13076  13077  13080     1  0.0000000  0.6508444  3
  13075  13076  13082  13088     1  0.0000000  1.0460000  1
  13075  13076  13082  13088     1  0.0000000  0.6694400  3
  13075  13072  13084  13087     1  0.0000000  1.0460000  1
  13075  13072  13084  13087     1  0.0000000  0.6694400  3
  13076  13075  13083  13086     1  0.0000000  1.0460000  1
  13076  13075  13083  13086     1  0.0000000  0.6694400  3
  13077  13076  13082  13088     1  0.0000000  1.0460000  1
  13077  13076  13082  13088     1  0.0000000  0.6694400  3
  13077  13076  13075  13079     1  0.0000000  0.6508444  3
  13078  13076  13077  13081     1  0.0000000  1.0460000  1
  13078  13076  13077  13081     1  0.0000000  0.0000000  3
  13078  13076  13077  13093     1  0.0000000  1.0460000  1
  13078  13076  13077  13093     1  0.0000000  0.0000000  3
  13078  13076  13077  13080     1  0.0000000  0.6508444  3
  13078  13076  13082  13088     1  0.0000000  0.6973333  3
  13078  13076  13075  13083     1  0.0000000  1.0460000  1
  13078  13076  13075  13083     1  0.0000000  0.0000000  3
  13078  13076  13075  13079     1  0.0000000  0.6508444  3
  13079  13075  13076  13082     1  0.0000000  1.0460000  1
  13079  13075  13076  13082     1  0.0000000  0.0000000  3
  13079  13075  13083  13086     1  0.0000000  0.6973333  3
  13079  13075  13072  13084     1  0.0000000  1.0460000  1
  13079  13075  13072  13084     1  0.0000000  0.0000000  3
  13080  13077  13076  13082     1  0.0000000  0.6508444  3
  13089  13085  13091  13092     1  0.0000000  0.6973333  3
  13089  13085  13071  13093     1  0.0000000  1.0460000  1
  13089  13085  13071  13093     1  0.0000000  0.0000000  3
  13090  13085  13091  13092     1  0.0000000  0.6973333  3
  13090  13085  13071  13093     1  0.0000000  1.0460000  1
  13090  13085  13071  13093     1  0.0000000  0.0000000  3
  13094  13095  13098  13102     1  0.0000000  0.6508444  3
  13094  13095  13107  13110     1  0.0000000  1.0460000  1
  13094  13095  13107  13110     1  0.0000000  0.6694400  3
  13094  13108  13114  13115     1  0.0000000  1.0460000  1
  13094  13108  13114  13115     1  0.0000000  0.6694400  3
  13094  13116  13100  13103     1  0.0000000  1.6038667  3
  13095  13094  13108  13112     1  0.0000000  0.6508444  3
  13095  13094  13108  13113     1  0.0000000  0.6508444  3
  13095  13098  13099  13101     1  0.0000000  0.6508444  3
  13095  13098  13106  13109     1  0.0000000  1.0460000  1
  13095  13098  13106  13109     1  0.0000000  0.6694400  3
  13096  13094  13095  13098     1  0.0000000  0.6508444  3
  13096  13094  13095  13107     1  0.0000000  1.0460000  1
  13096  13094  13095  13107     1  0.0000000  0.0000000  3
  13096  13094  13095  13097     1  0.0000000  0.6508444  3
  13096  13094  13108  13114     1  0.0000000  1.0460000  1
  13096  13094  13108  13114     1  0.0000000  0.0000000  3
  13096  13094  13108  13112     1  0.0000000  0.6508444  3
  13096  13094  13108  13113     1  0.0000000  0.6508444  3
  13096  13094  13116  13100     1  0.0000000  1.6038667  3
  13097  13095  13094  13108     1  0.0000000  0.6508444  3
  13097  13095  13094  13116     1  0.0000000  1.0460000  1
  13097  13095  13094  13116     1  0.0000000  0.0000000  3
  13097  13095  13098  13099     1  0.0000000  0.6508444  3
  13097  13095  13098  13106     1  0.0000000  1.0460000  1
  13097  13095  13098  13106     1  0.0000000  0.0000000  3
  13097  13095  13098  13102     1  0.0000000  0.6508444  3
  13097  13095  13107  13110     1  0.0000000  0.6973333  3
  13098  13095  13107  13110     1  0.0000000  1.0460000  1
  13098  13095  13107  13110     1  0.0000000  0.6694400  3
  13098  13099  13100  13103     1  0.0000000  0.6508444  3
  13098  13099  13105  13111     1  0.0000000  1.0460000  1
  13098  13099  13105  13111     1  0.0000000  0.6694400  3
  13099  13098  13106  13109     1  0.0000000  1.0460000  1
  13099  13098  13106  13109     1  0.0000000  0.6694400  3
  13100  13099  13098  13102     1  0.0000000  0.6508444  3
  13100  13099  13105  13111     1  0.0000000  1.0460000  1
  13100  13099  13105  13111     1  0.0000000  0.6694400  3
  13101  13099  13098  13106     1  0.0000000  1.0460000  1
  13101  13099  13098  13106     1  0.0000000  0.0000000  3
  13101  13099  13098  13102     1  0.0000000  0.6508444  3
  13101  13099  13100  13104     1  0.0000000  1.0460000  1
  13101  13099  13100  13104     1  0.0000000  0.0000000  3
  13101  13099  13100  13116     1  0.0000000  1.0460000  1
  13101  13099  13100  13116     1  0.0000000  0.0000000  3
  13101  13099  13100  13103     1  0.0000000  0.6508444  3
  13101  13099  13105  13111     1  0.0000000  0.6973333  3
  13102  13098  13095  13107     1  0.0000000  1.0460000  1
  13102  13098  13095  13107     1  0.0000000  0.0000000  3
  13102  13098  13099  13105     1  0.0000000  1.0460000  1
  13102  13098  13099  13105     1  0.0000000  0.0000000  3
  13102  13098  13106  13109     1  0.0000000  0.6973333  3
  13103  13100  13099  13105     1  0.0000000  0.6508444  3
  13112  13108  13094  13116     1  0.0000000  1.0460000  1
  13112  13108  13094  13116     1  0.0000000  0.0000000  3
  13112  13108  13114  13115     1  0.0000000  0.6973333  3
  13113  13108  13094  13116     1  0.0000000  1.0460000  1
  13113  13108  13094  13116     1  0.0000000  0.0000000  3
  13113  13108  13114  13115     1  0.0000000  0.6973333  3
  13117  13118  13121  13125     1  0.0000000  0.6508444  3
  13117  13118  13130  13133     1  0.0000000  1.0460000  1
  13117  13118  13130  13133     1  0.0000000  0.6694400  3
  13117  13131  13137  13138     1  0.0000000  1.0460000  1
  13117  13131  13137  13138     1  0.0000000  0.6694400  3
  13117  13139  13123  13126     1  0.0000000  1.6038667  3
  13118  13121  13122  13124     1  0.0000000  0.6508444  3
  13118  13121  13129  13132     1  0.0000000  1.0460000  1
  13118  13121  13129  13132     1  0.0000000  0.6694400  3
  13118  13117  13131  13135     1  0.0000000  0.6508444  3
  13118  13117  13131  13136     1  0.0000000  0.6508444  3
  13119  13117  13118  13121     1  0.0000000  0.6508444  3
  13119  13117  13118  13130     1  0.0000000  1.0460000  1
  13119  13117  13118  13130     1  0.0000000  0.0000000  3
  13119  13117  13118  13120     1  0.0000000  0.6508444  3
  13119  13117  13131  13137     1  0.0000000  1.0460000  1
  13119  13117  13131  13137     1  0.0000000  0.0000000  3
  13119  13117  13131  13135     1  0.0000000  0.6508444  3
  13119  13117  13131  13136     1  0.0000000  0.6508444  3
  13119  13117  13139  13123     1  0.0000000  1.6038667  3
  13120  13118  13121  13122     1  0.0000000  0.6508444  3
  13120  13118  13121  13129     1  0.0000000  1.0460000  1
  13120  13118  13121  13129     1  0.0000000  0.0000000  3
  13120  13118  13121  13125     1  0.0000000  0.6508444  3
  13120  13118  13130  13133     1  0.0000000  0.6973333  3
  13120  13118  13117  13131     1  0.0000000  0.6508444  3
  13120  13118  13117  13139     1  0.0000000  1.0460000  1
  13120  13118  13117  13139     1  0.0000000  0.0000000  3
  13121  13122  13123  13126     1  0.0000000  0.6508444  3
  13121  13122  13128  13134     1  0.0000000  1.0460000  1
  13121  13122  13128  13134     1  0.0000000  0.6694400  3
  13121  13118  13130  13133     1  0.0000000  1.0460000  1
  13121  13118  13130  13133     1  0.0000000  0.6694400  3
  13122  13121  13129  13132     1  0.0000000  1.0460000  1
  13122  13121  13129  13132     1  0.0000000  0.6694400  3
  13123  13122  13128  13134     1  0.0000000  1.0460000  1
  13123  13122  13128  13134     1  0.0000000  0.6694400  3
  13123  13122  13121  13125     1  0.0000000  0.6508444  3
  13124  13122  13123  13127     1  0.0000000  1.0460000  1
  13124  13122  13123  13127     1  0.0000000  0.0000000  3
  13124  13122  13123  13139     1  0.0000000  1.0460000  1
  13124  13122  13123  13139     1  0.0000000  0.0000000  3
  13124  13122  13123  13126     1  0.0000000  0.6508444  3
  13124  13122  13128  13134     1  0.0000000  0.6973333  3
  13124  13122  13121  13129     1  0.0000000  1.0460000  1
  13124  13122  13121  13129     1  0.0000000  0.0000000  3
  13124  13122  13121  13125     1  0.0000000  0.6508444  3
  13125  13121  13122  13128     1  0.0000000  1.0460000  1
  13125  13121  13122  13128     1  0.0000000  0.0000000  3
  13125  13121  13129  13132     1  0.0000000  0.6973333  3
  13125  13121  13118  13130     1  0.0000000  1.0460000  1
  13125  13121  13118  13130     1  0.0000000  0.0000000  3
  13126  13123  13122  13128     1  0.0000000  0.6508444  3
  13135  13131  13137  13138     1  0.0000000  0.6973333  3
  13135  13131  13117  13139     1  0.0000000  1.0460000  1
  13135  13131  13117  13139     1  0.0000000  0.0000000  3
  13136  13131  13137  13138     1  0.0000000  0.6973333  3
  13136  13131  13117  13139     1  0.0000000  1.0460000  1
  13136  13131  13117  13139     1  0.0000000  0.0000000  3
  13140  13141  13144  13148     1  0.0000000  0.6508444  3
  13140  13141  13153  13156     1  0.0000000  1.0460000  1
  13140  13141  13153  13156     1  0.0000000  0.6694400  3
  13140  13154  13160  13161     1  0.0000000  1.0460000  1
  13140  13154  13160  13161     1  0.0000000  0.6694400  3
  13140  13162  13146  13149     1  0.0000000  1.6038667  3
  13141  13140  13154  13158     1  0.0000000  0.6508444  3
  13141  13140  13154  13159     1  0.0000000  0.6508444  3
  13141  13144  13145  13147     1  0.0000000  0.6508444  3
  13141  13144  13152  13155     1  0.0000000  1.0460000  1
  13141  13144  13152  13155     1  0.0000000  0.6694400  3
  13142  13140  13141  13144     1  0.0000000  0.6508444  3
  13142  13140  13141  13153     1  0.0000000  1.0460000  1
  13142  13140  13141  13153     1  0.0000000  0.0000000  3
  13142  13140  13141  13143     1  0.0000000  0.6508444  3
  13142  13140  13154  13160     1  0.0000000  1.0460000  1
  13142  13140  13154  13160     1  0.0000000  0.0000000  3
  13142  13140  13154  13158     1  0.0000000  0.6508444  3
  13142  13140  13154  13159     1  0.0000000  0.6508444  3
  13142  13140  13162  13146     1  0.0000000  1.6038667  3
  13143  13141  13140  13154     1  0.0000000  0.6508444  3
  13143  13141  13140  13162     1  0.0000000  1.0460000  1
  13143  13141  13140  13162     1  0.0000000  0.0000000  3
  13143  13141  13144  13145     1  0.0000000  0.6508444  3
  13143  13141  13144  13152     1  0.0000000  1.0460000  1
  13143  13141  13144  13152     1  0.0000000  0.0000000  3
  13143  13141  13144  13148     1  0.0000000  0.6508444  3
  13143  13141  13153  13156     1  0.0000000  0.6973333  3
  13144  13141  13153  13156     1  0.0000000  1.0460000  1
  13144  13141  13153  13156     1  0.0000000  0.6694400  3
  13144  13145  13146  13149     1  0.0000000  0.6508444  3
  13144  13145  13151  13157     1  0.0000000  1.0460000  1
  13144  13145  13151  13157     1  0.0000000  0.6694400  3
  13145  13144  13152  13155     1  0.0000000  1.0460000  1
  13145  13144  13152  13155     1  0.0000000  0.6694400  3
  13146  13145  13144  13148     1  0.0000000  0.6508444  3
  13146  13145  13151  13157     1  0.0000000  1.0460000  1
  13146  13145  13151  13157     1  0.0000000  0.6694400  3
  13147  13145  13144  13152     1  0.0000000  1.0460000  1
  13147  13145  13144  13152     1  0.0000000  0.0000000  3
  13147  13145  13144  13148     1  0.0000000  0.6508444  3
  13147  13145  13146  13150     1  0.0000000  1.0460000  1
  13147  13145  13146  13150     1  0.0000000  0.0000000  3
  13147  13145  13146  13162     1  0.0000000  1.0460000  1
  13147  13145  13146  13162     1  0.0000000  0.0000000  3
  13147  13145  13146  13149     1  0.0000000  0.6508444  3
  13147  13145  13151  13157     1  0.0000000  0.6973333  3
  13148  13144  13141  13153     1  0.0000000  1.0460000  1
  13148  13144  13141  13153     1  0.0000000  0.0000000  3
  13148  13144  13145  13151     1  0.0000000  1.0460000  1
  13148  13144  13145  13151     1  0.0000000  0.0000000  3
  13148  13144  13152  13155     1  0.0000000  0.6973333  3
  13149  13146  13145  13151     1  0.0000000  0.6508444  3
  13158  13154  13140  13162     1  0.0000000  1.0460000  1
  13158  13154  13140  13162     1  0.0000000  0.0000000  3
  13158  13154  13160  13161     1  0.0000000  0.6973333  3
  13159  13154  13140  13162     1  0.0000000  1.0460000  1
  13159  13154  13140  13162     1  0.0000000  0.0000000  3
  13159  13154  13160  13161     1  0.0000000  0.6973333  3
  13163  13164  13167  13171     1  0.0000000  0.6508444  3
  13163  13164  13176  13179     1  0.0000000  1.0460000  1
  13163  13164  13176  13179     1  0.0000000  0.6694400  3
  13163  13177  13183  13184     1  0.0000000  1.0460000  1
  13163  13177  13183  13184     1  0.0000000  0.6694400  3
  13163  13185  13169  13172     1  0.0000000  1.6038667  3
  13164  13167  13168  13170     1  0.0000000  0.6508444  3
  13164  13167  13175  13178     1  0.0000000  1.0460000  1
  13164  13167  13175  13178     1  0.0000000  0.6694400  3
  13164  13163  13177  13181     1  0.0000000  0.6508444  3
  13164  13163  13177  13182     1  0.0000000  0.6508444  3
  13165  13163  13164  13167     1  0.0000000  0.6508444  3
  13165  13163  13164  13176     1  0.0000000  1.0460000  1
  13165  13163  13164  13176     1  0.0000000  0.0000000  3
  13165  13163  13164  13166     1  0.0000000  0.6508444  3
  13165  13163  13177  13183     1  0.0000000  1.0460000  1
  13165  13163  13177  13183     1  0.0000000  0.0000000  3
  13165  13163  13177  13181     1  0.0000000  0.6508444  3
  13165  13163  13177  13182     1  0.0000000  0.6508444  3
  13165  13163  13185  13169     1  0.0000000  1.6038667  3
  13166  13164  13167  13168     1  0.0000000  0.6508444  3
  13166  13164  13167  13175     1  0.0000000  1.0460000  1
  13166  13164  13167  13175     1  0.0000000  0.0000000  3
  13166  13164  13167  13171     1  0.0000000  0.6508444  3
  13166  13164  13176  13179     1  0.0000000  0.6973333  3
  13166  13164  13163  13177     1  0.0000000  0.6508444  3
  13166  13164  13163  13185     1  0.0000000  1.0460000  1
  13166  13164  13163  13185     1  0.0000000  0.0000000  3
  13167  13168  13169  13172     1  0.0000000  0.6508444  3
  13167  13168  13174  13180     1  0.0000000  1.0460000  1
  13167  13168  13174  13180     1  0.0000000  0.6694400  3
  13167  13164  13176  13179     1  0.0000000  1.0460000  1
  13167  13164  13176  13179     1  0.0000000  0.6694400  3
  13168  13167  13175  13178     1  0.0000000  1.0460000  1
  13168  13167  13175  13178     1  0.0000000  0.6694400  3
  13169  13168  13174  13180     1  0.0000000  1.0460000  1
  13169  13168  13174  13180     1  0.0000000  0.6694400  3
  13169  13168  13167  13171     1  0.0000000  0.6508444  3
  13170  13168  13169  13173     1  0.0000000  1.0460000  1
  13170  13168  13169  13173     1  0.0000000  0.0000000  3
  13170  13168  13169  13185     1  0.0000000  1.0460000  1
  13170  13168  13169  13185     1  0.0000000  0.0000000  3
  13170  13168  13169  13172     1  0.0000000  0.6508444  3
  13170  13168  13174  13180     1  0.0000000  0.6973333  3
  13170  13168  13167  13175     1  0.0000000  1.0460000  1
  13170  13168  13167  13175     1  0.0000000  0.0000000  3
  13170  13168  13167  13171     1  0.0000000  0.6508444  3
  13171  13167  13168  13174     1  0.0000000  1.0460000  1
  13171  13167  13168  13174     1  0.0000000  0.0000000  3
  13171  13167  13175  13178     1  0.0000000  0.6973333  3
  13171  13167  13164  13176     1  0.0000000  1.0460000  1
  13171  13167  13164  13176     1  0.0000000  0.0000000  3
  13172  13169  13168  13174     1  0.0000000  0.6508444  3
  13181  13177  13183  13184     1  0.0000000  0.6973333  3
  13181  13177  13163  13185     1  0.0000000  1.0460000  1
  13181  13177  13163  13185     1  0.0000000  0.0000000  3
  13182  13177  13183  13184     1  0.0000000  0.6973333  3
  13182  13177  13163  13185     1  0.0000000  1.0460000  1
  13182  13177  13163  13185     1  0.0000000  0.0000000  3
  13186  13187  13190  13194     1  0.0000000  0.6508444  3
  13186  13187  13199  13202     1  0.0000000  1.0460000  1
  13186  13187  13199  13202     1  0.0000000  0.6694400  3
  13186  13200  13206  13207     1  0.0000000  1.0460000  1
  13186  13200  13206  13207     1  0.0000000  0.6694400  3
  13186  13208  13192  13195     1  0.0000000  1.6038667  3
  13187  13186  13200  13204     1  0.0000000  0.6508444  3
  13187  13186  13200  13205     1  0.0000000  0.6508444  3
  13187  13190  13191  13193     1  0.0000000  0.6508444  3
  13187  13190  13198  13201     1  0.0000000  1.0460000  1
  13187  13190  13198  13201     1  0.0000000  0.6694400  3
  13188  13186  13187  13190     1  0.0000000  0.6508444  3
  13188  13186  13187  13199     1  0.0000000  1.0460000  1
  13188  13186  13187  13199     1  0.0000000  0.0000000  3
  13188  13186  13187  13189     1  0.0000000  0.6508444  3
  13188  13186  13200  13206     1  0.0000000  1.0460000  1
  13188  13186  13200  13206     1  0.0000000  0.0000000  3
  13188  13186  13200  13204     1  0.0000000  0.6508444  3
  13188  13186  13200  13205     1  0.0000000  0.6508444  3
  13188  13186  13208  13192     1  0.0000000  1.6038667  3
  13189  13187  13186  13200     1  0.0000000  0.6508444  3
  13189  13187  13186  13208     1  0.0000000  1.0460000  1
  13189  13187  13186  13208     1  0.0000000  0.0000000  3
  13189  13187  13190  13191     1  0.0000000  0.6508444  3
  13189  13187  13190  13198     1  0.0000000  1.0460000  1
  13189  13187  13190  13198     1  0.0000000  0.0000000  3
  13189  13187  13190  13194     1  0.0000000  0.6508444  3
  13189  13187  13199  13202     1  0.0000000  0.6973333  3
  13190  13187  13199  13202     1  0.0000000  1.0460000  1
  13190  13187  13199  13202     1  0.0000000  0.6694400  3
  13190  13191  13192  13195     1  0.0000000  0.6508444  3
  13190  13191  13197  13203     1  0.0000000  1.0460000  1
  13190  13191  13197  13203     1  0.0000000  0.6694400  3
  13191  13190  13198  13201     1  0.0000000  1.0460000  1
  13191  13190  13198  13201     1  0.0000000  0.6694400  3
  13192  13191  13190  13194     1  0.0000000  0.6508444  3
  13192  13191  13197  13203     1  0.0000000  1.0460000  1
  13192  13191  13197  13203     1  0.0000000  0.6694400  3
  13193  13191  13190  13198     1  0.0000000  1.0460000  1
  13193  13191  13190  13198     1  0.0000000  0.0000000  3
  13193  13191  13190  13194     1  0.0000000  0.6508444  3
  13193  13191  13192  13196     1  0.0000000  1.0460000  1
  13193  13191  13192  13196     1  0.0000000  0.0000000  3
  13193  13191  13192  13208     1  0.0000000  1.0460000  1
  13193  13191  13192  13208     1  0.0000000  0.0000000  3
  13193  13191  13192  13195     1  0.0000000  0.6508444  3
  13193  13191  13197  13203     1  0.0000000  0.6973333  3
  13194  13190  13187  13199     1  0.0000000  1.0460000  1
  13194  13190  13187  13199     1  0.0000000  0.0000000  3
  13194  13190  13191  13197     1  0.0000000  1.0460000  1
  13194  13190  13191  13197     1  0.0000000  0.0000000  3
  13194  13190  13198  13201     1  0.0000000  0.6973333  3
  13195  13192  13191  13197     1  0.0000000  0.6508444  3
  13204  13200  13186  13208     1  0.0000000  1.0460000  1
  13204  13200  13186  13208     1  0.0000000  0.0000000  3
  13204  13200  13206  13207     1  0.0000000  0.6973333  3
  13205  13200  13186  13208     1  0.0000000  1.0460000  1
  13205  13200  13186  13208     1  0.0000000  0.0000000  3
  13205  13200  13206  13207     1  0.0000000  0.6973333  3
  13209  13210  13213  13217     1  0.0000000  0.6508444  3
  13209  13210  13222  13225     1  0.0000000  1.0460000  1
  13209  13210  13222  13225     1  0.0000000  0.6694400  3
  13209  13223  13229  13230     1  0.0000000  1.0460000  1
  13209  13223  13229  13230     1  0.0000000  0.6694400  3
  13209  13231  13215  13218     1  0.0000000  1.6038667  3
  13210  13213  13214  13216     1  0.0000000  0.6508444  3
  13210  13213  13221  13224     1  0.0000000  1.0460000  1
  13210  13213  13221  13224     1  0.0000000  0.6694400  3
  13210  13209  13223  13227     1  0.0000000  0.6508444  3
  13210  13209  13223  13228     1  0.0000000  0.6508444  3
  13211  13209  13210  13213     1  0.0000000  0.6508444  3
  13211  13209  13210  13222     1  0.0000000  1.0460000  1
  13211  13209  13210  13222     1  0.0000000  0.0000000  3
  13211  13209  13210  13212     1  0.0000000  0.6508444  3
  13211  13209  13223  13229     1  0.0000000  1.0460000  1
  13211  13209  13223  13229     1  0.0000000  0.0000000  3
  13211  13209  13223  13227     1  0.0000000  0.6508444  3
  13211  13209  13223  13228     1  0.0000000  0.6508444  3
  13211  13209  13231  13215     1  0.0000000  1.6038667  3
  13212  13210  13213  13214     1  0.0000000  0.6508444  3
  13212  13210  13213  13221     1  0.0000000  1.0460000  1
  13212  13210  13213  13221     1  0.0000000  0.0000000  3
  13212  13210  13213  13217     1  0.0000000  0.6508444  3
  13212  13210  13222  13225     1  0.0000000  0.6973333  3
  13212  13210  13209  13223     1  0.0000000  0.6508444  3
  13212  13210  13209  13231     1  0.0000000  1.0460000  1
  13212  13210  13209  13231     1  0.0000000  0.0000000  3
  13213  13214  13215  13218     1  0.0000000  0.6508444  3
  13213  13214  13220  13226     1  0.0000000  1.0460000  1
  13213  13214  13220  13226     1  0.0000000  0.6694400  3
  13213  13210  13222  13225     1  0.0000000  1.0460000  1
  13213  13210  13222  13225     1  0.0000000  0.6694400  3
  13214  13213  13221  13224     1  0.0000000  1.0460000  1
  13214  13213  13221  13224     1  0.0000000  0.6694400  3
  13215  13214  13220  13226     1  0.0000000  1.0460000  1
  13215  13214  13220  13226     1  0.0000000  0.6694400  3
  13215  13214  13213  13217     1  0.0000000  0.6508444  3
  13216  13214  13215  13219     1  0.0000000  1.0460000  1
  13216  13214  13215  13219     1  0.0000000  0.0000000  3
  13216  13214  13215  13231     1  0.0000000  1.0460000  1
  13216  13214  13215  13231     1  0.0000000  0.0000000  3
  13216  13214  13215  13218     1  0.0000000  0.6508444  3
  13216  13214  13220  13226     1  0.0000000  0.6973333  3
  13216  13214  13213  13221     1  0.0000000  1.0460000  1
  13216  13214  13213  13221     1  0.0000000  0.0000000  3
  13216  13214  13213  13217     1  0.0000000  0.6508444  3
  13217  13213  13214  13220     1  0.0000000  1.0460000  1
  13217  13213  13214  13220     1  0.0000000  0.0000000  3
  13217  13213  13221  13224     1  0.0000000  0.6973333  3
  13217  13213  13210  13222     1  0.0000000  1.0460000  1
  13217  13213  13210  13222     1  0.0000000  0.0000000  3
  13218  13215  13214  13220     1  0.0000000  0.6508444  3
  13227  13223  13229  13230     1  0.0000000  0.6973333  3
  13227  13223  13209  13231     1  0.0000000  1.0460000  1
  13227  13223  13209  13231     1  0.0000000  0.0000000  3
  13228  13223  13229  13230     1  0.0000000  0.6973333  3
  13228  13223  13209  13231     1  0.0000000  1.0460000  1
  13228  13223  13209  13231     1  0.0000000  0.0000000  3
  13232  13233  13236  13240     1  0.0000000  0.6508444  3
  13232  13233  13245  13248     1  0.0000000  1.0460000  1
  13232  13233  13245  13248     1  0.0000000  0.6694400  3
  13232  13246  13252  13253     1  0.0000000  1.0460000  1
  13232  13246  13252  13253     1  0.0000000  0.6694400  3
  13232  13254  13238  13241     1  0.0000000  1.6038667  3
  13233  13232  13246  13250     1  0.0000000  0.6508444  3
  13233  13232  13246  13251     1  0.0000000  0.6508444  3
  13233  13236  13237  13239     1  0.0000000  0.6508444  3
  13233  13236  13244  13247     1  0.0000000  1.0460000  1
  13233  13236  13244  13247     1  0.0000000  0.6694400  3
  13234  13232  13233  13236     1  0.0000000  0.6508444  3
  13234  13232  13233  13245     1  0.0000000  1.0460000  1
  13234  13232  13233  13245     1  0.0000000  0.0000000  3
  13234  13232  13233  13235     1  0.0000000  0.6508444  3
  13234  13232  13246  13252     1  0.0000000  1.0460000  1
  13234  13232  13246  13252     1  0.0000000  0.0000000  3
  13234  13232  13246  13250     1  0.0000000  0.6508444  3
  13234  13232  13246  13251     1  0.0000000  0.6508444  3
  13234  13232  13254  13238     1  0.0000000  1.6038667  3
  13235  13233  13232  13246     1  0.0000000  0.6508444  3
  13235  13233  13232  13254     1  0.0000000  1.0460000  1
  13235  13233  13232  13254     1  0.0000000  0.0000000  3
  13235  13233  13236  13237     1  0.0000000  0.6508444  3
  13235  13233  13236  13244     1  0.0000000  1.0460000  1
  13235  13233  13236  13244     1  0.0000000  0.0000000  3
  13235  13233  13236  13240     1  0.0000000  0.6508444  3
  13235  13233  13245  13248     1  0.0000000  0.6973333  3
  13236  13233  13245  13248     1  0.0000000  1.0460000  1
  13236  13233  13245  13248     1  0.0000000  0.6694400  3
  13236  13237  13238  13241     1  0.0000000  0.6508444  3
  13236  13237  13243  13249     1  0.0000000  1.0460000  1
  13236  13237  13243  13249     1  0.0000000  0.6694400  3
  13237  13236  13244  13247     1  0.0000000  1.0460000  1
  13237  13236  13244  13247     1  0.0000000  0.6694400  3
  13238  13237  13236  13240     1  0.0000000  0.6508444  3
  13238  13237  13243  13249     1  0.0000000  1.0460000  1
  13238  13237  13243  13249     1  0.0000000  0.6694400  3
  13239  13237  13236  13244     1  0.0000000  1.0460000  1
  13239  13237  13236  13244     1  0.0000000  0.0000000  3
  13239  13237  13236  13240     1  0.0000000  0.6508444  3
  13239  13237  13238  13242     1  0.0000000  1.0460000  1
  13239  13237  13238  13242     1  0.0000000  0.0000000  3
  13239  13237  13238  13254     1  0.0000000  1.0460000  1
  13239  13237  13238  13254     1  0.0000000  0.0000000  3
  13239  13237  13238  13241     1  0.0000000  0.6508444  3
  13239  13237  13243  13249     1  0.0000000  0.6973333  3
  13240  13236  13233  13245     1  0.0000000  1.0460000  1
  13240  13236  13233  13245     1  0.0000000  0.0000000  3
  13240  13236  13237  13243     1  0.0000000  1.0460000  1
  13240  13236  13237  13243     1  0.0000000  0.0000000  3
  13240  13236  13244  13247     1  0.0000000  0.6973333  3
  13241  13238  13237  13243     1  0.0000000  0.6508444  3
  13250  13246  13232  13254     1  0.0000000  1.0460000  1
  13250  13246  13232  13254     1  0.0000000  0.0000000  3
  13250  13246  13252  13253     1  0.0000000  0.6973333  3
  13251  13246  13232  13254     1  0.0000000  1.0460000  1
  13251  13246  13232  13254     1  0.0000000  0.0000000  3
  13251  13246  13252  13253     1  0.0000000  0.6973333  3
  13255  13256  13259  13263     1  0.0000000  0.6508444  3
  13255  13256  13268  13271     1  0.0000000  1.0460000  1
  13255  13256  13268  13271     1  0.0000000  0.6694400  3
  13255  13269  13275  13276     1  0.0000000  1.0460000  1
  13255  13269  13275  13276     1  0.0000000  0.6694400  3
  13255  13277  13261  13264     1  0.0000000  1.6038667  3
  13256  13259  13260  13262     1  0.0000000  0.6508444  3
  13256  13259  13267  13270     1  0.0000000  1.0460000  1
  13256  13259  13267  13270     1  0.0000000  0.6694400  3
  13256  13255  13269  13273     1  0.0000000  0.6508444  3
  13256  13255  13269  13274     1  0.0000000  0.6508444  3
  13257  13255  13256  13259     1  0.0000000  0.6508444  3
  13257  13255  13256  13268     1  0.0000000  1.0460000  1
  13257  13255  13256  13268     1  0.0000000  0.0000000  3
  13257  13255  13256  13258     1  0.0000000  0.6508444  3
  13257  13255  13269  13275     1  0.0000000  1.0460000  1
  13257  13255  13269  13275     1  0.0000000  0.0000000  3
  13257  13255  13269  13273     1  0.0000000  0.6508444  3
  13257  13255  13269  13274     1  0.0000000  0.6508444  3
  13257  13255  13277  13261     1  0.0000000  1.6038667  3
  13258  13256  13259  13260     1  0.0000000  0.6508444  3
  13258  13256  13259  13267     1  0.0000000  1.0460000  1
  13258  13256  13259  13267     1  0.0000000  0.0000000  3
  13258  13256  13259  13263     1  0.0000000  0.6508444  3
  13258  13256  13268  13271     1  0.0000000  0.6973333  3
  13258  13256  13255  13269     1  0.0000000  0.6508444  3
  13258  13256  13255  13277     1  0.0000000  1.0460000  1
  13258  13256  13255  13277     1  0.0000000  0.0000000  3
  13259  13260  13261  13264     1  0.0000000  0.6508444  3
  13259  13260  13266  13272     1  0.0000000  1.0460000  1
  13259  13260  13266  13272     1  0.0000000  0.6694400  3
  13259  13256  13268  13271     1  0.0000000  1.0460000  1
  13259  13256  13268  13271     1  0.0000000  0.6694400  3
  13260  13259  13267  13270     1  0.0000000  1.0460000  1
  13260  13259  13267  13270     1  0.0000000  0.6694400  3
  13261  13260  13266  13272     1  0.0000000  1.0460000  1
  13261  13260  13266  13272     1  0.0000000  0.6694400  3
  13261  13260  13259  13263     1  0.0000000  0.6508444  3
  13262  13260  13261  13265     1  0.0000000  1.0460000  1
  13262  13260  13261  13265     1  0.0000000  0.0000000  3
  13262  13260  13261  13277     1  0.0000000  1.0460000  1
  13262  13260  13261  13277     1  0.0000000  0.0000000  3
  13262  13260  13261  13264     1  0.0000000  0.6508444  3
  13262  13260  13266  13272     1  0.0000000  0.6973333  3
  13262  13260  13259  13267     1  0.0000000  1.0460000  1
  13262  13260  13259  13267     1  0.0000000  0.0000000  3
  13262  13260  13259  13263     1  0.0000000  0.6508444  3
  13263  13259  13260  13266     1  0.0000000  1.0460000  1
  13263  13259  13260  13266     1  0.0000000  0.0000000  3
  13263  13259  13267  13270     1  0.0000000  0.6973333  3
  13263  13259  13256  13268     1  0.0000000  1.0460000  1
  13263  13259  13256  13268     1  0.0000000  0.0000000  3
  13264  13261  13260  13266     1  0.0000000  0.6508444  3
  13273  13269  13275  13276     1  0.0000000  0.6973333  3
  13273  13269  13255  13277     1  0.0000000  1.0460000  1
  13273  13269  13255  13277     1  0.0000000  0.0000000  3
  13274  13269  13275  13276     1  0.0000000  0.6973333  3
  13274  13269  13255  13277     1  0.0000000  1.0460000  1
  13274  13269  13255  13277     1  0.0000000  0.0000000  3
  13278  13279  13282  13286     1  0.0000000  0.6508444  3
  13278  13279  13291  13294     1  0.0000000  1.0460000  1
  13278  13279  13291  13294     1  0.0000000  0.6694400  3
  13278  13292  13298  13299     1  0.0000000  1.0460000  1
  13278  13292  13298  13299     1  0.0000000  0.6694400  3
  13278  13300  13284  13287     1  0.0000000  1.6038667  3
  13279  13278  13292  13296     1  0.0000000  0.6508444  3
  13279  13278  13292  13297     1  0.0000000  0.6508444  3
  13279  13282  13283  13285     1  0.0000000  0.6508444  3
  13279  13282  13290  13293     1  0.0000000  1.0460000  1
  13279  13282  13290  13293     1  0.0000000  0.6694400  3
  13280  13278  13279  13282     1  0.0000000  0.6508444  3
  13280  13278  13279  13291     1  0.0000000  1.0460000  1
  13280  13278  13279  13291     1  0.0000000  0.0000000  3
  13280  13278  13279  13281     1  0.0000000  0.6508444  3
  13280  13278  13292  13298     1  0.0000000  1.0460000  1
  13280  13278  13292  13298     1  0.0000000  0.0000000  3
  13280  13278  13292  13296     1  0.0000000  0.6508444  3
  13280  13278  13292  13297     1  0.0000000  0.6508444  3
  13280  13278  13300  13284     1  0.0000000  1.6038667  3
  13281  13279  13278  13292     1  0.0000000  0.6508444  3
  13281  13279  13278  13300     1  0.0000000  1.0460000  1
  13281  13279  13278  13300     1  0.0000000  0.0000000  3
  13281  13279  13282  13283     1  0.0000000  0.6508444  3
  13281  13279  13282  13290     1  0.0000000  1.0460000  1
  13281  13279  13282  13290     1  0.0000000  0.0000000  3
  13281  13279  13282  13286     1  0.0000000  0.6508444  3
  13281  13279  13291  13294     1  0.0000000  0.6973333  3
  13282  13279  13291  13294     1  0.0000000  1.0460000  1
  13282  13279  13291  13294     1  0.0000000  0.6694400  3
  13282  13283  13284  13287     1  0.0000000  0.6508444  3
  13282  13283  13289  13295     1  0.0000000  1.0460000  1
  13282  13283  13289  13295     1  0.0000000  0.6694400  3
  13283  13282  13290  13293     1  0.0000000  1.0460000  1
  13283  13282  13290  13293     1  0.0000000  0.6694400  3
  13284  13283  13282  13286     1  0.0000000  0.6508444  3
  13284  13283  13289  13295     1  0.0000000  1.0460000  1
  13284  13283  13289  13295     1  0.0000000  0.6694400  3
  13285  13283  13282  13290     1  0.0000000  1.0460000  1
  13285  13283  13282  13290     1  0.0000000  0.0000000  3
  13285  13283  13282  13286     1  0.0000000  0.6508444  3
  13285  13283  13284  13288     1  0.0000000  1.0460000  1
  13285  13283  13284  13288     1  0.0000000  0.0000000  3
  13285  13283  13284  13300     1  0.0000000  1.0460000  1
  13285  13283  13284  13300     1  0.0000000  0.0000000  3
  13285  13283  13284  13287     1  0.0000000  0.6508444  3
  13285  13283  13289  13295     1  0.0000000  0.6973333  3
  13286  13282  13279  13291     1  0.0000000  1.0460000  1
  13286  13282  13279  13291     1  0.0000000  0.0000000  3
  13286  13282  13283  13289     1  0.0000000  1.0460000  1
  13286  13282  13283  13289     1  0.0000000  0.0000000  3
  13286  13282  13290  13293     1  0.0000000  0.6973333  3
  13287  13284  13283  13289     1  0.0000000  0.6508444  3
  13296  13292  13278  13300     1  0.0000000  1.0460000  1
  13296  13292  13278  13300     1  0.0000000  0.0000000  3
  13296  13292  13298  13299     1  0.0000000  0.6973333  3
  13297  13292  13278  13300     1  0.0000000  1.0460000  1
  13297  13292  13278  13300     1  0.0000000  0.0000000  3
  13297  13292  13298  13299     1  0.0000000  0.6973333  3
  13301  13302  13305  13309     1  0.0000000  0.6508444  3
  13301  13302  13314  13317     1  0.0000000  1.0460000  1
  13301  13302  13314  13317     1  0.0000000  0.6694400  3
  13301  13315  13321  13322     1  0.0000000  1.0460000  1
  13301  13315  13321  13322     1  0.0000000  0.6694400  3
  13301  13323  13307  13310     1  0.0000000  1.6038667  3
  13302  13305  13306  13308     1  0.0000000  0.6508444  3
  13302  13305  13313  13316     1  0.0000000  1.0460000  1
  13302  13305  13313  13316     1  0.0000000  0.6694400  3
  13302  13301  13315  13319     1  0.0000000  0.6508444  3
  13302  13301  13315  13320     1  0.0000000  0.6508444  3
  13303  13301  13302  13305     1  0.0000000  0.6508444  3
  13303  13301  13302  13314     1  0.0000000  1.0460000  1
  13303  13301  13302  13314     1  0.0000000  0.0000000  3
  13303  13301  13302  13304     1  0.0000000  0.6508444  3
  13303  13301  13315  13321     1  0.0000000  1.0460000  1
  13303  13301  13315  13321     1  0.0000000  0.0000000  3
  13303  13301  13315  13319     1  0.0000000  0.6508444  3
  13303  13301  13315  13320     1  0.0000000  0.6508444  3
  13303  13301  13323  13307     1  0.0000000  1.6038667  3
  13304  13302  13305  13306     1  0.0000000  0.6508444  3
  13304  13302  13305  13313     1  0.0000000  1.0460000  1
  13304  13302  13305  13313     1  0.0000000  0.0000000  3
  13304  13302  13305  13309     1  0.0000000  0.6508444  3
  13304  13302  13314  13317     1  0.0000000  0.6973333  3
  13304  13302  13301  13315     1  0.0000000  0.6508444  3
  13304  13302  13301  13323     1  0.0000000  1.0460000  1
  13304  13302  13301  13323     1  0.0000000  0.0000000  3
  13305  13306  13307  13310     1  0.0000000  0.6508444  3
  13305  13306  13312  13318     1  0.0000000  1.0460000  1
  13305  13306  13312  13318     1  0.0000000  0.6694400  3
  13305  13302  13314  13317     1  0.0000000  1.0460000  1
  13305  13302  13314  13317     1  0.0000000  0.6694400  3
  13306  13305  13313  13316     1  0.0000000  1.0460000  1
  13306  13305  13313  13316     1  0.0000000  0.6694400  3
  13307  13306  13312  13318     1  0.0000000  1.0460000  1
  13307  13306  13312  13318     1  0.0000000  0.6694400  3
  13307  13306  13305  13309     1  0.0000000  0.6508444  3
  13308  13306  13307  13311     1  0.0000000  1.0460000  1
  13308  13306  13307  13311     1  0.0000000  0.0000000  3
  13308  13306  13307  13323     1  0.0000000  1.0460000  1
  13308  13306  13307  13323     1  0.0000000  0.0000000  3
  13308  13306  13307  13310     1  0.0000000  0.6508444  3
  13308  13306  13312  13318     1  0.0000000  0.6973333  3
  13308  13306  13305  13313     1  0.0000000  1.0460000  1
  13308  13306  13305  13313     1  0.0000000  0.0000000  3
  13308  13306  13305  13309     1  0.0000000  0.6508444  3
  13309  13305  13306  13312     1  0.0000000  1.0460000  1
  13309  13305  13306  13312     1  0.0000000  0.0000000  3
  13309  13305  13313  13316     1  0.0000000  0.6973333  3
  13309  13305  13302  13314     1  0.0000000  1.0460000  1
  13309  13305  13302  13314     1  0.0000000  0.0000000  3
  13310  13307  13306  13312     1  0.0000000  0.6508444  3
  13319  13315  13321  13322     1  0.0000000  0.6973333  3
  13319  13315  13301  13323     1  0.0000000  1.0460000  1
  13319  13315  13301  13323     1  0.0000000  0.0000000  3
  13320  13315  13321  13322     1  0.0000000  0.6973333  3
  13320  13315  13301  13323     1  0.0000000  1.0460000  1
  13320  13315  13301  13323     1  0.0000000  0.0000000  3
  13324  13325  13328  13332     1  0.0000000  0.6508444  3
  13324  13325  13337  13340     1  0.0000000  1.0460000  1
  13324  13325  13337  13340     1  0.0000000  0.6694400  3
  13324  13338  13344  13345     1  0.0000000  1.0460000  1
  13324  13338  13344  13345     1  0.0000000  0.6694400  3
  13324  13346  13330  13333     1  0.0000000  1.6038667  3
  13325  13324  13338  13342     1  0.0000000  0.6508444  3
  13325  13324  13338  13343     1  0.0000000  0.6508444  3
  13325  13328  13329  13331     1  0.0000000  0.6508444  3
  13325  13328  13336  13339     1  0.0000000  1.0460000  1
  13325  13328  13336  13339     1  0.0000000  0.6694400  3
  13326  13324  13325  13328     1  0.0000000  0.6508444  3
  13326  13324  13325  13337     1  0.0000000  1.0460000  1
  13326  13324  13325  13337     1  0.0000000  0.0000000  3
  13326  13324  13325  13327     1  0.0000000  0.6508444  3
  13326  13324  13338  13344     1  0.0000000  1.0460000  1
  13326  13324  13338  13344     1  0.0000000  0.0000000  3
  13326  13324  13338  13342     1  0.0000000  0.6508444  3
  13326  13324  13338  13343     1  0.0000000  0.6508444  3
  13326  13324  13346  13330     1  0.0000000  1.6038667  3
  13327  13325  13324  13338     1  0.0000000  0.6508444  3
  13327  13325  13324  13346     1  0.0000000  1.0460000  1
  13327  13325  13324  13346     1  0.0000000  0.0000000  3
  13327  13325  13328  13329     1  0.0000000  0.6508444  3
  13327  13325  13328  13336     1  0.0000000  1.0460000  1
  13327  13325  13328  13336     1  0.0000000  0.0000000  3
  13327  13325  13328  13332     1  0.0000000  0.6508444  3
  13327  13325  13337  13340     1  0.0000000  0.6973333  3
  13328  13325  13337  13340     1  0.0000000  1.0460000  1
  13328  13325  13337  13340     1  0.0000000  0.6694400  3
  13328  13329  13330  13333     1  0.0000000  0.6508444  3
  13328  13329  13335  13341     1  0.0000000  1.0460000  1
  13328  13329  13335  13341     1  0.0000000  0.6694400  3
  13329  13328  13336  13339     1  0.0000000  1.0460000  1
  13329  13328  13336  13339     1  0.0000000  0.6694400  3
  13330  13329  13328  13332     1  0.0000000  0.6508444  3
  13330  13329  13335  13341     1  0.0000000  1.0460000  1
  13330  13329  13335  13341     1  0.0000000  0.6694400  3
  13331  13329  13328  13336     1  0.0000000  1.0460000  1
  13331  13329  13328  13336     1  0.0000000  0.0000000  3
  13331  13329  13328  13332     1  0.0000000  0.6508444  3
  13331  13329  13330  13334     1  0.0000000  1.0460000  1
  13331  13329  13330  13334     1  0.0000000  0.0000000  3
  13331  13329  13330  13346     1  0.0000000  1.0460000  1
  13331  13329  13330  13346     1  0.0000000  0.0000000  3
  13331  13329  13330  13333     1  0.0000000  0.6508444  3
  13331  13329  13335  13341     1  0.0000000  0.6973333  3
  13332  13328  13325  13337     1  0.0000000  1.0460000  1
  13332  13328  13325  13337     1  0.0000000  0.0000000  3
  13332  13328  13329  13335     1  0.0000000  1.0460000  1
  13332  13328  13329  13335     1  0.0000000  0.0000000  3
  13332  13328  13336  13339     1  0.0000000  0.6973333  3
  13333  13330  13329  13335     1  0.0000000  0.6508444  3
  13342  13338  13324  13346     1  0.0000000  1.0460000  1
  13342  13338  13324  13346     1  0.0000000  0.0000000  3
  13342  13338  13344  13345     1  0.0000000  0.6973333  3
  13343  13338  13324  13346     1  0.0000000  1.0460000  1
  13343  13338  13324  13346     1  0.0000000  0.0000000  3
  13343  13338  13344  13345     1  0.0000000  0.6973333  3
  13347  13348  13351  13355     1  0.0000000  0.6508444  3
  13347  13348  13360  13363     1  0.0000000  1.0460000  1
  13347  13348  13360  13363     1  0.0000000  0.6694400  3
  13347  13361  13367  13368     1  0.0000000  1.0460000  1
  13347  13361  13367  13368     1  0.0000000  0.6694400  3
  13347  13369  13353  13356     1  0.0000000  1.6038667  3
  13348  13351  13352  13354     1  0.0000000  0.6508444  3
  13348  13351  13359  13362     1  0.0000000  1.0460000  1
  13348  13351  13359  13362     1  0.0000000  0.6694400  3
  13348  13347  13361  13365     1  0.0000000  0.6508444  3
  13348  13347  13361  13366     1  0.0000000  0.6508444  3
  13349  13347  13348  13351     1  0.0000000  0.6508444  3
  13349  13347  13348  13360     1  0.0000000  1.0460000  1
  13349  13347  13348  13360     1  0.0000000  0.0000000  3
  13349  13347  13348  13350     1  0.0000000  0.6508444  3
  13349  13347  13361  13367     1  0.0000000  1.0460000  1
  13349  13347  13361  13367     1  0.0000000  0.0000000  3
  13349  13347  13361  13365     1  0.0000000  0.6508444  3
  13349  13347  13361  13366     1  0.0000000  0.6508444  3
  13349  13347  13369  13353     1  0.0000000  1.6038667  3
  13350  13348  13351  13352     1  0.0000000  0.6508444  3
  13350  13348  13351  13359     1  0.0000000  1.0460000  1
  13350  13348  13351  13359     1  0.0000000  0.0000000  3
  13350  13348  13351  13355     1  0.0000000  0.6508444  3
  13350  13348  13360  13363     1  0.0000000  0.6973333  3
  13350  13348  13347  13361     1  0.0000000  0.6508444  3
  13350  13348  13347  13369     1  0.0000000  1.0460000  1
  13350  13348  13347  13369     1  0.0000000  0.0000000  3
  13351  13352  13353  13356     1  0.0000000  0.6508444  3
  13351  13352  13358  13364     1  0.0000000  1.0460000  1
  13351  13352  13358  13364     1  0.0000000  0.6694400  3
  13351  13348  13360  13363     1  0.0000000  1.0460000  1
  13351  13348  13360  13363     1  0.0000000  0.6694400  3
  13352  13351  13359  13362     1  0.0000000  1.0460000  1
  13352  13351  13359  13362     1  0.0000000  0.6694400  3
  13353  13352  13358  13364     1  0.0000000  1.0460000  1
  13353  13352  13358  13364     1  0.0000000  0.6694400  3
  13353  13352  13351  13355     1  0.0000000  0.6508444  3
  13354  13352  13353  13357     1  0.0000000  1.0460000  1
  13354  13352  13353  13357     1  0.0000000  0.0000000  3
  13354  13352  13353  13369     1  0.0000000  1.0460000  1
  13354  13352  13353  13369     1  0.0000000  0.0000000  3
  13354  13352  13353  13356     1  0.0000000  0.6508444  3
  13354  13352  13358  13364     1  0.0000000  0.6973333  3
  13354  13352  13351  13359     1  0.0000000  1.0460000  1
  13354  13352  13351  13359     1  0.0000000  0.0000000  3
  13354  13352  13351  13355     1  0.0000000  0.6508444  3
  13355  13351  13352  13358     1  0.0000000  1.0460000  1
  13355  13351  13352  13358     1  0.0000000  0.0000000  3
  13355  13351  13359  13362     1  0.0000000  0.6973333  3
  13355  13351  13348  13360     1  0.0000000  1.0460000  1
  13355  13351  13348  13360     1  0.0000000  0.0000000  3
  13356  13353  13352  13358     1  0.0000000  0.6508444  3
  13365  13361  13367  13368     1  0.0000000  0.6973333  3
  13365  13361  13347  13369     1  0.0000000  1.0460000  1
  13365  13361  13347  13369     1  0.0000000  0.0000000  3
  13366  13361  13367  13368     1  0.0000000  0.6973333  3
  13366  13361  13347  13369     1  0.0000000  1.0460000  1
  13366  13361  13347  13369     1  0.0000000  0.0000000  3
  13370  13371  13374  13378     1  0.0000000  0.6508444  3
  13370  13371  13383  13386     1  0.0000000  1.0460000  1
  13370  13371  13383  13386     1  0.0000000  0.6694400  3
  13370  13384  13390  13391     1  0.0000000  1.0460000  1
  13370  13384  13390  13391     1  0.0000000  0.6694400  3
  13370  13392  13376  13379     1  0.0000000  1.6038667  3
  13371  13370  13384  13388     1  0.0000000  0.6508444  3
  13371  13370  13384  13389     1  0.0000000  0.6508444  3
  13371  13374  13375  13377     1  0.0000000  0.6508444  3
  13371  13374  13382  13385     1  0.0000000  1.0460000  1
  13371  13374  13382  13385     1  0.0000000  0.6694400  3
  13372  13370  13371  13374     1  0.0000000  0.6508444  3
  13372  13370  13371  13383     1  0.0000000  1.0460000  1
  13372  13370  13371  13383     1  0.0000000  0.0000000  3
  13372  13370  13371  13373     1  0.0000000  0.6508444  3
  13372  13370  13384  13390     1  0.0000000  1.0460000  1
  13372  13370  13384  13390     1  0.0000000  0.0000000  3
  13372  13370  13384  13388     1  0.0000000  0.6508444  3
  13372  13370  13384  13389     1  0.0000000  0.6508444  3
  13372  13370  13392  13376     1  0.0000000  1.6038667  3
  13373  13371  13370  13384     1  0.0000000  0.6508444  3
  13373  13371  13370  13392     1  0.0000000  1.0460000  1
  13373  13371  13370  13392     1  0.0000000  0.0000000  3
  13373  13371  13374  13375     1  0.0000000  0.6508444  3
  13373  13371  13374  13382     1  0.0000000  1.0460000  1
  13373  13371  13374  13382     1  0.0000000  0.0000000  3
  13373  13371  13374  13378     1  0.0000000  0.6508444  3
  13373  13371  13383  13386     1  0.0000000  0.6973333  3
  13374  13371  13383  13386     1  0.0000000  1.0460000  1
  13374  13371  13383  13386     1  0.0000000  0.6694400  3
  13374  13375  13376  13379     1  0.0000000  0.6508444  3
  13374  13375  13381  13387     1  0.0000000  1.0460000  1
  13374  13375  13381  13387     1  0.0000000  0.6694400  3
  13375  13374  13382  13385     1  0.0000000  1.0460000  1
  13375  13374  13382  13385     1  0.0000000  0.6694400  3
  13376  13375  13374  13378     1  0.0000000  0.6508444  3
  13376  13375  13381  13387     1  0.0000000  1.0460000  1
  13376  13375  13381  13387     1  0.0000000  0.6694400  3
  13377  13375  13374  13382     1  0.0000000  1.0460000  1
  13377  13375  13374  13382     1  0.0000000  0.0000000  3
  13377  13375  13374  13378     1  0.0000000  0.6508444  3
  13377  13375  13376  13380     1  0.0000000  1.0460000  1
  13377  13375  13376  13380     1  0.0000000  0.0000000  3
  13377  13375  13376  13392     1  0.0000000  1.0460000  1
  13377  13375  13376  13392     1  0.0000000  0.0000000  3
  13377  13375  13376  13379     1  0.0000000  0.6508444  3
  13377  13375  13381  13387     1  0.0000000  0.6973333  3
  13378  13374  13371  13383     1  0.0000000  1.0460000  1
  13378  13374  13371  13383     1  0.0000000  0.0000000  3
  13378  13374  13375  13381     1  0.0000000  1.0460000  1
  13378  13374  13375  13381     1  0.0000000  0.0000000  3
  13378  13374  13382  13385     1  0.0000000  0.6973333  3
  13379  13376  13375  13381     1  0.0000000  0.6508444  3
  13388  13384  13370  13392     1  0.0000000  1.0460000  1
  13388  13384  13370  13392     1  0.0000000  0.0000000  3
  13388  13384  13390  13391     1  0.0000000  0.6973333  3
  13389  13384  13370  13392     1  0.0000000  1.0460000  1
  13389  13384  13370  13392     1  0.0000000  0.0000000  3
  13389  13384  13390  13391     1  0.0000000  0.6973333  3
  13393  13394  13397  13401     1  0.0000000  0.6508444  3
  13393  13394  13406  13409     1  0.0000000  1.0460000  1
  13393  13394  13406  13409     1  0.0000000  0.6694400  3
  13393  13407  13413  13414     1  0.0000000  1.0460000  1
  13393  13407  13413  13414     1  0.0000000  0.6694400  3
  13393  13415  13399  13402     1  0.0000000  1.6038667  3
  13394  13397  13398  13400     1  0.0000000  0.6508444  3
  13394  13397  13405  13408     1  0.0000000  1.0460000  1
  13394  13397  13405  13408     1  0.0000000  0.6694400  3
  13394  13393  13407  13411     1  0.0000000  0.6508444  3
  13394  13393  13407  13412     1  0.0000000  0.6508444  3
  13395  13393  13394  13397     1  0.0000000  0.6508444  3
  13395  13393  13394  13406     1  0.0000000  1.0460000  1
  13395  13393  13394  13406     1  0.0000000  0.0000000  3
  13395  13393  13394  13396     1  0.0000000  0.6508444  3
  13395  13393  13407  13413     1  0.0000000  1.0460000  1
  13395  13393  13407  13413     1  0.0000000  0.0000000  3
  13395  13393  13407  13411     1  0.0000000  0.6508444  3
  13395  13393  13407  13412     1  0.0000000  0.6508444  3
  13395  13393  13415  13399     1  0.0000000  1.6038667  3
  13396  13394  13397  13398     1  0.0000000  0.6508444  3
  13396  13394  13397  13405     1  0.0000000  1.0460000  1
  13396  13394  13397  13405     1  0.0000000  0.0000000  3
  13396  13394  13397  13401     1  0.0000000  0.6508444  3
  13396  13394  13406  13409     1  0.0000000  0.6973333  3
  13396  13394  13393  13407     1  0.0000000  0.6508444  3
  13396  13394  13393  13415     1  0.0000000  1.0460000  1
  13396  13394  13393  13415     1  0.0000000  0.0000000  3
  13397  13398  13399  13402     1  0.0000000  0.6508444  3
  13397  13398  13404  13410     1  0.0000000  1.0460000  1
  13397  13398  13404  13410     1  0.0000000  0.6694400  3
  13397  13394  13406  13409     1  0.0000000  1.0460000  1
  13397  13394  13406  13409     1  0.0000000  0.6694400  3
  13398  13397  13405  13408     1  0.0000000  1.0460000  1
  13398  13397  13405  13408     1  0.0000000  0.6694400  3
  13399  13398  13404  13410     1  0.0000000  1.0460000  1
  13399  13398  13404  13410     1  0.0000000  0.6694400  3
  13399  13398  13397  13401     1  0.0000000  0.6508444  3
  13400  13398  13399  13403     1  0.0000000  1.0460000  1
  13400  13398  13399  13403     1  0.0000000  0.0000000  3
  13400  13398  13399  13415     1  0.0000000  1.0460000  1
  13400  13398  13399  13415     1  0.0000000  0.0000000  3
  13400  13398  13399  13402     1  0.0000000  0.6508444  3
  13400  13398  13404  13410     1  0.0000000  0.6973333  3
  13400  13398  13397  13405     1  0.0000000  1.0460000  1
  13400  13398  13397  13405     1  0.0000000  0.0000000  3
  13400  13398  13397  13401     1  0.0000000  0.6508444  3
  13401  13397  13398  13404     1  0.0000000  1.0460000  1
  13401  13397  13398  13404     1  0.0000000  0.0000000  3
  13401  13397  13405  13408     1  0.0000000  0.6973333  3
  13401  13397  13394  13406     1  0.0000000  1.0460000  1
  13401  13397  13394  13406     1  0.0000000  0.0000000  3
  13402  13399  13398  13404     1  0.0000000  0.6508444  3
  13411  13407  13413  13414     1  0.0000000  0.6973333  3
  13411  13407  13393  13415     1  0.0000000  1.0460000  1
  13411  13407  13393  13415     1  0.0000000  0.0000000  3
  13412  13407  13413  13414     1  0.0000000  0.6973333  3
  13412  13407  13393  13415     1  0.0000000  1.0460000  1
  13412  13407  13393  13415     1  0.0000000  0.0000000  3
  13416  13417  13420  13424     1  0.0000000  0.6508444  3
  13416  13417  13429  13432     1  0.0000000  1.0460000  1
  13416  13417  13429  13432     1  0.0000000  0.6694400  3
  13416  13430  13436  13437     1  0.0000000  1.0460000  1
  13416  13430  13436  13437     1  0.0000000  0.6694400  3
  13416  13438  13422  13425     1  0.0000000  1.6038667  3
  13417  13416  13430  13434     1  0.0000000  0.6508444  3
  13417  13416  13430  13435     1  0.0000000  0.6508444  3
  13417  13420  13421  13423     1  0.0000000  0.6508444  3
  13417  13420  13428  13431     1  0.0000000  1.0460000  1
  13417  13420  13428  13431     1  0.0000000  0.6694400  3
  13418  13416  13417  13420     1  0.0000000  0.6508444  3
  13418  13416  13417  13429     1  0.0000000  1.0460000  1
  13418  13416  13417  13429     1  0.0000000  0.0000000  3
  13418  13416  13417  13419     1  0.0000000  0.6508444  3
  13418  13416  13430  13436     1  0.0000000  1.0460000  1
  13418  13416  13430  13436     1  0.0000000  0.0000000  3
  13418  13416  13430  13434     1  0.0000000  0.6508444  3
  13418  13416  13430  13435     1  0.0000000  0.6508444  3
  13418  13416  13438  13422     1  0.0000000  1.6038667  3
  13419  13417  13416  13430     1  0.0000000  0.6508444  3
  13419  13417  13416  13438     1  0.0000000  1.0460000  1
  13419  13417  13416  13438     1  0.0000000  0.0000000  3
  13419  13417  13420  13421     1  0.0000000  0.6508444  3
  13419  13417  13420  13428     1  0.0000000  1.0460000  1
  13419  13417  13420  13428     1  0.0000000  0.0000000  3
  13419  13417  13420  13424     1  0.0000000  0.6508444  3
  13419  13417  13429  13432     1  0.0000000  0.6973333  3
  13420  13417  13429  13432     1  0.0000000  1.0460000  1
  13420  13417  13429  13432     1  0.0000000  0.6694400  3
  13420  13421  13422  13425     1  0.0000000  0.6508444  3
  13420  13421  13427  13433     1  0.0000000  1.0460000  1
  13420  13421  13427  13433     1  0.0000000  0.6694400  3
  13421  13420  13428  13431     1  0.0000000  1.0460000  1
  13421  13420  13428  13431     1  0.0000000  0.6694400  3
  13422  13421  13420  13424     1  0.0000000  0.6508444  3
  13422  13421  13427  13433     1  0.0000000  1.0460000  1
  13422  13421  13427  13433     1  0.0000000  0.6694400  3
  13423  13421  13420  13428     1  0.0000000  1.0460000  1
  13423  13421  13420  13428     1  0.0000000  0.0000000  3
  13423  13421  13420  13424     1  0.0000000  0.6508444  3
  13423  13421  13422  13426     1  0.0000000  1.0460000  1
  13423  13421  13422  13426     1  0.0000000  0.0000000  3
  13423  13421  13422  13438     1  0.0000000  1.0460000  1
  13423  13421  13422  13438     1  0.0000000  0.0000000  3
  13423  13421  13422  13425     1  0.0000000  0.6508444  3
  13423  13421  13427  13433     1  0.0000000  0.6973333  3
  13424  13420  13417  13429     1  0.0000000  1.0460000  1
  13424  13420  13417  13429     1  0.0000000  0.0000000  3
  13424  13420  13421  13427     1  0.0000000  1.0460000  1
  13424  13420  13421  13427     1  0.0000000  0.0000000  3
  13424  13420  13428  13431     1  0.0000000  0.6973333  3
  13425  13422  13421  13427     1  0.0000000  0.6508444  3
  13434  13430  13416  13438     1  0.0000000  1.0460000  1
  13434  13430  13416  13438     1  0.0000000  0.0000000  3
  13434  13430  13436  13437     1  0.0000000  0.6973333  3
  13435  13430  13416  13438     1  0.0000000  1.0460000  1
  13435  13430  13416  13438     1  0.0000000  0.0000000  3
  13435  13430  13436  13437     1  0.0000000  0.6973333  3
  13439  13440  13443  13447     1  0.0000000  0.6508444  3
  13439  13440  13452  13455     1  0.0000000  1.0460000  1
  13439  13440  13452  13455     1  0.0000000  0.6694400  3
  13439  13453  13459  13460     1  0.0000000  1.0460000  1
  13439  13453  13459  13460     1  0.0000000  0.6694400  3
  13439  13461  13445  13448     1  0.0000000  1.6038667  3
  13440  13443  13444  13446     1  0.0000000  0.6508444  3
  13440  13443  13451  13454     1  0.0000000  1.0460000  1
  13440  13443  13451  13454     1  0.0000000  0.6694400  3
  13440  13439  13453  13457     1  0.0000000  0.6508444  3
  13440  13439  13453  13458     1  0.0000000  0.6508444  3
  13441  13439  13440  13443     1  0.0000000  0.6508444  3
  13441  13439  13440  13452     1  0.0000000  1.0460000  1
  13441  13439  13440  13452     1  0.0000000  0.0000000  3
  13441  13439  13440  13442     1  0.0000000  0.6508444  3
  13441  13439  13453  13459     1  0.0000000  1.0460000  1
  13441  13439  13453  13459     1  0.0000000  0.0000000  3
  13441  13439  13453  13457     1  0.0000000  0.6508444  3
  13441  13439  13453  13458     1  0.0000000  0.6508444  3
  13441  13439  13461  13445     1  0.0000000  1.6038667  3
  13442  13440  13443  13444     1  0.0000000  0.6508444  3
  13442  13440  13443  13451     1  0.0000000  1.0460000  1
  13442  13440  13443  13451     1  0.0000000  0.0000000  3
  13442  13440  13443  13447     1  0.0000000  0.6508444  3
  13442  13440  13452  13455     1  0.0000000  0.6973333  3
  13442  13440  13439  13453     1  0.0000000  0.6508444  3
  13442  13440  13439  13461     1  0.0000000  1.0460000  1
  13442  13440  13439  13461     1  0.0000000  0.0000000  3
  13443  13444  13445  13448     1  0.0000000  0.6508444  3
  13443  13444  13450  13456     1  0.0000000  1.0460000  1
  13443  13444  13450  13456     1  0.0000000  0.6694400  3
  13443  13440  13452  13455     1  0.0000000  1.0460000  1
  13443  13440  13452  13455     1  0.0000000  0.6694400  3
  13444  13443  13451  13454     1  0.0000000  1.0460000  1
  13444  13443  13451  13454     1  0.0000000  0.6694400  3
  13445  13444  13450  13456     1  0.0000000  1.0460000  1
  13445  13444  13450  13456     1  0.0000000  0.6694400  3
  13445  13444  13443  13447     1  0.0000000  0.6508444  3
  13446  13444  13445  13449     1  0.0000000  1.0460000  1
  13446  13444  13445  13449     1  0.0000000  0.0000000  3
  13446  13444  13445  13461     1  0.0000000  1.0460000  1
  13446  13444  13445  13461     1  0.0000000  0.0000000  3
  13446  13444  13445  13448     1  0.0000000  0.6508444  3
  13446  13444  13450  13456     1  0.0000000  0.6973333  3
  13446  13444  13443  13451     1  0.0000000  1.0460000  1
  13446  13444  13443  13451     1  0.0000000  0.0000000  3
  13446  13444  13443  13447     1  0.0000000  0.6508444  3
  13447  13443  13444  13450     1  0.0000000  1.0460000  1
  13447  13443  13444  13450     1  0.0000000  0.0000000  3
  13447  13443  13451  13454     1  0.0000000  0.6973333  3
  13447  13443  13440  13452     1  0.0000000  1.0460000  1
  13447  13443  13440  13452     1  0.0000000  0.0000000  3
  13448  13445  13444  13450     1  0.0000000  0.6508444  3
  13457  13453  13459  13460     1  0.0000000  0.6973333  3
  13457  13453  13439  13461     1  0.0000000  1.0460000  1
  13457  13453  13439  13461     1  0.0000000  0.0000000  3
  13458  13453  13459  13460     1  0.0000000  0.6973333  3
  13458  13453  13439  13461     1  0.0000000  1.0460000  1
  13458  13453  13439  13461     1  0.0000000  0.0000000  3
  13462  13463  13466  13470     1  0.0000000  0.6508444  3
  13462  13463  13475  13478     1  0.0000000  1.0460000  1
  13462  13463  13475  13478     1  0.0000000  0.6694400  3
  13462  13476  13482  13483     1  0.0000000  1.0460000  1
  13462  13476  13482  13483     1  0.0000000  0.6694400  3
  13462  13484  13468  13471     1  0.0000000  1.6038667  3
  13463  13462  13476  13480     1  0.0000000  0.6508444  3
  13463  13462  13476  13481     1  0.0000000  0.6508444  3
  13463  13466  13467  13469     1  0.0000000  0.6508444  3
  13463  13466  13474  13477     1  0.0000000  1.0460000  1
  13463  13466  13474  13477     1  0.0000000  0.6694400  3
  13464  13462  13463  13466     1  0.0000000  0.6508444  3
  13464  13462  13463  13475     1  0.0000000  1.0460000  1
  13464  13462  13463  13475     1  0.0000000  0.0000000  3
  13464  13462  13463  13465     1  0.0000000  0.6508444  3
  13464  13462  13476  13482     1  0.0000000  1.0460000  1
  13464  13462  13476  13482     1  0.0000000  0.0000000  3
  13464  13462  13476  13480     1  0.0000000  0.6508444  3
  13464  13462  13476  13481     1  0.0000000  0.6508444  3
  13464  13462  13484  13468     1  0.0000000  1.6038667  3
  13465  13463  13462  13476     1  0.0000000  0.6508444  3
  13465  13463  13462  13484     1  0.0000000  1.0460000  1
  13465  13463  13462  13484     1  0.0000000  0.0000000  3
  13465  13463  13466  13467     1  0.0000000  0.6508444  3
  13465  13463  13466  13474     1  0.0000000  1.0460000  1
  13465  13463  13466  13474     1  0.0000000  0.0000000  3
  13465  13463  13466  13470     1  0.0000000  0.6508444  3
  13465  13463  13475  13478     1  0.0000000  0.6973333  3
  13466  13463  13475  13478     1  0.0000000  1.0460000  1
  13466  13463  13475  13478     1  0.0000000  0.6694400  3
  13466  13467  13468  13471     1  0.0000000  0.6508444  3
  13466  13467  13473  13479     1  0.0000000  1.0460000  1
  13466  13467  13473  13479     1  0.0000000  0.6694400  3
  13467  13466  13474  13477     1  0.0000000  1.0460000  1
  13467  13466  13474  13477     1  0.0000000  0.6694400  3
  13468  13467  13466  13470     1  0.0000000  0.6508444  3
  13468  13467  13473  13479     1  0.0000000  1.0460000  1
  13468  13467  13473  13479     1  0.0000000  0.6694400  3
  13469  13467  13466  13474     1  0.0000000  1.0460000  1
  13469  13467  13466  13474     1  0.0000000  0.0000000  3
  13469  13467  13466  13470     1  0.0000000  0.6508444  3
  13469  13467  13468  13472     1  0.0000000  1.0460000  1
  13469  13467  13468  13472     1  0.0000000  0.0000000  3
  13469  13467  13468  13484     1  0.0000000  1.0460000  1
  13469  13467  13468  13484     1  0.0000000  0.0000000  3
  13469  13467  13468  13471     1  0.0000000  0.6508444  3
  13469  13467  13473  13479     1  0.0000000  0.6973333  3
  13470  13466  13463  13475     1  0.0000000  1.0460000  1
  13470  13466  13463  13475     1  0.0000000  0.0000000  3
  13470  13466  13467  13473     1  0.0000000  1.0460000  1
  13470  13466  13467  13473     1  0.0000000  0.0000000  3
  13470  13466  13474  13477     1  0.0000000  0.6973333  3
  13471  13468  13467  13473     1  0.0000000  0.6508444  3
  13480  13476  13462  13484     1  0.0000000  1.0460000  1
  13480  13476  13462  13484     1  0.0000000  0.0000000  3
  13480  13476  13482  13483     1  0.0000000  0.6973333  3
  13481  13476  13462  13484     1  0.0000000  1.0460000  1
  13481  13476  13462  13484     1  0.0000000  0.0000000  3
  13481  13476  13482  13483     1  0.0000000  0.6973333  3
  13485  13486  13489  13493     1  0.0000000  0.6508444  3
  13485  13486  13498  13501     1  0.0000000  1.0460000  1
  13485  13486  13498  13501     1  0.0000000  0.6694400  3
  13485  13499  13505  13506     1  0.0000000  1.0460000  1
  13485  13499  13505  13506     1  0.0000000  0.6694400  3
  13485  13507  13491  13494     1  0.0000000  1.6038667  3
  13486  13489  13490  13492     1  0.0000000  0.6508444  3
  13486  13489  13497  13500     1  0.0000000  1.0460000  1
  13486  13489  13497  13500     1  0.0000000  0.6694400  3
  13486  13485  13499  13503     1  0.0000000  0.6508444  3
  13486  13485  13499  13504     1  0.0000000  0.6508444  3
  13487  13485  13486  13489     1  0.0000000  0.6508444  3
  13487  13485  13486  13498     1  0.0000000  1.0460000  1
  13487  13485  13486  13498     1  0.0000000  0.0000000  3
  13487  13485  13486  13488     1  0.0000000  0.6508444  3
  13487  13485  13499  13505     1  0.0000000  1.0460000  1
  13487  13485  13499  13505     1  0.0000000  0.0000000  3
  13487  13485  13499  13503     1  0.0000000  0.6508444  3
  13487  13485  13499  13504     1  0.0000000  0.6508444  3
  13487  13485  13507  13491     1  0.0000000  1.6038667  3
  13488  13486  13489  13490     1  0.0000000  0.6508444  3
  13488  13486  13489  13497     1  0.0000000  1.0460000  1
  13488  13486  13489  13497     1  0.0000000  0.0000000  3
  13488  13486  13489  13493     1  0.0000000  0.6508444  3
  13488  13486  13498  13501     1  0.0000000  0.6973333  3
  13488  13486  13485  13499     1  0.0000000  0.6508444  3
  13488  13486  13485  13507     1  0.0000000  1.0460000  1
  13488  13486  13485  13507     1  0.0000000  0.0000000  3
  13489  13490  13491  13494     1  0.0000000  0.6508444  3
  13489  13490  13496  13502     1  0.0000000  1.0460000  1
  13489  13490  13496  13502     1  0.0000000  0.6694400  3
  13489  13486  13498  13501     1  0.0000000  1.0460000  1
  13489  13486  13498  13501     1  0.0000000  0.6694400  3
  13490  13489  13497  13500     1  0.0000000  1.0460000  1
  13490  13489  13497  13500     1  0.0000000  0.6694400  3
  13491  13490  13496  13502     1  0.0000000  1.0460000  1
  13491  13490  13496  13502     1  0.0000000  0.6694400  3
  13491  13490  13489  13493     1  0.0000000  0.6508444  3
  13492  13490  13491  13495     1  0.0000000  1.0460000  1
  13492  13490  13491  13495     1  0.0000000  0.0000000  3
  13492  13490  13491  13507     1  0.0000000  1.0460000  1
  13492  13490  13491  13507     1  0.0000000  0.0000000  3
  13492  13490  13491  13494     1  0.0000000  0.6508444  3
  13492  13490  13496  13502     1  0.0000000  0.6973333  3
  13492  13490  13489  13497     1  0.0000000  1.0460000  1
  13492  13490  13489  13497     1  0.0000000  0.0000000  3
  13492  13490  13489  13493     1  0.0000000  0.6508444  3
  13493  13489  13490  13496     1  0.0000000  1.0460000  1
  13493  13489  13490  13496     1  0.0000000  0.0000000  3
  13493  13489  13497  13500     1  0.0000000  0.6973333  3
  13493  13489  13486  13498     1  0.0000000  1.0460000  1
  13493  13489  13486  13498     1  0.0000000  0.0000000  3
  13494  13491  13490  13496     1  0.0000000  0.6508444  3
  13503  13499  13505  13506     1  0.0000000  0.6973333  3
  13503  13499  13485  13507     1  0.0000000  1.0460000  1
  13503  13499  13485  13507     1  0.0000000  0.0000000  3
  13504  13499  13505  13506     1  0.0000000  0.6973333  3
  13504  13499  13485  13507     1  0.0000000  1.0460000  1
  13504  13499  13485  13507     1  0.0000000  0.0000000  3

;[ system ]
;; Name
;Generic title
;
;[ molecules ]
;; Compound       #mols
;system1              1
