;
;   File g2.5Ocore_cooh_petim.itp  was generated
;   By user: sairam (1000)
;   On host: sairam
;   At date: Mon. April  1 00:43:48 2024
;
;   This is a standalone topology file
;
;   Created by:
;   ParmEd:       amb2gro_top_gro.py, VERSION 3.4.1
;   Executable:   amb2gro_top_gro.py
;   Library dir:  /usr/local/gromacs/share/gromacs/top
;   Command line:
;     ./amb2gro_top_gro.py -p g2.5Ocore_cooh_petim.prmtop -c g2.5Ocore_cooh_petim.inpcrd -t g2.5Ocore_cooh_petim.itp -g g2.5Ocore_cooh_petim.gro -b g2.5Ocore_cooh_petim.pdb
;

;[ defaults ]
;; nbfunc        comb-rule       gen-pairs       fudgeLJ fudgeQQ
;1               2               yes             0.5          0.83333333  
;
;[ atomtypes ]
;; name    at.num    mass    charge ptype  sigma      epsilon
;os             8  16.000000  0.00000000  A     0.30000123        0.71128
;c3             6  12.010000  0.00000000  A     0.33996695      0.4577296
;h1             1   1.008000  0.00000000  A      0.2471353      0.0656888
;hc             1   1.008000  0.00000000  A     0.26495328      0.0656888
;n3             7  14.010000  0.00000000  A     0.32499985        0.71128
;c              6  12.010000  0.00000000  A     0.33996695       0.359824
;o              8  16.000000  0.00000000  A     0.29599219        0.87864
;oh             8  16.000000  0.00000000  A     0.30664734      0.8803136
;ho             1   1.008000  0.00000000  A              0              0


[ moleculetype ]
; Name            nrexcl
g2.5Ocore_cooh_petim          3

[ atoms ]
;   nr       type  resnr residue  atom   cgnr    charge       mass  typeB    chargeB      massB
; residue    1 aaa rtp aaa q -0.0
    1         os      1    aaa     O1      1 -0.43807400  16.000000   ; qtot -0.438074
    2         c3      1    aaa     C1      2 0.04509800  12.010000   ; qtot -0.392976
    3         h1      1    aaa     H1      3 0.04771700   1.008000   ; qtot -0.345259
    4         h1      1    aaa     H2      4 0.04771700   1.008000   ; qtot -0.297542
    5         c3      1    aaa     C2      5 0.04509800  12.010000   ; qtot -0.252444
    6         h1      1    aaa     H3      6 0.04771700   1.008000   ; qtot -0.204727
    7         h1      1    aaa     H4      7 0.04771700   1.008000   ; qtot -0.157010
    8         c3      1    aaa     C3      8 0.05658600  12.010000   ; qtot -0.100424
    9         hc      1    aaa     H5      9 0.04933800   1.008000   ; qtot -0.051086
   10         hc      1    aaa     H6     10 0.04933800   1.008000   ; qtot -0.001748
   11         c3      1    aaa     C4     11 0.05658600  12.010000   ; qtot 0.054838
   12         hc      1    aaa     H7     12 0.04933800   1.008000   ; qtot 0.104176
   13         hc      1    aaa     H8     13 0.04933800   1.008000   ; qtot 0.153514
   14         c3      1    aaa     C5     14 0.00989700  12.010000   ; qtot 0.163411
   15         h1      1    aaa     H9     15 0.04845500   1.008000   ; qtot 0.211866
   16         h1      1    aaa    H10     16 0.04845500   1.008000   ; qtot 0.260321
   17         c3      1    aaa     C6     17 0.00989700  12.010000   ; qtot 0.270218
   18         h1      1    aaa    H11     18 0.04845500   1.008000   ; qtot 0.318673
   19         h1      1    aaa    H12     19 0.04845500   1.008000   ; qtot 0.367128
   20         n3      1    aaa     N1     20 -0.59936800  14.010000   ; qtot -0.232240
   21         n3      1    aaa     N2     21 -0.59936800  14.010000   ; qtot -0.831608
   22         c3      1    aaa     C7     22 0.08030200  12.010000   ; qtot -0.751306
   23         h1      1    aaa    H13     23 0.05071600   1.008000   ; qtot -0.700590
   24         h1      1    aaa    H14     24 0.05071600   1.008000   ; qtot -0.649874
   25         c3      1    aaa     C8     25 0.08030200  12.010000   ; qtot -0.569572
   26         h1      1    aaa    H15     26 0.05071600   1.008000   ; qtot -0.518856
   27         h1      1    aaa    H16     27 0.05071600   1.008000   ; qtot -0.468140
   28         c3      1    aaa     C9     28 0.08030200  12.010000   ; qtot -0.387838
   29         h1      1    aaa    H17     29 0.05071600   1.008000   ; qtot -0.337122
   30         h1      1    aaa    H18     30 0.05071600   1.008000   ; qtot -0.286406
   31         c3      1    aaa    C10     31 0.08030200  12.010000   ; qtot -0.206104
   32         h1      1    aaa    H19     32 0.05071600   1.008000   ; qtot -0.155388
   33         h1      1    aaa    H20     33 0.05071600   1.008000   ; qtot -0.104672
   34         c3      1    aaa    C11     34 0.10287800  12.010000   ; qtot -0.001794
   35         hc      1    aaa    H21     35 0.06787400   1.008000   ; qtot 0.066080
   36         hc      1    aaa    H22     36 0.06787400   1.008000   ; qtot 0.133954
   37         c3      1    aaa    C12     37 0.10287800  12.010000   ; qtot 0.236832
   38         hc      1    aaa    H23     38 0.06787400   1.008000   ; qtot 0.304706
   39         hc      1    aaa    H24     39 0.06787400   1.008000   ; qtot 0.372580
   40         c3      1    aaa    C13     40 0.10287800  12.010000   ; qtot 0.475458
   41         hc      1    aaa    H25     41 0.06787400   1.008000   ; qtot 0.543332
   42         hc      1    aaa    H26     42 0.06787400   1.008000   ; qtot 0.611206
   43         c3      1    aaa    C14     43 0.10287800  12.010000   ; qtot 0.714084
   44         hc      1    aaa    H27     44 0.06787400   1.008000   ; qtot 0.781958
   45         hc      1    aaa    H28     45 0.06787400   1.008000   ; qtot 0.849832
   46         c3      1    aaa    C15     46 -0.72585200  12.010000   ; qtot 0.123980
   47         h1      1    aaa    H29     47 0.25669700   1.008000   ; qtot 0.380677
   48         h1      1    aaa    H30     48 0.25669700   1.008000   ; qtot 0.637374
   49         c3      1    aaa    C16     49 -0.72585200  12.010000   ; qtot -0.088478
   50         h1      1    aaa    H31     50 0.25669700   1.008000   ; qtot 0.168219
   51         h1      1    aaa    H32     51 0.25669700   1.008000   ; qtot 0.424916
   52         c3      1    aaa    C17     52 -0.72585200  12.010000   ; qtot -0.300936
   53         h1      1    aaa    H33     53 0.25669700   1.008000   ; qtot -0.044239
   54         h1      1    aaa    H34     54 0.25669700   1.008000   ; qtot 0.212458
   55         c3      1    aaa    C18     55 -0.72585200  12.010000   ; qtot -0.513394
   56         h1      1    aaa    H35     56 0.25669700   1.008000   ; qtot -0.256697
   57         h1      1    aaa    H36     57 0.25669700   1.008000   ; qtot -0.000000
; residue    2 bbb rtp bbb q -0.0
   58         n3      2    bbb     N1     58 -0.59685800  14.010000   ; qtot -0.596858
   59         c3      2    bbb     C1     59 0.10137000  12.010000   ; qtot -0.495488
   60         h1      2    bbb     H1     60 0.04411300   1.008000   ; qtot -0.451375
   61         h1      2    bbb     H2     61 0.04411300   1.008000   ; qtot -0.407262
   62         c3      2    bbb     C2     62 0.10137000  12.010000   ; qtot -0.305892
   63         h1      2    bbb     H3     63 0.04411300   1.008000   ; qtot -0.261779
   64         h1      2    bbb     H4     64 0.04411300   1.008000   ; qtot -0.217666
   65         c3      2    bbb     C3     65 -0.00195300  12.010000   ; qtot -0.219619
   66         h1      2    bbb     H5     66 0.05064400   1.008000   ; qtot -0.168975
   67         h1      2    bbb     H6     67 0.05064400   1.008000   ; qtot -0.118331
   68         c3      2    bbb     C4     68 -0.01612100  12.010000   ; qtot -0.134452
   69         hc      2    bbb     H7     69 0.04936100   1.008000   ; qtot -0.085091
   70         hc      2    bbb     H8     70 0.04936100   1.008000   ; qtot -0.035730
   71         c3      2    bbb     C5     71 0.11363000  12.010000   ; qtot 0.077900
   72         hc      2    bbb     H9     72 0.06265900   1.008000   ; qtot 0.140559
   73         hc      2    bbb    H10     73 0.06265900   1.008000   ; qtot 0.203218
   74         c3      2    bbb     C6     74 0.11363000  12.010000   ; qtot 0.316848
   75         hc      2    bbb    H11     75 0.06265900   1.008000   ; qtot 0.379507
   76         hc      2    bbb    H12     76 0.06265900   1.008000   ; qtot 0.442166
   77         c3      2    bbb     C7     77 0.05858200  12.010000   ; qtot 0.500748
   78         h1      2    bbb    H13     78 0.06123400   1.008000   ; qtot 0.561982
   79         h1      2    bbb    H14     79 0.06123400   1.008000   ; qtot 0.623216
   80         c3      2    bbb     C8     80 -0.72423400  12.010000   ; qtot -0.101018
   81         h1      2    bbb    H15     81 0.25637600   1.008000   ; qtot 0.155358
   82         h1      2    bbb    H16     82 0.25637600   1.008000   ; qtot 0.411734
   83         c3      2    bbb     C9     83 -0.72423400  12.010000   ; qtot -0.312500
   84         h1      2    bbb    H17     84 0.25637600   1.008000   ; qtot -0.056124
   85         h1      2    bbb    H18     85 0.25637600   1.008000   ; qtot 0.200252
   86         os      2    bbb     O1     86 -0.20025300  16.000000   ; qtot -0.000001
; residue    3 bbb rtp bbb q -0.0
   87         n3      3    bbb     N1     87 -0.59685800  14.010000   ; qtot -0.596859
   88         c3      3    bbb     C1     88 0.10137000  12.010000   ; qtot -0.495489
   89         h1      3    bbb     H1     89 0.04411300   1.008000   ; qtot -0.451376
   90         h1      3    bbb     H2     90 0.04411300   1.008000   ; qtot -0.407263
   91         c3      3    bbb     C2     91 0.10137000  12.010000   ; qtot -0.305893
   92         h1      3    bbb     H3     92 0.04411300   1.008000   ; qtot -0.261780
   93         h1      3    bbb     H4     93 0.04411300   1.008000   ; qtot -0.217667
   94         c3      3    bbb     C3     94 -0.00195300  12.010000   ; qtot -0.219620
   95         h1      3    bbb     H5     95 0.05064400   1.008000   ; qtot -0.168976
   96         h1      3    bbb     H6     96 0.05064400   1.008000   ; qtot -0.118332
   97         c3      3    bbb     C4     97 -0.01612100  12.010000   ; qtot -0.134453
   98         hc      3    bbb     H7     98 0.04936100   1.008000   ; qtot -0.085092
   99         hc      3    bbb     H8     99 0.04936100   1.008000   ; qtot -0.035731
  100         c3      3    bbb     C5    100 0.11363000  12.010000   ; qtot 0.077899
  101         hc      3    bbb     H9    101 0.06265900   1.008000   ; qtot 0.140558
  102         hc      3    bbb    H10    102 0.06265900   1.008000   ; qtot 0.203217
  103         c3      3    bbb     C6    103 0.11363000  12.010000   ; qtot 0.316847
  104         hc      3    bbb    H11    104 0.06265900   1.008000   ; qtot 0.379506
  105         hc      3    bbb    H12    105 0.06265900   1.008000   ; qtot 0.442165
  106         c3      3    bbb     C7    106 0.05858200  12.010000   ; qtot 0.500747
  107         h1      3    bbb    H13    107 0.06123400   1.008000   ; qtot 0.561981
  108         h1      3    bbb    H14    108 0.06123400   1.008000   ; qtot 0.623215
  109         c3      3    bbb     C8    109 -0.72423400  12.010000   ; qtot -0.101019
  110         h1      3    bbb    H15    110 0.25637600   1.008000   ; qtot 0.155357
  111         h1      3    bbb    H16    111 0.25637600   1.008000   ; qtot 0.411733
  112         c3      3    bbb     C9    112 -0.72423400  12.010000   ; qtot -0.312501
  113         h1      3    bbb    H17    113 0.25637600   1.008000   ; qtot -0.056125
  114         h1      3    bbb    H18    114 0.25637600   1.008000   ; qtot 0.200251
  115         os      3    bbb     O1    115 -0.20025300  16.000000   ; qtot -0.000002
; residue    4 bbb rtp bbb q -0.0
  116         n3      4    bbb     N1    116 -0.59685800  14.010000   ; qtot -0.596860
  117         c3      4    bbb     C1    117 0.10137000  12.010000   ; qtot -0.495490
  118         h1      4    bbb     H1    118 0.04411300   1.008000   ; qtot -0.451377
  119         h1      4    bbb     H2    119 0.04411300   1.008000   ; qtot -0.407264
  120         c3      4    bbb     C2    120 0.10137000  12.010000   ; qtot -0.305894
  121         h1      4    bbb     H3    121 0.04411300   1.008000   ; qtot -0.261781
  122         h1      4    bbb     H4    122 0.04411300   1.008000   ; qtot -0.217668
  123         c3      4    bbb     C3    123 -0.00195300  12.010000   ; qtot -0.219621
  124         h1      4    bbb     H5    124 0.05064400   1.008000   ; qtot -0.168977
  125         h1      4    bbb     H6    125 0.05064400   1.008000   ; qtot -0.118333
  126         c3      4    bbb     C4    126 -0.01612100  12.010000   ; qtot -0.134454
  127         hc      4    bbb     H7    127 0.04936100   1.008000   ; qtot -0.085093
  128         hc      4    bbb     H8    128 0.04936100   1.008000   ; qtot -0.035732
  129         c3      4    bbb     C5    129 0.11363000  12.010000   ; qtot 0.077898
  130         hc      4    bbb     H9    130 0.06265900   1.008000   ; qtot 0.140557
  131         hc      4    bbb    H10    131 0.06265900   1.008000   ; qtot 0.203216
  132         c3      4    bbb     C6    132 0.11363000  12.010000   ; qtot 0.316846
  133         hc      4    bbb    H11    133 0.06265900   1.008000   ; qtot 0.379505
  134         hc      4    bbb    H12    134 0.06265900   1.008000   ; qtot 0.442164
  135         c3      4    bbb     C7    135 0.05858200  12.010000   ; qtot 0.500746
  136         h1      4    bbb    H13    136 0.06123400   1.008000   ; qtot 0.561980
  137         h1      4    bbb    H14    137 0.06123400   1.008000   ; qtot 0.623214
  138         c3      4    bbb     C8    138 -0.72423400  12.010000   ; qtot -0.101020
  139         h1      4    bbb    H15    139 0.25637600   1.008000   ; qtot 0.155356
  140         h1      4    bbb    H16    140 0.25637600   1.008000   ; qtot 0.411732
  141         c3      4    bbb     C9    141 -0.72423400  12.010000   ; qtot -0.312502
  142         h1      4    bbb    H17    142 0.25637600   1.008000   ; qtot -0.056126
  143         h1      4    bbb    H18    143 0.25637600   1.008000   ; qtot 0.200250
  144         os      4    bbb     O1    144 -0.20025300  16.000000   ; qtot -0.000003
; residue    5 bbb rtp bbb q -0.0
  145         n3      5    bbb     N1    145 -0.59685800  14.010000   ; qtot -0.596861
  146         c3      5    bbb     C1    146 0.10137000  12.010000   ; qtot -0.495491
  147         h1      5    bbb     H1    147 0.04411300   1.008000   ; qtot -0.451378
  148         h1      5    bbb     H2    148 0.04411300   1.008000   ; qtot -0.407265
  149         c3      5    bbb     C2    149 0.10137000  12.010000   ; qtot -0.305895
  150         h1      5    bbb     H3    150 0.04411300   1.008000   ; qtot -0.261782
  151         h1      5    bbb     H4    151 0.04411300   1.008000   ; qtot -0.217669
  152         c3      5    bbb     C3    152 -0.00195300  12.010000   ; qtot -0.219622
  153         h1      5    bbb     H5    153 0.05064400   1.008000   ; qtot -0.168978
  154         h1      5    bbb     H6    154 0.05064400   1.008000   ; qtot -0.118334
  155         c3      5    bbb     C4    155 -0.01612100  12.010000   ; qtot -0.134455
  156         hc      5    bbb     H7    156 0.04936100   1.008000   ; qtot -0.085094
  157         hc      5    bbb     H8    157 0.04936100   1.008000   ; qtot -0.035733
  158         c3      5    bbb     C5    158 0.11363000  12.010000   ; qtot 0.077897
  159         hc      5    bbb     H9    159 0.06265900   1.008000   ; qtot 0.140556
  160         hc      5    bbb    H10    160 0.06265900   1.008000   ; qtot 0.203215
  161         c3      5    bbb     C6    161 0.11363000  12.010000   ; qtot 0.316845
  162         hc      5    bbb    H11    162 0.06265900   1.008000   ; qtot 0.379504
  163         hc      5    bbb    H12    163 0.06265900   1.008000   ; qtot 0.442163
  164         c3      5    bbb     C7    164 0.05858200  12.010000   ; qtot 0.500745
  165         h1      5    bbb    H13    165 0.06123400   1.008000   ; qtot 0.561979
  166         h1      5    bbb    H14    166 0.06123400   1.008000   ; qtot 0.623213
  167         c3      5    bbb     C8    167 -0.72423400  12.010000   ; qtot -0.101021
  168         h1      5    bbb    H15    168 0.25637600   1.008000   ; qtot 0.155355
  169         h1      5    bbb    H16    169 0.25637600   1.008000   ; qtot 0.411731
  170         c3      5    bbb     C9    170 -0.72423400  12.010000   ; qtot -0.312503
  171         h1      5    bbb    H17    171 0.25637600   1.008000   ; qtot -0.056127
  172         h1      5    bbb    H18    172 0.25637600   1.008000   ; qtot 0.200249
  173         os      5    bbb     O1    173 -0.20025300  16.000000   ; qtot -0.000004
; residue    6 bbb rtp bbb q -0.0
  174         n3      6    bbb     N1    174 -0.59685800  14.010000   ; qtot -0.596862
  175         c3      6    bbb     C1    175 0.10137000  12.010000   ; qtot -0.495492
  176         h1      6    bbb     H1    176 0.04411300   1.008000   ; qtot -0.451379
  177         h1      6    bbb     H2    177 0.04411300   1.008000   ; qtot -0.407266
  178         c3      6    bbb     C2    178 0.10137000  12.010000   ; qtot -0.305896
  179         h1      6    bbb     H3    179 0.04411300   1.008000   ; qtot -0.261783
  180         h1      6    bbb     H4    180 0.04411300   1.008000   ; qtot -0.217670
  181         c3      6    bbb     C3    181 -0.00195300  12.010000   ; qtot -0.219623
  182         h1      6    bbb     H5    182 0.05064400   1.008000   ; qtot -0.168979
  183         h1      6    bbb     H6    183 0.05064400   1.008000   ; qtot -0.118335
  184         c3      6    bbb     C4    184 -0.01612100  12.010000   ; qtot -0.134456
  185         hc      6    bbb     H7    185 0.04936100   1.008000   ; qtot -0.085095
  186         hc      6    bbb     H8    186 0.04936100   1.008000   ; qtot -0.035734
  187         c3      6    bbb     C5    187 0.11363000  12.010000   ; qtot 0.077896
  188         hc      6    bbb     H9    188 0.06265900   1.008000   ; qtot 0.140555
  189         hc      6    bbb    H10    189 0.06265900   1.008000   ; qtot 0.203214
  190         c3      6    bbb     C6    190 0.11363000  12.010000   ; qtot 0.316844
  191         hc      6    bbb    H11    191 0.06265900   1.008000   ; qtot 0.379503
  192         hc      6    bbb    H12    192 0.06265900   1.008000   ; qtot 0.442162
  193         c3      6    bbb     C7    193 0.05858200  12.010000   ; qtot 0.500744
  194         h1      6    bbb    H13    194 0.06123400   1.008000   ; qtot 0.561978
  195         h1      6    bbb    H14    195 0.06123400   1.008000   ; qtot 0.623212
  196         c3      6    bbb     C8    196 -0.72423400  12.010000   ; qtot -0.101022
  197         h1      6    bbb    H15    197 0.25637600   1.008000   ; qtot 0.155354
  198         h1      6    bbb    H16    198 0.25637600   1.008000   ; qtot 0.411730
  199         c3      6    bbb     C9    199 -0.72423400  12.010000   ; qtot -0.312504
  200         h1      6    bbb    H17    200 0.25637600   1.008000   ; qtot -0.056128
  201         h1      6    bbb    H18    201 0.25637600   1.008000   ; qtot 0.200248
  202         os      6    bbb     O1    202 -0.20025300  16.000000   ; qtot -0.000005
; residue    7 bbb rtp bbb q -0.0
  203         n3      7    bbb     N1    203 -0.59685800  14.010000   ; qtot -0.596863
  204         c3      7    bbb     C1    204 0.10137000  12.010000   ; qtot -0.495493
  205         h1      7    bbb     H1    205 0.04411300   1.008000   ; qtot -0.451380
  206         h1      7    bbb     H2    206 0.04411300   1.008000   ; qtot -0.407267
  207         c3      7    bbb     C2    207 0.10137000  12.010000   ; qtot -0.305897
  208         h1      7    bbb     H3    208 0.04411300   1.008000   ; qtot -0.261784
  209         h1      7    bbb     H4    209 0.04411300   1.008000   ; qtot -0.217671
  210         c3      7    bbb     C3    210 -0.00195300  12.010000   ; qtot -0.219624
  211         h1      7    bbb     H5    211 0.05064400   1.008000   ; qtot -0.168980
  212         h1      7    bbb     H6    212 0.05064400   1.008000   ; qtot -0.118336
  213         c3      7    bbb     C4    213 -0.01612100  12.010000   ; qtot -0.134457
  214         hc      7    bbb     H7    214 0.04936100   1.008000   ; qtot -0.085096
  215         hc      7    bbb     H8    215 0.04936100   1.008000   ; qtot -0.035735
  216         c3      7    bbb     C5    216 0.11363000  12.010000   ; qtot 0.077895
  217         hc      7    bbb     H9    217 0.06265900   1.008000   ; qtot 0.140554
  218         hc      7    bbb    H10    218 0.06265900   1.008000   ; qtot 0.203213
  219         c3      7    bbb     C6    219 0.11363000  12.010000   ; qtot 0.316843
  220         hc      7    bbb    H11    220 0.06265900   1.008000   ; qtot 0.379502
  221         hc      7    bbb    H12    221 0.06265900   1.008000   ; qtot 0.442161
  222         c3      7    bbb     C7    222 0.05858200  12.010000   ; qtot 0.500743
  223         h1      7    bbb    H13    223 0.06123400   1.008000   ; qtot 0.561977
  224         h1      7    bbb    H14    224 0.06123400   1.008000   ; qtot 0.623211
  225         c3      7    bbb     C8    225 -0.72423400  12.010000   ; qtot -0.101023
  226         h1      7    bbb    H15    226 0.25637600   1.008000   ; qtot 0.155353
  227         h1      7    bbb    H16    227 0.25637600   1.008000   ; qtot 0.411729
  228         c3      7    bbb     C9    228 -0.72423400  12.010000   ; qtot -0.312505
  229         h1      7    bbb    H17    229 0.25637600   1.008000   ; qtot -0.056129
  230         h1      7    bbb    H18    230 0.25637600   1.008000   ; qtot 0.200247
  231         os      7    bbb     O1    231 -0.20025300  16.000000   ; qtot -0.000006
; residue    8 bbb rtp bbb q -0.0
  232         n3      8    bbb     N1    232 -0.59685800  14.010000   ; qtot -0.596864
  233         c3      8    bbb     C1    233 0.10137000  12.010000   ; qtot -0.495494
  234         h1      8    bbb     H1    234 0.04411300   1.008000   ; qtot -0.451381
  235         h1      8    bbb     H2    235 0.04411300   1.008000   ; qtot -0.407268
  236         c3      8    bbb     C2    236 0.10137000  12.010000   ; qtot -0.305898
  237         h1      8    bbb     H3    237 0.04411300   1.008000   ; qtot -0.261785
  238         h1      8    bbb     H4    238 0.04411300   1.008000   ; qtot -0.217672
  239         c3      8    bbb     C3    239 -0.00195300  12.010000   ; qtot -0.219625
  240         h1      8    bbb     H5    240 0.05064400   1.008000   ; qtot -0.168981
  241         h1      8    bbb     H6    241 0.05064400   1.008000   ; qtot -0.118337
  242         c3      8    bbb     C4    242 -0.01612100  12.010000   ; qtot -0.134458
  243         hc      8    bbb     H7    243 0.04936100   1.008000   ; qtot -0.085097
  244         hc      8    bbb     H8    244 0.04936100   1.008000   ; qtot -0.035736
  245         c3      8    bbb     C5    245 0.11363000  12.010000   ; qtot 0.077894
  246         hc      8    bbb     H9    246 0.06265900   1.008000   ; qtot 0.140553
  247         hc      8    bbb    H10    247 0.06265900   1.008000   ; qtot 0.203212
  248         c3      8    bbb     C6    248 0.11363000  12.010000   ; qtot 0.316842
  249         hc      8    bbb    H11    249 0.06265900   1.008000   ; qtot 0.379501
  250         hc      8    bbb    H12    250 0.06265900   1.008000   ; qtot 0.442160
  251         c3      8    bbb     C7    251 0.05858200  12.010000   ; qtot 0.500742
  252         h1      8    bbb    H13    252 0.06123400   1.008000   ; qtot 0.561976
  253         h1      8    bbb    H14    253 0.06123400   1.008000   ; qtot 0.623210
  254         c3      8    bbb     C8    254 -0.72423400  12.010000   ; qtot -0.101024
  255         h1      8    bbb    H15    255 0.25637600   1.008000   ; qtot 0.155352
  256         h1      8    bbb    H16    256 0.25637600   1.008000   ; qtot 0.411728
  257         c3      8    bbb     C9    257 -0.72423400  12.010000   ; qtot -0.312506
  258         h1      8    bbb    H17    258 0.25637600   1.008000   ; qtot -0.056130
  259         h1      8    bbb    H18    259 0.25637600   1.008000   ; qtot 0.200246
  260         os      8    bbb     O1    260 -0.20025300  16.000000   ; qtot -0.000007
; residue    9 bbb rtp bbb q -0.0
  261         n3      9    bbb     N1    261 -0.59685800  14.010000   ; qtot -0.596865
  262         c3      9    bbb     C1    262 0.10137000  12.010000   ; qtot -0.495495
  263         h1      9    bbb     H1    263 0.04411300   1.008000   ; qtot -0.451382
  264         h1      9    bbb     H2    264 0.04411300   1.008000   ; qtot -0.407269
  265         c3      9    bbb     C2    265 0.10137000  12.010000   ; qtot -0.305899
  266         h1      9    bbb     H3    266 0.04411300   1.008000   ; qtot -0.261786
  267         h1      9    bbb     H4    267 0.04411300   1.008000   ; qtot -0.217673
  268         c3      9    bbb     C3    268 -0.00195300  12.010000   ; qtot -0.219626
  269         h1      9    bbb     H5    269 0.05064400   1.008000   ; qtot -0.168982
  270         h1      9    bbb     H6    270 0.05064400   1.008000   ; qtot -0.118338
  271         c3      9    bbb     C4    271 -0.01612100  12.010000   ; qtot -0.134459
  272         hc      9    bbb     H7    272 0.04936100   1.008000   ; qtot -0.085098
  273         hc      9    bbb     H8    273 0.04936100   1.008000   ; qtot -0.035737
  274         c3      9    bbb     C5    274 0.11363000  12.010000   ; qtot 0.077893
  275         hc      9    bbb     H9    275 0.06265900   1.008000   ; qtot 0.140552
  276         hc      9    bbb    H10    276 0.06265900   1.008000   ; qtot 0.203211
  277         c3      9    bbb     C6    277 0.11363000  12.010000   ; qtot 0.316841
  278         hc      9    bbb    H11    278 0.06265900   1.008000   ; qtot 0.379500
  279         hc      9    bbb    H12    279 0.06265900   1.008000   ; qtot 0.442159
  280         c3      9    bbb     C7    280 0.05858200  12.010000   ; qtot 0.500741
  281         h1      9    bbb    H13    281 0.06123400   1.008000   ; qtot 0.561975
  282         h1      9    bbb    H14    282 0.06123400   1.008000   ; qtot 0.623209
  283         c3      9    bbb     C8    283 -0.72423400  12.010000   ; qtot -0.101025
  284         h1      9    bbb    H15    284 0.25637600   1.008000   ; qtot 0.155351
  285         h1      9    bbb    H16    285 0.25637600   1.008000   ; qtot 0.411727
  286         c3      9    bbb     C9    286 -0.72423400  12.010000   ; qtot -0.312507
  287         h1      9    bbb    H17    287 0.25637600   1.008000   ; qtot -0.056131
  288         h1      9    bbb    H18    288 0.25637600   1.008000   ; qtot 0.200245
  289         os      9    bbb     O1    289 -0.20025300  16.000000   ; qtot -0.000008
; residue   10 bbb rtp bbb q -0.0
  290         n3     10    bbb     N1    290 -0.59685800  14.010000   ; qtot -0.596866
  291         c3     10    bbb     C1    291 0.10137000  12.010000   ; qtot -0.495496
  292         h1     10    bbb     H1    292 0.04411300   1.008000   ; qtot -0.451383
  293         h1     10    bbb     H2    293 0.04411300   1.008000   ; qtot -0.407270
  294         c3     10    bbb     C2    294 0.10137000  12.010000   ; qtot -0.305900
  295         h1     10    bbb     H3    295 0.04411300   1.008000   ; qtot -0.261787
  296         h1     10    bbb     H4    296 0.04411300   1.008000   ; qtot -0.217674
  297         c3     10    bbb     C3    297 -0.00195300  12.010000   ; qtot -0.219627
  298         h1     10    bbb     H5    298 0.05064400   1.008000   ; qtot -0.168983
  299         h1     10    bbb     H6    299 0.05064400   1.008000   ; qtot -0.118339
  300         c3     10    bbb     C4    300 -0.01612100  12.010000   ; qtot -0.134460
  301         hc     10    bbb     H7    301 0.04936100   1.008000   ; qtot -0.085099
  302         hc     10    bbb     H8    302 0.04936100   1.008000   ; qtot -0.035738
  303         c3     10    bbb     C5    303 0.11363000  12.010000   ; qtot 0.077892
  304         hc     10    bbb     H9    304 0.06265900   1.008000   ; qtot 0.140551
  305         hc     10    bbb    H10    305 0.06265900   1.008000   ; qtot 0.203210
  306         c3     10    bbb     C6    306 0.11363000  12.010000   ; qtot 0.316840
  307         hc     10    bbb    H11    307 0.06265900   1.008000   ; qtot 0.379499
  308         hc     10    bbb    H12    308 0.06265900   1.008000   ; qtot 0.442158
  309         c3     10    bbb     C7    309 0.05858200  12.010000   ; qtot 0.500740
  310         h1     10    bbb    H13    310 0.06123400   1.008000   ; qtot 0.561974
  311         h1     10    bbb    H14    311 0.06123400   1.008000   ; qtot 0.623208
  312         c3     10    bbb     C8    312 -0.72423400  12.010000   ; qtot -0.101026
  313         h1     10    bbb    H15    313 0.25637600   1.008000   ; qtot 0.155350
  314         h1     10    bbb    H16    314 0.25637600   1.008000   ; qtot 0.411726
  315         c3     10    bbb     C9    315 -0.72423400  12.010000   ; qtot -0.312508
  316         h1     10    bbb    H17    316 0.25637600   1.008000   ; qtot -0.056132
  317         h1     10    bbb    H18    317 0.25637600   1.008000   ; qtot 0.200244
  318         os     10    bbb     O1    318 -0.20025300  16.000000   ; qtot -0.000009
; residue   11 bbb rtp bbb q -0.0
  319         n3     11    bbb     N1    319 -0.59685800  14.010000   ; qtot -0.596867
  320         c3     11    bbb     C1    320 0.10137000  12.010000   ; qtot -0.495497
  321         h1     11    bbb     H1    321 0.04411300   1.008000   ; qtot -0.451384
  322         h1     11    bbb     H2    322 0.04411300   1.008000   ; qtot -0.407271
  323         c3     11    bbb     C2    323 0.10137000  12.010000   ; qtot -0.305901
  324         h1     11    bbb     H3    324 0.04411300   1.008000   ; qtot -0.261788
  325         h1     11    bbb     H4    325 0.04411300   1.008000   ; qtot -0.217675
  326         c3     11    bbb     C3    326 -0.00195300  12.010000   ; qtot -0.219628
  327         h1     11    bbb     H5    327 0.05064400   1.008000   ; qtot -0.168984
  328         h1     11    bbb     H6    328 0.05064400   1.008000   ; qtot -0.118340
  329         c3     11    bbb     C4    329 -0.01612100  12.010000   ; qtot -0.134461
  330         hc     11    bbb     H7    330 0.04936100   1.008000   ; qtot -0.085100
  331         hc     11    bbb     H8    331 0.04936100   1.008000   ; qtot -0.035739
  332         c3     11    bbb     C5    332 0.11363000  12.010000   ; qtot 0.077891
  333         hc     11    bbb     H9    333 0.06265900   1.008000   ; qtot 0.140550
  334         hc     11    bbb    H10    334 0.06265900   1.008000   ; qtot 0.203209
  335         c3     11    bbb     C6    335 0.11363000  12.010000   ; qtot 0.316839
  336         hc     11    bbb    H11    336 0.06265900   1.008000   ; qtot 0.379498
  337         hc     11    bbb    H12    337 0.06265900   1.008000   ; qtot 0.442157
  338         c3     11    bbb     C7    338 0.05858200  12.010000   ; qtot 0.500739
  339         h1     11    bbb    H13    339 0.06123400   1.008000   ; qtot 0.561973
  340         h1     11    bbb    H14    340 0.06123400   1.008000   ; qtot 0.623207
  341         c3     11    bbb     C8    341 -0.72423400  12.010000   ; qtot -0.101027
  342         h1     11    bbb    H15    342 0.25637600   1.008000   ; qtot 0.155349
  343         h1     11    bbb    H16    343 0.25637600   1.008000   ; qtot 0.411725
  344         c3     11    bbb     C9    344 -0.72423400  12.010000   ; qtot -0.312509
  345         h1     11    bbb    H17    345 0.25637600   1.008000   ; qtot -0.056133
  346         h1     11    bbb    H18    346 0.25637600   1.008000   ; qtot 0.200243
  347         os     11    bbb     O1    347 -0.20025300  16.000000   ; qtot -0.000010
; residue   12 bbb rtp bbb q -0.0
  348         n3     12    bbb     N1    348 -0.59685800  14.010000   ; qtot -0.596868
  349         c3     12    bbb     C1    349 0.10137000  12.010000   ; qtot -0.495498
  350         h1     12    bbb     H1    350 0.04411300   1.008000   ; qtot -0.451385
  351         h1     12    bbb     H2    351 0.04411300   1.008000   ; qtot -0.407272
  352         c3     12    bbb     C2    352 0.10137000  12.010000   ; qtot -0.305902
  353         h1     12    bbb     H3    353 0.04411300   1.008000   ; qtot -0.261789
  354         h1     12    bbb     H4    354 0.04411300   1.008000   ; qtot -0.217676
  355         c3     12    bbb     C3    355 -0.00195300  12.010000   ; qtot -0.219629
  356         h1     12    bbb     H5    356 0.05064400   1.008000   ; qtot -0.168985
  357         h1     12    bbb     H6    357 0.05064400   1.008000   ; qtot -0.118341
  358         c3     12    bbb     C4    358 -0.01612100  12.010000   ; qtot -0.134462
  359         hc     12    bbb     H7    359 0.04936100   1.008000   ; qtot -0.085101
  360         hc     12    bbb     H8    360 0.04936100   1.008000   ; qtot -0.035740
  361         c3     12    bbb     C5    361 0.11363000  12.010000   ; qtot 0.077890
  362         hc     12    bbb     H9    362 0.06265900   1.008000   ; qtot 0.140549
  363         hc     12    bbb    H10    363 0.06265900   1.008000   ; qtot 0.203208
  364         c3     12    bbb     C6    364 0.11363000  12.010000   ; qtot 0.316838
  365         hc     12    bbb    H11    365 0.06265900   1.008000   ; qtot 0.379497
  366         hc     12    bbb    H12    366 0.06265900   1.008000   ; qtot 0.442156
  367         c3     12    bbb     C7    367 0.05858200  12.010000   ; qtot 0.500738
  368         h1     12    bbb    H13    368 0.06123400   1.008000   ; qtot 0.561972
  369         h1     12    bbb    H14    369 0.06123400   1.008000   ; qtot 0.623206
  370         c3     12    bbb     C8    370 -0.72423400  12.010000   ; qtot -0.101028
  371         h1     12    bbb    H15    371 0.25637600   1.008000   ; qtot 0.155348
  372         h1     12    bbb    H16    372 0.25637600   1.008000   ; qtot 0.411724
  373         c3     12    bbb     C9    373 -0.72423400  12.010000   ; qtot -0.312510
  374         h1     12    bbb    H17    374 0.25637600   1.008000   ; qtot -0.056134
  375         h1     12    bbb    H18    375 0.25637600   1.008000   ; qtot 0.200242
  376         os     12    bbb     O1    376 -0.20025300  16.000000   ; qtot -0.000011
; residue   13 bbb rtp bbb q -0.0
  377         n3     13    bbb     N1    377 -0.59685800  14.010000   ; qtot -0.596869
  378         c3     13    bbb     C1    378 0.10137000  12.010000   ; qtot -0.495499
  379         h1     13    bbb     H1    379 0.04411300   1.008000   ; qtot -0.451386
  380         h1     13    bbb     H2    380 0.04411300   1.008000   ; qtot -0.407273
  381         c3     13    bbb     C2    381 0.10137000  12.010000   ; qtot -0.305903
  382         h1     13    bbb     H3    382 0.04411300   1.008000   ; qtot -0.261790
  383         h1     13    bbb     H4    383 0.04411300   1.008000   ; qtot -0.217677
  384         c3     13    bbb     C3    384 -0.00195300  12.010000   ; qtot -0.219630
  385         h1     13    bbb     H5    385 0.05064400   1.008000   ; qtot -0.168986
  386         h1     13    bbb     H6    386 0.05064400   1.008000   ; qtot -0.118342
  387         c3     13    bbb     C4    387 -0.01612100  12.010000   ; qtot -0.134463
  388         hc     13    bbb     H7    388 0.04936100   1.008000   ; qtot -0.085102
  389         hc     13    bbb     H8    389 0.04936100   1.008000   ; qtot -0.035741
  390         c3     13    bbb     C5    390 0.11363000  12.010000   ; qtot 0.077889
  391         hc     13    bbb     H9    391 0.06265900   1.008000   ; qtot 0.140548
  392         hc     13    bbb    H10    392 0.06265900   1.008000   ; qtot 0.203207
  393         c3     13    bbb     C6    393 0.11363000  12.010000   ; qtot 0.316837
  394         hc     13    bbb    H11    394 0.06265900   1.008000   ; qtot 0.379496
  395         hc     13    bbb    H12    395 0.06265900   1.008000   ; qtot 0.442155
  396         c3     13    bbb     C7    396 0.05858200  12.010000   ; qtot 0.500737
  397         h1     13    bbb    H13    397 0.06123400   1.008000   ; qtot 0.561971
  398         h1     13    bbb    H14    398 0.06123400   1.008000   ; qtot 0.623205
  399         c3     13    bbb     C8    399 -0.72423400  12.010000   ; qtot -0.101029
  400         h1     13    bbb    H15    400 0.25637600   1.008000   ; qtot 0.155347
  401         h1     13    bbb    H16    401 0.25637600   1.008000   ; qtot 0.411723
  402         c3     13    bbb     C9    402 -0.72423400  12.010000   ; qtot -0.312511
  403         h1     13    bbb    H17    403 0.25637600   1.008000   ; qtot -0.056135
  404         h1     13    bbb    H18    404 0.25637600   1.008000   ; qtot 0.200241
  405         os     13    bbb     O1    405 -0.20025300  16.000000   ; qtot -0.000012
; residue   14 ccc rtp ccc q 0.0
  406         c3     14    ccc     C1    406 0.50749700  12.010000   ; qtot 0.507485
  407         h1     14    ccc     H1    407 -0.02808400   1.008000   ; qtot 0.479401
  408         h1     14    ccc     H2    408 -0.02808400   1.008000   ; qtot 0.451317
  409         c3     14    ccc     C2    409 -0.15486000  12.010000   ; qtot 0.296457
  410         hc     14    ccc     H3    410 0.10266400   1.008000   ; qtot 0.399121
  411         hc     14    ccc     H4    411 0.10266400   1.008000   ; qtot 0.501785
  412         c3     14    ccc     C3    412 -0.15693500  12.010000   ; qtot 0.344850
  413         h1     14    ccc     H5    413 0.08499200   1.008000   ; qtot 0.429842
  414         h1     14    ccc     H6    414 0.08499200   1.008000   ; qtot 0.514834
  415         n3     14    ccc     N1    415 -0.29948700  14.010000   ; qtot 0.215347
  416         c3     14    ccc     C4    416 -0.01321200  12.010000   ; qtot 0.202135
  417         h1     14    ccc     H7    417 0.08172200   1.008000   ; qtot 0.283857
  418         h1     14    ccc     H8    418 0.08172200   1.008000   ; qtot 0.365579
  419         c3     14    ccc     C5    419 -0.22180000  12.010000   ; qtot 0.143779
  420         hc     14    ccc     H9    420 0.09671800   1.008000   ; qtot 0.240497
  421         hc     14    ccc    H10    421 0.09671800   1.008000   ; qtot 0.337215
  422          c     14    ccc     C6    422 0.526324  12.010000   ; qtot 1.333742
  423          o     14    ccc     O1    423 -0.39142825  16.000000   ; qtot 0.637236
  424         oh     14    ccc     O2    424 -0.56822625  16.000000   ; qtot -0.203575
  425         ho     14    ccc    H11    425 0.4186155   1.008000   ; qtot 0.322500
  426         c3     14    ccc     C7    426 -0.01321200  12.010000   ; qtot 0.309288
  427         h1     14    ccc    H12    427 0.08172200   1.008000   ; qtot 0.391010
  428         h1     14    ccc    H13    428 0.08172200   1.008000   ; qtot 0.472732
  429         c3     14    ccc     C8    429 -0.22180000  12.010000   ; qtot 0.250932
  430         hc     14    ccc    H14    430 0.09671800   1.008000   ; qtot 0.347650
  431         hc     14    ccc    H15    431 0.09671800   1.008000   ; qtot 0.444368
  432          c     14    ccc     C9    432 0.526324  12.010000   ; qtot 1.440895
  433          o     14    ccc     O3    433 -0.39142825  16.000000   ; qtot 0.744389
  434         oh     14    ccc     O4    434 -0.56822625  16.000000   ; qtot -0.096422
  435         ho     14    ccc    H16    435 0.4186155   1.008000   ; qtot 0.429653
  436         os     14    ccc     O5    436 -0.42966500  16.000000   ; qtot -0.000012
; residue   15 ccc rtp ccc q 0.0
  437         c3     15    ccc     C1    437 0.50749700  12.010000   ; qtot 0.507485
  438         h1     15    ccc     H1    438 -0.02808400   1.008000   ; qtot 0.479401
  439         h1     15    ccc     H2    439 -0.02808400   1.008000   ; qtot 0.451317
  440         c3     15    ccc     C2    440 -0.15486000  12.010000   ; qtot 0.296457
  441         hc     15    ccc     H3    441 0.10266400   1.008000   ; qtot 0.399121
  442         hc     15    ccc     H4    442 0.10266400   1.008000   ; qtot 0.501785
  443         c3     15    ccc     C3    443 -0.15693500  12.010000   ; qtot 0.344850
  444         h1     15    ccc     H5    444 0.08499200   1.008000   ; qtot 0.429842
  445         h1     15    ccc     H6    445 0.08499200   1.008000   ; qtot 0.514834
  446         n3     15    ccc     N1    446 -0.29948700  14.010000   ; qtot 0.215347
  447         c3     15    ccc     C4    447 -0.01321200  12.010000   ; qtot 0.202135
  448         h1     15    ccc     H7    448 0.08172200   1.008000   ; qtot 0.283857
  449         h1     15    ccc     H8    449 0.08172200   1.008000   ; qtot 0.365579
  450         c3     15    ccc     C5    450 -0.22180000  12.010000   ; qtot 0.143779
  451         hc     15    ccc     H9    451 0.09671800   1.008000   ; qtot 0.240497
  452         hc     15    ccc    H10    452 0.09671800   1.008000   ; qtot 0.337215
  453          c     15    ccc     C6    453 0.526324  12.010000   ; qtot 1.333742
  454          o     15    ccc     O1    454 -0.39142825  16.000000   ; qtot 0.637236
  455         oh     15    ccc     O2    455 -0.56822625  16.000000   ; qtot -0.203575
  456         ho     15    ccc    H11    456 0.4186155   1.008000   ; qtot 0.322500
  457         c3     15    ccc     C7    457 -0.01321200  12.010000   ; qtot 0.309288
  458         h1     15    ccc    H12    458 0.08172200   1.008000   ; qtot 0.391010
  459         h1     15    ccc    H13    459 0.08172200   1.008000   ; qtot 0.472732
  460         c3     15    ccc     C8    460 -0.22180000  12.010000   ; qtot 0.250932
  461         hc     15    ccc    H14    461 0.09671800   1.008000   ; qtot 0.347650
  462         hc     15    ccc    H15    462 0.09671800   1.008000   ; qtot 0.444368
  463          c     15    ccc     C9    463 0.526324  12.010000   ; qtot 1.440895
  464          o     15    ccc     O3    464 -0.39142825  16.000000   ; qtot 0.744389
  465         oh     15    ccc     O4    465 -0.56822625  16.000000   ; qtot -0.096422
  466         ho     15    ccc    H16    466 0.4186155   1.008000   ; qtot 0.429653
  467         os     15    ccc     O5    467 -0.42966500  16.000000   ; qtot -0.000012
; residue   16 ccc rtp ccc q 0.0
  468         c3     16    ccc     C1    468 0.50749700  12.010000   ; qtot 0.507485
  469         h1     16    ccc     H1    469 -0.02808400   1.008000   ; qtot 0.479401
  470         h1     16    ccc     H2    470 -0.02808400   1.008000   ; qtot 0.451317
  471         c3     16    ccc     C2    471 -0.15486000  12.010000   ; qtot 0.296457
  472         hc     16    ccc     H3    472 0.10266400   1.008000   ; qtot 0.399121
  473         hc     16    ccc     H4    473 0.10266400   1.008000   ; qtot 0.501785
  474         c3     16    ccc     C3    474 -0.15693500  12.010000   ; qtot 0.344850
  475         h1     16    ccc     H5    475 0.08499200   1.008000   ; qtot 0.429842
  476         h1     16    ccc     H6    476 0.08499200   1.008000   ; qtot 0.514834
  477         n3     16    ccc     N1    477 -0.29948700  14.010000   ; qtot 0.215347
  478         c3     16    ccc     C4    478 -0.01321200  12.010000   ; qtot 0.202135
  479         h1     16    ccc     H7    479 0.08172200   1.008000   ; qtot 0.283857
  480         h1     16    ccc     H8    480 0.08172200   1.008000   ; qtot 0.365579
  481         c3     16    ccc     C5    481 -0.22180000  12.010000   ; qtot 0.143779
  482         hc     16    ccc     H9    482 0.09671800   1.008000   ; qtot 0.240497
  483         hc     16    ccc    H10    483 0.09671800   1.008000   ; qtot 0.337215
  484          c     16    ccc     C6    484 0.526324  12.010000   ; qtot 1.333742
  485          o     16    ccc     O1    485 -0.39142825  16.000000   ; qtot 0.637236
  486         oh     16    ccc     O2    486 -0.56822625  16.000000   ; qtot -0.203575
  487         ho     16    ccc    H11    487 0.4186155   1.008000   ; qtot 0.322500
  488         c3     16    ccc     C7    488 -0.01321200  12.010000   ; qtot 0.309288
  489         h1     16    ccc    H12    489 0.08172200   1.008000   ; qtot 0.391010
  490         h1     16    ccc    H13    490 0.08172200   1.008000   ; qtot 0.472732
  491         c3     16    ccc     C8    491 -0.22180000  12.010000   ; qtot 0.250932
  492         hc     16    ccc    H14    492 0.09671800   1.008000   ; qtot 0.347650
  493         hc     16    ccc    H15    493 0.09671800   1.008000   ; qtot 0.444368
  494          c     16    ccc     C9    494 0.526324  12.010000   ; qtot 1.440895
  495          o     16    ccc     O3    495 -0.39142825  16.000000   ; qtot 0.744389
  496         oh     16    ccc     O4    496 -0.56822625  16.000000   ; qtot -0.096422
  497         ho     16    ccc    H16    497 0.4186155   1.008000   ; qtot 0.429653
  498         os     16    ccc     O5    498 -0.42966500  16.000000   ; qtot -0.000012
; residue   17 ccc rtp ccc q 0.0
  499         c3     17    ccc     C1    499 0.50749700  12.010000   ; qtot 0.507485
  500         h1     17    ccc     H1    500 -0.02808400   1.008000   ; qtot 0.479401
  501         h1     17    ccc     H2    501 -0.02808400   1.008000   ; qtot 0.451317
  502         c3     17    ccc     C2    502 -0.15486000  12.010000   ; qtot 0.296457
  503         hc     17    ccc     H3    503 0.10266400   1.008000   ; qtot 0.399121
  504         hc     17    ccc     H4    504 0.10266400   1.008000   ; qtot 0.501785
  505         c3     17    ccc     C3    505 -0.15693500  12.010000   ; qtot 0.344850
  506         h1     17    ccc     H5    506 0.08499200   1.008000   ; qtot 0.429842
  507         h1     17    ccc     H6    507 0.08499200   1.008000   ; qtot 0.514834
  508         n3     17    ccc     N1    508 -0.29948700  14.010000   ; qtot 0.215347
  509         c3     17    ccc     C4    509 -0.01321200  12.010000   ; qtot 0.202135
  510         h1     17    ccc     H7    510 0.08172200   1.008000   ; qtot 0.283857
  511         h1     17    ccc     H8    511 0.08172200   1.008000   ; qtot 0.365579
  512         c3     17    ccc     C5    512 -0.22180000  12.010000   ; qtot 0.143779
  513         hc     17    ccc     H9    513 0.09671800   1.008000   ; qtot 0.240497
  514         hc     17    ccc    H10    514 0.09671800   1.008000   ; qtot 0.337215
  515          c     17    ccc     C6    515 0.526324  12.010000   ; qtot 1.333742
  516          o     17    ccc     O1    516 -0.39142825  16.000000   ; qtot 0.637236
  517         oh     17    ccc     O2    517 -0.56822625  16.000000   ; qtot -0.203575
  518         ho     17    ccc    H11    518 0.4186155   1.008000   ; qtot 0.322500
  519         c3     17    ccc     C7    519 -0.01321200  12.010000   ; qtot 0.309288
  520         h1     17    ccc    H12    520 0.08172200   1.008000   ; qtot 0.391010
  521         h1     17    ccc    H13    521 0.08172200   1.008000   ; qtot 0.472732
  522         c3     17    ccc     C8    522 -0.22180000  12.010000   ; qtot 0.250932
  523         hc     17    ccc    H14    523 0.09671800   1.008000   ; qtot 0.347650
  524         hc     17    ccc    H15    524 0.09671800   1.008000   ; qtot 0.444368
  525          c     17    ccc     C9    525 0.526324  12.010000   ; qtot 1.440895
  526          o     17    ccc     O3    526 -0.39142825  16.000000   ; qtot 0.744389
  527         oh     17    ccc     O4    527 -0.56822625  16.000000   ; qtot -0.096422
  528         ho     17    ccc    H16    528 0.4186155   1.008000   ; qtot 0.429653
  529         os     17    ccc     O5    529 -0.42966500  16.000000   ; qtot -0.000012
; residue   18 ccc rtp ccc q 0.0
  530         c3     18    ccc     C1    530 0.50749700  12.010000   ; qtot 0.507485
  531         h1     18    ccc     H1    531 -0.02808400   1.008000   ; qtot 0.479401
  532         h1     18    ccc     H2    532 -0.02808400   1.008000   ; qtot 0.451317
  533         c3     18    ccc     C2    533 -0.15486000  12.010000   ; qtot 0.296457
  534         hc     18    ccc     H3    534 0.10266400   1.008000   ; qtot 0.399121
  535         hc     18    ccc     H4    535 0.10266400   1.008000   ; qtot 0.501785
  536         c3     18    ccc     C3    536 -0.15693500  12.010000   ; qtot 0.344850
  537         h1     18    ccc     H5    537 0.08499200   1.008000   ; qtot 0.429842
  538         h1     18    ccc     H6    538 0.08499200   1.008000   ; qtot 0.514834
  539         n3     18    ccc     N1    539 -0.29948700  14.010000   ; qtot 0.215347
  540         c3     18    ccc     C4    540 -0.01321200  12.010000   ; qtot 0.202135
  541         h1     18    ccc     H7    541 0.08172200   1.008000   ; qtot 0.283857
  542         h1     18    ccc     H8    542 0.08172200   1.008000   ; qtot 0.365579
  543         c3     18    ccc     C5    543 -0.22180000  12.010000   ; qtot 0.143779
  544         hc     18    ccc     H9    544 0.09671800   1.008000   ; qtot 0.240497
  545         hc     18    ccc    H10    545 0.09671800   1.008000   ; qtot 0.337215
  546          c     18    ccc     C6    546 0.526324  12.010000   ; qtot 1.333742
  547          o     18    ccc     O1    547 -0.39142825  16.000000   ; qtot 0.637236
  548         oh     18    ccc     O2    548 -0.56822625  16.000000   ; qtot -0.203575
  549         ho     18    ccc    H11    549 0.4186155   1.008000   ; qtot 0.322500
  550         c3     18    ccc     C7    550 -0.01321200  12.010000   ; qtot 0.309288
  551         h1     18    ccc    H12    551 0.08172200   1.008000   ; qtot 0.391010
  552         h1     18    ccc    H13    552 0.08172200   1.008000   ; qtot 0.472732
  553         c3     18    ccc     C8    553 -0.22180000  12.010000   ; qtot 0.250932
  554         hc     18    ccc    H14    554 0.09671800   1.008000   ; qtot 0.347650
  555         hc     18    ccc    H15    555 0.09671800   1.008000   ; qtot 0.444368
  556          c     18    ccc     C9    556 0.526324  12.010000   ; qtot 1.440895
  557          o     18    ccc     O3    557 -0.39142825  16.000000   ; qtot 0.744389
  558         oh     18    ccc     O4    558 -0.56822625  16.000000   ; qtot -0.096422
  559         ho     18    ccc    H16    559 0.4186155   1.008000   ; qtot 0.429653
  560         os     18    ccc     O5    560 -0.42966500  16.000000   ; qtot -0.000012
; residue   19 ccc rtp ccc q 0.0
  561         c3     19    ccc     C1    561 0.50749700  12.010000   ; qtot 0.507485
  562         h1     19    ccc     H1    562 -0.02808400   1.008000   ; qtot 0.479401
  563         h1     19    ccc     H2    563 -0.02808400   1.008000   ; qtot 0.451317
  564         c3     19    ccc     C2    564 -0.15486000  12.010000   ; qtot 0.296457
  565         hc     19    ccc     H3    565 0.10266400   1.008000   ; qtot 0.399121
  566         hc     19    ccc     H4    566 0.10266400   1.008000   ; qtot 0.501785
  567         c3     19    ccc     C3    567 -0.15693500  12.010000   ; qtot 0.344850
  568         h1     19    ccc     H5    568 0.08499200   1.008000   ; qtot 0.429842
  569         h1     19    ccc     H6    569 0.08499200   1.008000   ; qtot 0.514834
  570         n3     19    ccc     N1    570 -0.29948700  14.010000   ; qtot 0.215347
  571         c3     19    ccc     C4    571 -0.01321200  12.010000   ; qtot 0.202135
  572         h1     19    ccc     H7    572 0.08172200   1.008000   ; qtot 0.283857
  573         h1     19    ccc     H8    573 0.08172200   1.008000   ; qtot 0.365579
  574         c3     19    ccc     C5    574 -0.22180000  12.010000   ; qtot 0.143779
  575         hc     19    ccc     H9    575 0.09671800   1.008000   ; qtot 0.240497
  576         hc     19    ccc    H10    576 0.09671800   1.008000   ; qtot 0.337215
  577          c     19    ccc     C6    577 0.526324  12.010000   ; qtot 1.333742
  578          o     19    ccc     O1    578 -0.39142825  16.000000   ; qtot 0.637236
  579         oh     19    ccc     O2    579 -0.56822625  16.000000   ; qtot -0.203575
  580         ho     19    ccc    H11    580 0.4186155   1.008000   ; qtot 0.322500
  581         c3     19    ccc     C7    581 -0.01321200  12.010000   ; qtot 0.309288
  582         h1     19    ccc    H12    582 0.08172200   1.008000   ; qtot 0.391010
  583         h1     19    ccc    H13    583 0.08172200   1.008000   ; qtot 0.472732
  584         c3     19    ccc     C8    584 -0.22180000  12.010000   ; qtot 0.250932
  585         hc     19    ccc    H14    585 0.09671800   1.008000   ; qtot 0.347650
  586         hc     19    ccc    H15    586 0.09671800   1.008000   ; qtot 0.444368
  587          c     19    ccc     C9    587 0.526324  12.010000   ; qtot 1.440895
  588          o     19    ccc     O3    588 -0.39142825  16.000000   ; qtot 0.744389
  589         oh     19    ccc     O4    589 -0.56822625  16.000000   ; qtot -0.096422
  590         ho     19    ccc    H16    590 0.4186155   1.008000   ; qtot 0.429653
  591         os     19    ccc     O5    591 -0.42966500  16.000000   ; qtot -0.000012
; residue   20 ccc rtp ccc q 0.0
  592         c3     20    ccc     C1    592 0.50749700  12.010000   ; qtot 0.507485
  593         h1     20    ccc     H1    593 -0.02808400   1.008000   ; qtot 0.479401
  594         h1     20    ccc     H2    594 -0.02808400   1.008000   ; qtot 0.451317
  595         c3     20    ccc     C2    595 -0.15486000  12.010000   ; qtot 0.296457
  596         hc     20    ccc     H3    596 0.10266400   1.008000   ; qtot 0.399121
  597         hc     20    ccc     H4    597 0.10266400   1.008000   ; qtot 0.501785
  598         c3     20    ccc     C3    598 -0.15693500  12.010000   ; qtot 0.344850
  599         h1     20    ccc     H5    599 0.08499200   1.008000   ; qtot 0.429842
  600         h1     20    ccc     H6    600 0.08499200   1.008000   ; qtot 0.514834
  601         n3     20    ccc     N1    601 -0.29948700  14.010000   ; qtot 0.215347
  602         c3     20    ccc     C4    602 -0.01321200  12.010000   ; qtot 0.202135
  603         h1     20    ccc     H7    603 0.08172200   1.008000   ; qtot 0.283857
  604         h1     20    ccc     H8    604 0.08172200   1.008000   ; qtot 0.365579
  605         c3     20    ccc     C5    605 -0.22180000  12.010000   ; qtot 0.143779
  606         hc     20    ccc     H9    606 0.09671800   1.008000   ; qtot 0.240497
  607         hc     20    ccc    H10    607 0.09671800   1.008000   ; qtot 0.337215
  608          c     20    ccc     C6    608 0.526324  12.010000   ; qtot 1.333742
  609          o     20    ccc     O1    609 -0.39142825  16.000000   ; qtot 0.637236
  610         oh     20    ccc     O2    610 -0.56822625  16.000000   ; qtot -0.203575
  611         ho     20    ccc    H11    611 0.4186155   1.008000   ; qtot 0.322500
  612         c3     20    ccc     C7    612 -0.01321200  12.010000   ; qtot 0.309288
  613         h1     20    ccc    H12    613 0.08172200   1.008000   ; qtot 0.391010
  614         h1     20    ccc    H13    614 0.08172200   1.008000   ; qtot 0.472732
  615         c3     20    ccc     C8    615 -0.22180000  12.010000   ; qtot 0.250932
  616         hc     20    ccc    H14    616 0.09671800   1.008000   ; qtot 0.347650
  617         hc     20    ccc    H15    617 0.09671800   1.008000   ; qtot 0.444368
  618          c     20    ccc     C9    618 0.526324  12.010000   ; qtot 1.440895
  619          o     20    ccc     O3    619 -0.39142825  16.000000   ; qtot 0.744389
  620         oh     20    ccc     O4    620 -0.56822625  16.000000   ; qtot -0.096422
  621         ho     20    ccc    H16    621 0.4186155   1.008000   ; qtot 0.429653
  622         os     20    ccc     O5    622 -0.42966500  16.000000   ; qtot -0.000012
; residue   21 ccc rtp ccc q 0.0
  623         c3     21    ccc     C1    623 0.50749700  12.010000   ; qtot 0.507485
  624         h1     21    ccc     H1    624 -0.02808400   1.008000   ; qtot 0.479401
  625         h1     21    ccc     H2    625 -0.02808400   1.008000   ; qtot 0.451317
  626         c3     21    ccc     C2    626 -0.15486000  12.010000   ; qtot 0.296457
  627         hc     21    ccc     H3    627 0.10266400   1.008000   ; qtot 0.399121
  628         hc     21    ccc     H4    628 0.10266400   1.008000   ; qtot 0.501785
  629         c3     21    ccc     C3    629 -0.15693500  12.010000   ; qtot 0.344850
  630         h1     21    ccc     H5    630 0.08499200   1.008000   ; qtot 0.429842
  631         h1     21    ccc     H6    631 0.08499200   1.008000   ; qtot 0.514834
  632         n3     21    ccc     N1    632 -0.29948700  14.010000   ; qtot 0.215347
  633         c3     21    ccc     C4    633 -0.01321200  12.010000   ; qtot 0.202135
  634         h1     21    ccc     H7    634 0.08172200   1.008000   ; qtot 0.283857
  635         h1     21    ccc     H8    635 0.08172200   1.008000   ; qtot 0.365579
  636         c3     21    ccc     C5    636 -0.22180000  12.010000   ; qtot 0.143779
  637         hc     21    ccc     H9    637 0.09671800   1.008000   ; qtot 0.240497
  638         hc     21    ccc    H10    638 0.09671800   1.008000   ; qtot 0.337215
  639          c     21    ccc     C6    639 0.526324  12.010000   ; qtot 1.333742
  640          o     21    ccc     O1    640 -0.39142825  16.000000   ; qtot 0.637236
  641         oh     21    ccc     O2    641 -0.56822625  16.000000   ; qtot -0.203575
  642         ho     21    ccc    H11    642 0.4186155   1.008000   ; qtot 0.322500
  643         c3     21    ccc     C7    643 -0.01321200  12.010000   ; qtot 0.309288
  644         h1     21    ccc    H12    644 0.08172200   1.008000   ; qtot 0.391010
  645         h1     21    ccc    H13    645 0.08172200   1.008000   ; qtot 0.472732
  646         c3     21    ccc     C8    646 -0.22180000  12.010000   ; qtot 0.250932
  647         hc     21    ccc    H14    647 0.09671800   1.008000   ; qtot 0.347650
  648         hc     21    ccc    H15    648 0.09671800   1.008000   ; qtot 0.444368
  649          c     21    ccc     C9    649 0.526324  12.010000   ; qtot 1.440895
  650          o     21    ccc     O3    650 -0.39142825  16.000000   ; qtot 0.744389
  651         oh     21    ccc     O4    651 -0.56822625  16.000000   ; qtot -0.096422
  652         ho     21    ccc    H16    652 0.4186155   1.008000   ; qtot 0.429653
  653         os     21    ccc     O5    653 -0.42966500  16.000000   ; qtot -0.000012
; residue   22 ccc rtp ccc q 0.0
  654         c3     22    ccc     C1    654 0.50749700  12.010000   ; qtot 0.507485
  655         h1     22    ccc     H1    655 -0.02808400   1.008000   ; qtot 0.479401
  656         h1     22    ccc     H2    656 -0.02808400   1.008000   ; qtot 0.451317
  657         c3     22    ccc     C2    657 -0.15486000  12.010000   ; qtot 0.296457
  658         hc     22    ccc     H3    658 0.10266400   1.008000   ; qtot 0.399121
  659         hc     22    ccc     H4    659 0.10266400   1.008000   ; qtot 0.501785
  660         c3     22    ccc     C3    660 -0.15693500  12.010000   ; qtot 0.344850
  661         h1     22    ccc     H5    661 0.08499200   1.008000   ; qtot 0.429842
  662         h1     22    ccc     H6    662 0.08499200   1.008000   ; qtot 0.514834
  663         n3     22    ccc     N1    663 -0.29948700  14.010000   ; qtot 0.215347
  664         c3     22    ccc     C4    664 -0.01321200  12.010000   ; qtot 0.202135
  665         h1     22    ccc     H7    665 0.08172200   1.008000   ; qtot 0.283857
  666         h1     22    ccc     H8    666 0.08172200   1.008000   ; qtot 0.365579
  667         c3     22    ccc     C5    667 -0.22180000  12.010000   ; qtot 0.143779
  668         hc     22    ccc     H9    668 0.09671800   1.008000   ; qtot 0.240497
  669         hc     22    ccc    H10    669 0.09671800   1.008000   ; qtot 0.337215
  670          c     22    ccc     C6    670 0.526324  12.010000   ; qtot 1.333742
  671          o     22    ccc     O1    671 -0.39142825  16.000000   ; qtot 0.637236
  672         oh     22    ccc     O2    672 -0.56822625  16.000000   ; qtot -0.203575
  673         ho     22    ccc    H11    673 0.4186155   1.008000   ; qtot 0.322500
  674         c3     22    ccc     C7    674 -0.01321200  12.010000   ; qtot 0.309288
  675         h1     22    ccc    H12    675 0.08172200   1.008000   ; qtot 0.391010
  676         h1     22    ccc    H13    676 0.08172200   1.008000   ; qtot 0.472732
  677         c3     22    ccc     C8    677 -0.22180000  12.010000   ; qtot 0.250932
  678         hc     22    ccc    H14    678 0.09671800   1.008000   ; qtot 0.347650
  679         hc     22    ccc    H15    679 0.09671800   1.008000   ; qtot 0.444368
  680          c     22    ccc     C9    680 0.526324  12.010000   ; qtot 1.440895
  681          o     22    ccc     O3    681 -0.39142825  16.000000   ; qtot 0.744389
  682         oh     22    ccc     O4    682 -0.56822625  16.000000   ; qtot -0.096422
  683         ho     22    ccc    H16    683 0.4186155   1.008000   ; qtot 0.429653
  684         os     22    ccc     O5    684 -0.42966500  16.000000   ; qtot -0.000012
; residue   23 ccc rtp ccc q 0.0
  685         c3     23    ccc     C1    685 0.50749700  12.010000   ; qtot 0.507485
  686         h1     23    ccc     H1    686 -0.02808400   1.008000   ; qtot 0.479401
  687         h1     23    ccc     H2    687 -0.02808400   1.008000   ; qtot 0.451317
  688         c3     23    ccc     C2    688 -0.15486000  12.010000   ; qtot 0.296457
  689         hc     23    ccc     H3    689 0.10266400   1.008000   ; qtot 0.399121
  690         hc     23    ccc     H4    690 0.10266400   1.008000   ; qtot 0.501785
  691         c3     23    ccc     C3    691 -0.15693500  12.010000   ; qtot 0.344850
  692         h1     23    ccc     H5    692 0.08499200   1.008000   ; qtot 0.429842
  693         h1     23    ccc     H6    693 0.08499200   1.008000   ; qtot 0.514834
  694         n3     23    ccc     N1    694 -0.29948700  14.010000   ; qtot 0.215347
  695         c3     23    ccc     C4    695 -0.01321200  12.010000   ; qtot 0.202135
  696         h1     23    ccc     H7    696 0.08172200   1.008000   ; qtot 0.283857
  697         h1     23    ccc     H8    697 0.08172200   1.008000   ; qtot 0.365579
  698         c3     23    ccc     C5    698 -0.22180000  12.010000   ; qtot 0.143779
  699         hc     23    ccc     H9    699 0.09671800   1.008000   ; qtot 0.240497
  700         hc     23    ccc    H10    700 0.09671800   1.008000   ; qtot 0.337215
  701          c     23    ccc     C6    701 0.526324  12.010000   ; qtot 1.333742
  702          o     23    ccc     O1    702 -0.39142825  16.000000   ; qtot 0.637236
  703         oh     23    ccc     O2    703 -0.56822625  16.000000   ; qtot -0.203575
  704         ho     23    ccc    H11    704 0.4186155   1.008000   ; qtot 0.322500
  705         c3     23    ccc     C7    705 -0.01321200  12.010000   ; qtot 0.309288
  706         h1     23    ccc    H12    706 0.08172200   1.008000   ; qtot 0.391010
  707         h1     23    ccc    H13    707 0.08172200   1.008000   ; qtot 0.472732
  708         c3     23    ccc     C8    708 -0.22180000  12.010000   ; qtot 0.250932
  709         hc     23    ccc    H14    709 0.09671800   1.008000   ; qtot 0.347650
  710         hc     23    ccc    H15    710 0.09671800   1.008000   ; qtot 0.444368
  711          c     23    ccc     C9    711 0.526324  12.010000   ; qtot 1.440895
  712          o     23    ccc     O3    712 -0.39142825  16.000000   ; qtot 0.744389
  713         oh     23    ccc     O4    713 -0.56822625  16.000000   ; qtot -0.096422
  714         ho     23    ccc    H16    714 0.4186155   1.008000   ; qtot 0.429653
  715         os     23    ccc     O5    715 -0.42966500  16.000000   ; qtot -0.000012
; residue   24 ccc rtp ccc q 0.0
  716         c3     24    ccc     C1    716 0.50749700  12.010000   ; qtot 0.507485
  717         h1     24    ccc     H1    717 -0.02808400   1.008000   ; qtot 0.479401
  718         h1     24    ccc     H2    718 -0.02808400   1.008000   ; qtot 0.451317
  719         c3     24    ccc     C2    719 -0.15486000  12.010000   ; qtot 0.296457
  720         hc     24    ccc     H3    720 0.10266400   1.008000   ; qtot 0.399121
  721         hc     24    ccc     H4    721 0.10266400   1.008000   ; qtot 0.501785
  722         c3     24    ccc     C3    722 -0.15693500  12.010000   ; qtot 0.344850
  723         h1     24    ccc     H5    723 0.08499200   1.008000   ; qtot 0.429842
  724         h1     24    ccc     H6    724 0.08499200   1.008000   ; qtot 0.514834
  725         n3     24    ccc     N1    725 -0.29948700  14.010000   ; qtot 0.215347
  726         c3     24    ccc     C4    726 -0.01321200  12.010000   ; qtot 0.202135
  727         h1     24    ccc     H7    727 0.08172200   1.008000   ; qtot 0.283857
  728         h1     24    ccc     H8    728 0.08172200   1.008000   ; qtot 0.365579
  729         c3     24    ccc     C5    729 -0.22180000  12.010000   ; qtot 0.143779
  730         hc     24    ccc     H9    730 0.09671800   1.008000   ; qtot 0.240497
  731         hc     24    ccc    H10    731 0.09671800   1.008000   ; qtot 0.337215
  732          c     24    ccc     C6    732 0.526324  12.010000   ; qtot 1.333742
  733          o     24    ccc     O1    733 -0.39142825  16.000000   ; qtot 0.637236
  734         oh     24    ccc     O2    734 -0.56822625  16.000000   ; qtot -0.203575
  735         ho     24    ccc    H11    735 0.4186155   1.008000   ; qtot 0.322500
  736         c3     24    ccc     C7    736 -0.01321200  12.010000   ; qtot 0.309288
  737         h1     24    ccc    H12    737 0.08172200   1.008000   ; qtot 0.391010
  738         h1     24    ccc    H13    738 0.08172200   1.008000   ; qtot 0.472732
  739         c3     24    ccc     C8    739 -0.22180000  12.010000   ; qtot 0.250932
  740         hc     24    ccc    H14    740 0.09671800   1.008000   ; qtot 0.347650
  741         hc     24    ccc    H15    741 0.09671800   1.008000   ; qtot 0.444368
  742          c     24    ccc     C9    742 0.526324  12.010000   ; qtot 1.440895
  743          o     24    ccc     O3    743 -0.39142825  16.000000   ; qtot 0.744389
  744         oh     24    ccc     O4    744 -0.56822625  16.000000   ; qtot -0.096422
  745         ho     24    ccc    H16    745 0.4186155   1.008000   ; qtot 0.429653
  746         os     24    ccc     O5    746 -0.42966500  16.000000   ; qtot -0.000012
; residue   25 ccc rtp ccc q 0.0
  747         c3     25    ccc     C1    747 0.50749700  12.010000   ; qtot 0.507485
  748         h1     25    ccc     H1    748 -0.02808400   1.008000   ; qtot 0.479401
  749         h1     25    ccc     H2    749 -0.02808400   1.008000   ; qtot 0.451317
  750         c3     25    ccc     C2    750 -0.15486000  12.010000   ; qtot 0.296457
  751         hc     25    ccc     H3    751 0.10266400   1.008000   ; qtot 0.399121
  752         hc     25    ccc     H4    752 0.10266400   1.008000   ; qtot 0.501785
  753         c3     25    ccc     C3    753 -0.15693500  12.010000   ; qtot 0.344850
  754         h1     25    ccc     H5    754 0.08499200   1.008000   ; qtot 0.429842
  755         h1     25    ccc     H6    755 0.08499200   1.008000   ; qtot 0.514834
  756         n3     25    ccc     N1    756 -0.29948700  14.010000   ; qtot 0.215347
  757         c3     25    ccc     C4    757 -0.01321200  12.010000   ; qtot 0.202135
  758         h1     25    ccc     H7    758 0.08172200   1.008000   ; qtot 0.283857
  759         h1     25    ccc     H8    759 0.08172200   1.008000   ; qtot 0.365579
  760         c3     25    ccc     C5    760 -0.22180000  12.010000   ; qtot 0.143779
  761         hc     25    ccc     H9    761 0.09671800   1.008000   ; qtot 0.240497
  762         hc     25    ccc    H10    762 0.09671800   1.008000   ; qtot 0.337215
  763          c     25    ccc     C6    763 0.526324  12.010000   ; qtot 1.333742
  764          o     25    ccc     O1    764 -0.39142825  16.000000   ; qtot 0.637236
  765         oh     25    ccc     O2    765 -0.56822625  16.000000   ; qtot -0.203575
  766         ho     25    ccc    H11    766 0.4186155   1.008000   ; qtot 0.322500
  767         c3     25    ccc     C7    767 -0.01321200  12.010000   ; qtot 0.309288
  768         h1     25    ccc    H12    768 0.08172200   1.008000   ; qtot 0.391010
  769         h1     25    ccc    H13    769 0.08172200   1.008000   ; qtot 0.472732
  770         c3     25    ccc     C8    770 -0.22180000  12.010000   ; qtot 0.250932
  771         hc     25    ccc    H14    771 0.09671800   1.008000   ; qtot 0.347650
  772         hc     25    ccc    H15    772 0.09671800   1.008000   ; qtot 0.444368
  773          c     25    ccc     C9    773 0.526324  12.010000   ; qtot 1.440895
  774          o     25    ccc     O3    774 -0.39142825  16.000000   ; qtot 0.744389
  775         oh     25    ccc     O4    775 -0.56822625  16.000000   ; qtot -0.096422
  776         ho     25    ccc    H16    776 0.4186155   1.008000   ; qtot 0.429653
  777         os     25    ccc     O5    777 -0.42966500  16.000000   ; qtot -0.000012
; residue   26 ccc rtp ccc q 0.0
  778         c3     26    ccc     C1    778 0.50749700  12.010000   ; qtot 0.507485
  779         h1     26    ccc     H1    779 -0.02808400   1.008000   ; qtot 0.479401
  780         h1     26    ccc     H2    780 -0.02808400   1.008000   ; qtot 0.451317
  781         c3     26    ccc     C2    781 -0.15486000  12.010000   ; qtot 0.296457
  782         hc     26    ccc     H3    782 0.10266400   1.008000   ; qtot 0.399121
  783         hc     26    ccc     H4    783 0.10266400   1.008000   ; qtot 0.501785
  784         c3     26    ccc     C3    784 -0.15693500  12.010000   ; qtot 0.344850
  785         h1     26    ccc     H5    785 0.08499200   1.008000   ; qtot 0.429842
  786         h1     26    ccc     H6    786 0.08499200   1.008000   ; qtot 0.514834
  787         n3     26    ccc     N1    787 -0.29948700  14.010000   ; qtot 0.215347
  788         c3     26    ccc     C4    788 -0.01321200  12.010000   ; qtot 0.202135
  789         h1     26    ccc     H7    789 0.08172200   1.008000   ; qtot 0.283857
  790         h1     26    ccc     H8    790 0.08172200   1.008000   ; qtot 0.365579
  791         c3     26    ccc     C5    791 -0.22180000  12.010000   ; qtot 0.143779
  792         hc     26    ccc     H9    792 0.09671800   1.008000   ; qtot 0.240497
  793         hc     26    ccc    H10    793 0.09671800   1.008000   ; qtot 0.337215
  794          c     26    ccc     C6    794 0.526324  12.010000   ; qtot 1.333742
  795          o     26    ccc     O1    795 -0.39142825  16.000000   ; qtot 0.637236
  796         oh     26    ccc     O2    796 -0.56822625  16.000000   ; qtot -0.203575
  797         ho     26    ccc    H11    797 0.4186155   1.008000   ; qtot 0.322500
  798         c3     26    ccc     C7    798 -0.01321200  12.010000   ; qtot 0.309288
  799         h1     26    ccc    H12    799 0.08172200   1.008000   ; qtot 0.391010
  800         h1     26    ccc    H13    800 0.08172200   1.008000   ; qtot 0.472732
  801         c3     26    ccc     C8    801 -0.22180000  12.010000   ; qtot 0.250932
  802         hc     26    ccc    H14    802 0.09671800   1.008000   ; qtot 0.347650
  803         hc     26    ccc    H15    803 0.09671800   1.008000   ; qtot 0.444368
  804          c     26    ccc     C9    804 0.526324  12.010000   ; qtot 1.440895
  805          o     26    ccc     O3    805 -0.39142825  16.000000   ; qtot 0.744389
  806         oh     26    ccc     O4    806 -0.56822625  16.000000   ; qtot -0.096422
  807         ho     26    ccc    H16    807 0.4186155   1.008000   ; qtot 0.429653
  808         os     26    ccc     O5    808 -0.42966500  16.000000   ; qtot -0.000012
; residue   27 ccc rtp ccc q 0.0
  809         c3     27    ccc     C1    809 0.50749700  12.010000   ; qtot 0.507485
  810         h1     27    ccc     H1    810 -0.02808400   1.008000   ; qtot 0.479401
  811         h1     27    ccc     H2    811 -0.02808400   1.008000   ; qtot 0.451317
  812         c3     27    ccc     C2    812 -0.15486000  12.010000   ; qtot 0.296457
  813         hc     27    ccc     H3    813 0.10266400   1.008000   ; qtot 0.399121
  814         hc     27    ccc     H4    814 0.10266400   1.008000   ; qtot 0.501785
  815         c3     27    ccc     C3    815 -0.15693500  12.010000   ; qtot 0.344850
  816         h1     27    ccc     H5    816 0.08499200   1.008000   ; qtot 0.429842
  817         h1     27    ccc     H6    817 0.08499200   1.008000   ; qtot 0.514834
  818         n3     27    ccc     N1    818 -0.29948700  14.010000   ; qtot 0.215347
  819         c3     27    ccc     C4    819 -0.01321200  12.010000   ; qtot 0.202135
  820         h1     27    ccc     H7    820 0.08172200   1.008000   ; qtot 0.283857
  821         h1     27    ccc     H8    821 0.08172200   1.008000   ; qtot 0.365579
  822         c3     27    ccc     C5    822 -0.22180000  12.010000   ; qtot 0.143779
  823         hc     27    ccc     H9    823 0.09671800   1.008000   ; qtot 0.240497
  824         hc     27    ccc    H10    824 0.09671800   1.008000   ; qtot 0.337215
  825          c     27    ccc     C6    825 0.526324  12.010000   ; qtot 1.333742
  826          o     27    ccc     O1    826 -0.39142825  16.000000   ; qtot 0.637236
  827         oh     27    ccc     O2    827 -0.56822625  16.000000   ; qtot -0.203575
  828         ho     27    ccc    H11    828 0.4186155   1.008000   ; qtot 0.322500
  829         c3     27    ccc     C7    829 -0.01321200  12.010000   ; qtot 0.309288
  830         h1     27    ccc    H12    830 0.08172200   1.008000   ; qtot 0.391010
  831         h1     27    ccc    H13    831 0.08172200   1.008000   ; qtot 0.472732
  832         c3     27    ccc     C8    832 -0.22180000  12.010000   ; qtot 0.250932
  833         hc     27    ccc    H14    833 0.09671800   1.008000   ; qtot 0.347650
  834         hc     27    ccc    H15    834 0.09671800   1.008000   ; qtot 0.444368
  835          c     27    ccc     C9    835 0.526324  12.010000   ; qtot 1.440895
  836          o     27    ccc     O3    836 -0.39142825  16.000000   ; qtot 0.744389
  837         oh     27    ccc     O4    837 -0.56822625  16.000000   ; qtot -0.096422
  838         ho     27    ccc    H16    838 0.4186155   1.008000   ; qtot 0.429653
  839         os     27    ccc     O5    839 -0.42966500  16.000000   ; qtot -0.000012
; residue   28 ccc rtp ccc q 0.0
  840         c3     28    ccc     C1    840 0.50749700  12.010000   ; qtot 0.507485
  841         h1     28    ccc     H1    841 -0.02808400   1.008000   ; qtot 0.479401
  842         h1     28    ccc     H2    842 -0.02808400   1.008000   ; qtot 0.451317
  843         c3     28    ccc     C2    843 -0.15486000  12.010000   ; qtot 0.296457
  844         hc     28    ccc     H3    844 0.10266400   1.008000   ; qtot 0.399121
  845         hc     28    ccc     H4    845 0.10266400   1.008000   ; qtot 0.501785
  846         c3     28    ccc     C3    846 -0.15693500  12.010000   ; qtot 0.344850
  847         h1     28    ccc     H5    847 0.08499200   1.008000   ; qtot 0.429842
  848         h1     28    ccc     H6    848 0.08499200   1.008000   ; qtot 0.514834
  849         n3     28    ccc     N1    849 -0.29948700  14.010000   ; qtot 0.215347
  850         c3     28    ccc     C4    850 -0.01321200  12.010000   ; qtot 0.202135
  851         h1     28    ccc     H7    851 0.08172200   1.008000   ; qtot 0.283857
  852         h1     28    ccc     H8    852 0.08172200   1.008000   ; qtot 0.365579
  853         c3     28    ccc     C5    853 -0.22180000  12.010000   ; qtot 0.143779
  854         hc     28    ccc     H9    854 0.09671800   1.008000   ; qtot 0.240497
  855         hc     28    ccc    H10    855 0.09671800   1.008000   ; qtot 0.337215
  856          c     28    ccc     C6    856 0.526324  12.010000   ; qtot 1.333742
  857          o     28    ccc     O1    857 -0.39142825  16.000000   ; qtot 0.637236
  858         oh     28    ccc     O2    858 -0.56822625  16.000000   ; qtot -0.203575
  859         ho     28    ccc    H11    859 0.4186155   1.008000   ; qtot 0.322500
  860         c3     28    ccc     C7    860 -0.01321200  12.010000   ; qtot 0.309288
  861         h1     28    ccc    H12    861 0.08172200   1.008000   ; qtot 0.391010
  862         h1     28    ccc    H13    862 0.08172200   1.008000   ; qtot 0.472732
  863         c3     28    ccc     C8    863 -0.22180000  12.010000   ; qtot 0.250932
  864         hc     28    ccc    H14    864 0.09671800   1.008000   ; qtot 0.347650
  865         hc     28    ccc    H15    865 0.09671800   1.008000   ; qtot 0.444368
  866          c     28    ccc     C9    866 0.526324  12.010000   ; qtot 1.440895
  867          o     28    ccc     O3    867 -0.39142825  16.000000   ; qtot 0.744389
  868         oh     28    ccc     O4    868 -0.56822625  16.000000   ; qtot -0.096422
  869         ho     28    ccc    H16    869 0.4186155   1.008000   ; qtot 0.429653
  870         os     28    ccc     O5    870 -0.42966500  16.000000   ; qtot -0.000012
; residue   29 ccc rtp ccc q 0.0
  871         c3     29    ccc     C1    871 0.50749700  12.010000   ; qtot 0.507485
  872         h1     29    ccc     H1    872 -0.02808400   1.008000   ; qtot 0.479401
  873         h1     29    ccc     H2    873 -0.02808400   1.008000   ; qtot 0.451317
  874         c3     29    ccc     C2    874 -0.15486000  12.010000   ; qtot 0.296457
  875         hc     29    ccc     H3    875 0.10266400   1.008000   ; qtot 0.399121
  876         hc     29    ccc     H4    876 0.10266400   1.008000   ; qtot 0.501785
  877         c3     29    ccc     C3    877 -0.15693500  12.010000   ; qtot 0.344850
  878         h1     29    ccc     H5    878 0.08499200   1.008000   ; qtot 0.429842
  879         h1     29    ccc     H6    879 0.08499200   1.008000   ; qtot 0.514834
  880         n3     29    ccc     N1    880 -0.29948700  14.010000   ; qtot 0.215347
  881         c3     29    ccc     C4    881 -0.01321200  12.010000   ; qtot 0.202135
  882         h1     29    ccc     H7    882 0.08172200   1.008000   ; qtot 0.283857
  883         h1     29    ccc     H8    883 0.08172200   1.008000   ; qtot 0.365579
  884         c3     29    ccc     C5    884 -0.22180000  12.010000   ; qtot 0.143779
  885         hc     29    ccc     H9    885 0.09671800   1.008000   ; qtot 0.240497
  886         hc     29    ccc    H10    886 0.09671800   1.008000   ; qtot 0.337215
  887          c     29    ccc     C6    887 0.526324  12.010000   ; qtot 1.333742
  888          o     29    ccc     O1    888 -0.39142825  16.000000   ; qtot 0.637236
  889         oh     29    ccc     O2    889 -0.56822625  16.000000   ; qtot -0.203575
  890         ho     29    ccc    H11    890 0.4186155   1.008000   ; qtot 0.322500
  891         c3     29    ccc     C7    891 -0.01321200  12.010000   ; qtot 0.309288
  892         h1     29    ccc    H12    892 0.08172200   1.008000   ; qtot 0.391010
  893         h1     29    ccc    H13    893 0.08172200   1.008000   ; qtot 0.472732
  894         c3     29    ccc     C8    894 -0.22180000  12.010000   ; qtot 0.250932
  895         hc     29    ccc    H14    895 0.09671800   1.008000   ; qtot 0.347650
  896         hc     29    ccc    H15    896 0.09671800   1.008000   ; qtot 0.444368
  897          c     29    ccc     C9    897 0.526324  12.010000   ; qtot 1.440895
  898          o     29    ccc     O3    898 -0.39142825  16.000000   ; qtot 0.744389
  899         oh     29    ccc     O4    899 -0.56822625  16.000000   ; qtot -0.096422
  900         ho     29    ccc    H16    900 0.4186155   1.008000   ; qtot 0.429653
  901         os     29    ccc     O5    901 -0.42966500  16.000000   ; qtot -0.000012

[ bonds ]
;    ai     aj funct         c0         c1         c2         c3
      1      2     1   0.14316 258236.480000
      1      5     1   0.14316 258236.480000
      2      8     1   0.15375 251793.120000
      5     11     1   0.15375 251793.120000
      8     14     1   0.15375 251793.120000
     11     17     1   0.15375 251793.120000
     14     20     1   0.14647 272713.120000
     17     21     1   0.14647 272713.120000
     20     28     1   0.14647 272713.120000
     20     31     1   0.14647 272713.120000
     21     22     1   0.14647 272713.120000
     21     25     1   0.14647 272713.120000
     22     34     1   0.15375 251793.120000
     25     37     1   0.15375 251793.120000
     28     40     1   0.15375 251793.120000
     31     43     1   0.15375 251793.120000
     34     55     1   0.15375 251793.120000
     37     52     1   0.15375 251793.120000
     40     49     1   0.15375 251793.120000
     43     46     1   0.15375 251793.120000
     46     86     1   0.14316 258236.480000
     49    115     1   0.14316 258236.480000
     52    144     1   0.14316 258236.480000
     55    173     1   0.14316 258236.480000
     58     59     1   0.14647 272713.120000
     58     62     1   0.14647 272713.120000
     58     65     1   0.14647 272713.120000
     59     71     1   0.15375 251793.120000
     62     74     1   0.15375 251793.120000
     65     68     1   0.15375 251793.120000
     68     77     1   0.15375 251793.120000
     71     83     1   0.15375 251793.120000
     74     80     1   0.15375 251793.120000
     77     86     1   0.14316 258236.480000
     80    202     1   0.14316 258236.480000
     83    231     1   0.14316 258236.480000
     87     88     1   0.14647 272713.120000
     87     91     1   0.14647 272713.120000
     87     94     1   0.14647 272713.120000
     88    100     1   0.15375 251793.120000
     91    103     1   0.15375 251793.120000
     94     97     1   0.15375 251793.120000
     97    106     1   0.15375 251793.120000
    100    112     1   0.15375 251793.120000
    103    109     1   0.15375 251793.120000
    106    115     1   0.14316 258236.480000
    109    260     1   0.14316 258236.480000
    112    289     1   0.14316 258236.480000
    116    117     1   0.14647 272713.120000
    116    120     1   0.14647 272713.120000
    116    123     1   0.14647 272713.120000
    117    129     1   0.15375 251793.120000
    120    132     1   0.15375 251793.120000
    123    126     1   0.15375 251793.120000
    126    135     1   0.15375 251793.120000
    129    141     1   0.15375 251793.120000
    132    138     1   0.15375 251793.120000
    135    144     1   0.14316 258236.480000
    138    318     1   0.14316 258236.480000
    141    347     1   0.14316 258236.480000
    145    146     1   0.14647 272713.120000
    145    149     1   0.14647 272713.120000
    145    152     1   0.14647 272713.120000
    146    158     1   0.15375 251793.120000
    149    161     1   0.15375 251793.120000
    152    155     1   0.15375 251793.120000
    155    164     1   0.15375 251793.120000
    158    170     1   0.15375 251793.120000
    161    167     1   0.15375 251793.120000
    164    173     1   0.14316 258236.480000
    167    376     1   0.14316 258236.480000
    170    405     1   0.14316 258236.480000
    174    175     1   0.14647 272713.120000
    174    178     1   0.14647 272713.120000
    174    181     1   0.14647 272713.120000
    175    187     1   0.15375 251793.120000
    178    190     1   0.15375 251793.120000
    181    184     1   0.15375 251793.120000
    184    193     1   0.15375 251793.120000
    187    199     1   0.15375 251793.120000
    190    196     1   0.15375 251793.120000
    193    202     1   0.14316 258236.480000
    196    436     1   0.14316 258236.480000
    199    467     1   0.14316 258236.480000
    203    204     1   0.14647 272713.120000
    203    207     1   0.14647 272713.120000
    203    210     1   0.14647 272713.120000
    204    216     1   0.15375 251793.120000
    207    219     1   0.15375 251793.120000
    210    213     1   0.15375 251793.120000
    213    222     1   0.15375 251793.120000
    216    228     1   0.15375 251793.120000
    219    225     1   0.15375 251793.120000
    222    231     1   0.14316 258236.480000
    225    498     1   0.14316 258236.480000
    228    529     1   0.14316 258236.480000
    232    233     1   0.14647 272713.120000
    232    236     1   0.14647 272713.120000
    232    239     1   0.14647 272713.120000
    233    245     1   0.15375 251793.120000
    236    248     1   0.15375 251793.120000
    239    242     1   0.15375 251793.120000
    242    251     1   0.15375 251793.120000
    245    257     1   0.15375 251793.120000
    248    254     1   0.15375 251793.120000
    251    260     1   0.14316 258236.480000
    254    560     1   0.14316 258236.480000
    257    591     1   0.14316 258236.480000
    261    262     1   0.14647 272713.120000
    261    265     1   0.14647 272713.120000
    261    268     1   0.14647 272713.120000
    262    274     1   0.15375 251793.120000
    265    277     1   0.15375 251793.120000
    268    271     1   0.15375 251793.120000
    271    280     1   0.15375 251793.120000
    274    286     1   0.15375 251793.120000
    277    283     1   0.15375 251793.120000
    280    289     1   0.14316 258236.480000
    283    622     1   0.14316 258236.480000
    286    653     1   0.14316 258236.480000
    290    291     1   0.14647 272713.120000
    290    294     1   0.14647 272713.120000
    290    297     1   0.14647 272713.120000
    291    303     1   0.15375 251793.120000
    294    306     1   0.15375 251793.120000
    297    300     1   0.15375 251793.120000
    300    309     1   0.15375 251793.120000
    303    315     1   0.15375 251793.120000
    306    312     1   0.15375 251793.120000
    309    318     1   0.14316 258236.480000
    312    684     1   0.14316 258236.480000
    315    715     1   0.14316 258236.480000
    319    320     1   0.14647 272713.120000
    319    323     1   0.14647 272713.120000
    319    326     1   0.14647 272713.120000
    320    332     1   0.15375 251793.120000
    323    335     1   0.15375 251793.120000
    326    329     1   0.15375 251793.120000
    329    338     1   0.15375 251793.120000
    332    344     1   0.15375 251793.120000
    335    341     1   0.15375 251793.120000
    338    347     1   0.14316 258236.480000
    341    746     1   0.14316 258236.480000
    344    777     1   0.14316 258236.480000
    348    349     1   0.14647 272713.120000
    348    352     1   0.14647 272713.120000
    348    355     1   0.14647 272713.120000
    349    361     1   0.15375 251793.120000
    352    364     1   0.15375 251793.120000
    355    358     1   0.15375 251793.120000
    358    367     1   0.15375 251793.120000
    361    373     1   0.15375 251793.120000
    364    370     1   0.15375 251793.120000
    367    376     1   0.14316 258236.480000
    370    808     1   0.14316 258236.480000
    373    839     1   0.14316 258236.480000
    377    378     1   0.14647 272713.120000
    377    381     1   0.14647 272713.120000
    377    384     1   0.14647 272713.120000
    378    390     1   0.15375 251793.120000
    381    393     1   0.15375 251793.120000
    384    387     1   0.15375 251793.120000
    387    396     1   0.15375 251793.120000
    390    402     1   0.15375 251793.120000
    393    399     1   0.15375 251793.120000
    396    405     1   0.14316 258236.480000
    399    870     1   0.14316 258236.480000
    402    901     1   0.14316 258236.480000
    406    409     1   0.15375 251793.120000
    406    436     1   0.14316 258236.480000
    409    412     1   0.15375 251793.120000
    412    415     1   0.14647 272713.120000
    415    416     1   0.14647 272713.120000
    415    426     1   0.14647 272713.120000
    416    419     1   0.15375 251793.120000
    419    422     1   0.15241 261918.400000
    422    423     1   0.12183 533627.360000
    422    424     1   0.13513 334803.680000
    426    429     1   0.15375 251793.120000
    429    432     1   0.15241 261918.400000
    432    433     1   0.12183 533627.360000
    432    434     1   0.13513 334803.680000
    437    440     1   0.15375 251793.120000
    437    467     1   0.14316 258236.480000
    440    443     1   0.15375 251793.120000
    443    446     1   0.14647 272713.120000
    446    447     1   0.14647 272713.120000
    446    457     1   0.14647 272713.120000
    447    450     1   0.15375 251793.120000
    450    453     1   0.15241 261918.400000
    453    454     1   0.12183 533627.360000
    453    455     1   0.13513 334803.680000
    457    460     1   0.15375 251793.120000
    460    463     1   0.15241 261918.400000
    463    464     1   0.12183 533627.360000
    463    465     1   0.13513 334803.680000
    468    471     1   0.15375 251793.120000
    468    498     1   0.14316 258236.480000
    471    474     1   0.15375 251793.120000
    474    477     1   0.14647 272713.120000
    477    478     1   0.14647 272713.120000
    477    488     1   0.14647 272713.120000
    478    481     1   0.15375 251793.120000
    481    484     1   0.15241 261918.400000
    484    485     1   0.12183 533627.360000
    484    486     1   0.13513 334803.680000
    488    491     1   0.15375 251793.120000
    491    494     1   0.15241 261918.400000
    494    495     1   0.12183 533627.360000
    494    496     1   0.13513 334803.680000
    499    502     1   0.15375 251793.120000
    499    529     1   0.14316 258236.480000
    502    505     1   0.15375 251793.120000
    505    508     1   0.14647 272713.120000
    508    509     1   0.14647 272713.120000
    508    519     1   0.14647 272713.120000
    509    512     1   0.15375 251793.120000
    512    515     1   0.15241 261918.400000
    515    516     1   0.12183 533627.360000
    515    517     1   0.13513 334803.680000
    519    522     1   0.15375 251793.120000
    522    525     1   0.15241 261918.400000
    525    526     1   0.12183 533627.360000
    525    527     1   0.13513 334803.680000
    530    533     1   0.15375 251793.120000
    530    560     1   0.14316 258236.480000
    533    536     1   0.15375 251793.120000
    536    539     1   0.14647 272713.120000
    539    540     1   0.14647 272713.120000
    539    550     1   0.14647 272713.120000
    540    543     1   0.15375 251793.120000
    543    546     1   0.15241 261918.400000
    546    547     1   0.12183 533627.360000
    546    548     1   0.13513 334803.680000
    550    553     1   0.15375 251793.120000
    553    556     1   0.15241 261918.400000
    556    557     1   0.12183 533627.360000
    556    558     1   0.13513 334803.680000
    561    564     1   0.15375 251793.120000
    561    591     1   0.14316 258236.480000
    564    567     1   0.15375 251793.120000
    567    570     1   0.14647 272713.120000
    570    571     1   0.14647 272713.120000
    570    581     1   0.14647 272713.120000
    571    574     1   0.15375 251793.120000
    574    577     1   0.15241 261918.400000
    577    578     1   0.12183 533627.360000
    577    579     1   0.13513 334803.680000
    581    584     1   0.15375 251793.120000
    584    587     1   0.15241 261918.400000
    587    588     1   0.12183 533627.360000
    587    589     1   0.13513 334803.680000
    592    595     1   0.15375 251793.120000
    592    622     1   0.14316 258236.480000
    595    598     1   0.15375 251793.120000
    598    601     1   0.14647 272713.120000
    601    602     1   0.14647 272713.120000
    601    612     1   0.14647 272713.120000
    602    605     1   0.15375 251793.120000
    605    608     1   0.15241 261918.400000
    608    609     1   0.12183 533627.360000
    608    610     1   0.13513 334803.680000
    612    615     1   0.15375 251793.120000
    615    618     1   0.15241 261918.400000
    618    619     1   0.12183 533627.360000
    618    620     1   0.13513 334803.680000
    623    626     1   0.15375 251793.120000
    623    653     1   0.14316 258236.480000
    626    629     1   0.15375 251793.120000
    629    632     1   0.14647 272713.120000
    632    633     1   0.14647 272713.120000
    632    643     1   0.14647 272713.120000
    633    636     1   0.15375 251793.120000
    636    639     1   0.15241 261918.400000
    639    640     1   0.12183 533627.360000
    639    641     1   0.13513 334803.680000
    643    646     1   0.15375 251793.120000
    646    649     1   0.15241 261918.400000
    649    650     1   0.12183 533627.360000
    649    651     1   0.13513 334803.680000
    654    657     1   0.15375 251793.120000
    654    684     1   0.14316 258236.480000
    657    660     1   0.15375 251793.120000
    660    663     1   0.14647 272713.120000
    663    664     1   0.14647 272713.120000
    663    674     1   0.14647 272713.120000
    664    667     1   0.15375 251793.120000
    667    670     1   0.15241 261918.400000
    670    671     1   0.12183 533627.360000
    670    672     1   0.13513 334803.680000
    674    677     1   0.15375 251793.120000
    677    680     1   0.15241 261918.400000
    680    681     1   0.12183 533627.360000
    680    682     1   0.13513 334803.680000
    685    688     1   0.15375 251793.120000
    685    715     1   0.14316 258236.480000
    688    691     1   0.15375 251793.120000
    691    694     1   0.14647 272713.120000
    694    695     1   0.14647 272713.120000
    694    705     1   0.14647 272713.120000
    695    698     1   0.15375 251793.120000
    698    701     1   0.15241 261918.400000
    701    702     1   0.12183 533627.360000
    701    703     1   0.13513 334803.680000
    705    708     1   0.15375 251793.120000
    708    711     1   0.15241 261918.400000
    711    712     1   0.12183 533627.360000
    711    713     1   0.13513 334803.680000
    716    719     1   0.15375 251793.120000
    716    746     1   0.14316 258236.480000
    719    722     1   0.15375 251793.120000
    722    725     1   0.14647 272713.120000
    725    726     1   0.14647 272713.120000
    725    736     1   0.14647 272713.120000
    726    729     1   0.15375 251793.120000
    729    732     1   0.15241 261918.400000
    732    733     1   0.12183 533627.360000
    732    734     1   0.13513 334803.680000
    736    739     1   0.15375 251793.120000
    739    742     1   0.15241 261918.400000
    742    743     1   0.12183 533627.360000
    742    744     1   0.13513 334803.680000
    747    750     1   0.15375 251793.120000
    747    777     1   0.14316 258236.480000
    750    753     1   0.15375 251793.120000
    753    756     1   0.14647 272713.120000
    756    757     1   0.14647 272713.120000
    756    767     1   0.14647 272713.120000
    757    760     1   0.15375 251793.120000
    760    763     1   0.15241 261918.400000
    763    764     1   0.12183 533627.360000
    763    765     1   0.13513 334803.680000
    767    770     1   0.15375 251793.120000
    770    773     1   0.15241 261918.400000
    773    774     1   0.12183 533627.360000
    773    775     1   0.13513 334803.680000
    778    781     1   0.15375 251793.120000
    778    808     1   0.14316 258236.480000
    781    784     1   0.15375 251793.120000
    784    787     1   0.14647 272713.120000
    787    788     1   0.14647 272713.120000
    787    798     1   0.14647 272713.120000
    788    791     1   0.15375 251793.120000
    791    794     1   0.15241 261918.400000
    794    795     1   0.12183 533627.360000
    794    796     1   0.13513 334803.680000
    798    801     1   0.15375 251793.120000
    801    804     1   0.15241 261918.400000
    804    805     1   0.12183 533627.360000
    804    806     1   0.13513 334803.680000
    809    812     1   0.15375 251793.120000
    809    839     1   0.14316 258236.480000
    812    815     1   0.15375 251793.120000
    815    818     1   0.14647 272713.120000
    818    819     1   0.14647 272713.120000
    818    829     1   0.14647 272713.120000
    819    822     1   0.15375 251793.120000
    822    825     1   0.15241 261918.400000
    825    826     1   0.12183 533627.360000
    825    827     1   0.13513 334803.680000
    829    832     1   0.15375 251793.120000
    832    835     1   0.15241 261918.400000
    835    836     1   0.12183 533627.360000
    835    837     1   0.13513 334803.680000
    840    843     1   0.15375 251793.120000
    840    870     1   0.14316 258236.480000
    843    846     1   0.15375 251793.120000
    846    849     1   0.14647 272713.120000
    849    850     1   0.14647 272713.120000
    849    860     1   0.14647 272713.120000
    850    853     1   0.15375 251793.120000
    853    856     1   0.15241 261918.400000
    856    857     1   0.12183 533627.360000
    856    858     1   0.13513 334803.680000
    860    863     1   0.15375 251793.120000
    863    866     1   0.15241 261918.400000
    866    867     1   0.12183 533627.360000
    866    868     1   0.13513 334803.680000
    871    874     1   0.15375 251793.120000
    871    901     1   0.14316 258236.480000
    874    877     1   0.15375 251793.120000
    877    880     1   0.14647 272713.120000
    880    881     1   0.14647 272713.120000
    880    891     1   0.14647 272713.120000
    881    884     1   0.15375 251793.120000
    884    887     1   0.15241 261918.400000
    887    888     1   0.12183 533627.360000
    887    889     1   0.13513 334803.680000
    891    894     1   0.15375 251793.120000
    894    897     1   0.15241 261918.400000
    897    898     1   0.12183 533627.360000
    897    899     1   0.13513 334803.680000
      2      3     1   0.10969 276646.080000
      2      4     1   0.10969 276646.080000
      5      6     1   0.10969 276646.080000
      5      7     1   0.10969 276646.080000
      8      9     1   0.10969 276646.080000
      8     10     1   0.10969 276646.080000
     11     12     1   0.10969 276646.080000
     11     13     1   0.10969 276646.080000
     14     15     1   0.10969 276646.080000
     14     16     1   0.10969 276646.080000
     17     18     1   0.10969 276646.080000
     17     19     1   0.10969 276646.080000
     22     23     1   0.10969 276646.080000
     22     24     1   0.10969 276646.080000
     25     26     1   0.10969 276646.080000
     25     27     1   0.10969 276646.080000
     28     29     1   0.10969 276646.080000
     28     30     1   0.10969 276646.080000
     31     32     1   0.10969 276646.080000
     31     33     1   0.10969 276646.080000
     34     35     1   0.10969 276646.080000
     34     36     1   0.10969 276646.080000
     37     38     1   0.10969 276646.080000
     37     39     1   0.10969 276646.080000
     40     41     1   0.10969 276646.080000
     40     42     1   0.10969 276646.080000
     43     44     1   0.10969 276646.080000
     43     45     1   0.10969 276646.080000
     46     47     1   0.10969 276646.080000
     46     48     1   0.10969 276646.080000
     49     50     1   0.10969 276646.080000
     49     51     1   0.10969 276646.080000
     52     53     1   0.10969 276646.080000
     52     54     1   0.10969 276646.080000
     55     56     1   0.10969 276646.080000
     55     57     1   0.10969 276646.080000
     59     60     1   0.10969 276646.080000
     59     61     1   0.10969 276646.080000
     62     63     1   0.10969 276646.080000
     62     64     1   0.10969 276646.080000
     65     66     1   0.10969 276646.080000
     65     67     1   0.10969 276646.080000
     68     69     1   0.10969 276646.080000
     68     70     1   0.10969 276646.080000
     71     72     1   0.10969 276646.080000
     71     73     1   0.10969 276646.080000
     74     75     1   0.10969 276646.080000
     74     76     1   0.10969 276646.080000
     77     78     1   0.10969 276646.080000
     77     79     1   0.10969 276646.080000
     80     81     1   0.10969 276646.080000
     80     82     1   0.10969 276646.080000
     83     84     1   0.10969 276646.080000
     83     85     1   0.10969 276646.080000
     88     89     1   0.10969 276646.080000
     88     90     1   0.10969 276646.080000
     91     92     1   0.10969 276646.080000
     91     93     1   0.10969 276646.080000
     94     95     1   0.10969 276646.080000
     94     96     1   0.10969 276646.080000
     97     98     1   0.10969 276646.080000
     97     99     1   0.10969 276646.080000
    100    101     1   0.10969 276646.080000
    100    102     1   0.10969 276646.080000
    103    104     1   0.10969 276646.080000
    103    105     1   0.10969 276646.080000
    106    107     1   0.10969 276646.080000
    106    108     1   0.10969 276646.080000
    109    110     1   0.10969 276646.080000
    109    111     1   0.10969 276646.080000
    112    113     1   0.10969 276646.080000
    112    114     1   0.10969 276646.080000
    117    118     1   0.10969 276646.080000
    117    119     1   0.10969 276646.080000
    120    121     1   0.10969 276646.080000
    120    122     1   0.10969 276646.080000
    123    124     1   0.10969 276646.080000
    123    125     1   0.10969 276646.080000
    126    127     1   0.10969 276646.080000
    126    128     1   0.10969 276646.080000
    129    130     1   0.10969 276646.080000
    129    131     1   0.10969 276646.080000
    132    133     1   0.10969 276646.080000
    132    134     1   0.10969 276646.080000
    135    136     1   0.10969 276646.080000
    135    137     1   0.10969 276646.080000
    138    139     1   0.10969 276646.080000
    138    140     1   0.10969 276646.080000
    141    142     1   0.10969 276646.080000
    141    143     1   0.10969 276646.080000
    146    147     1   0.10969 276646.080000
    146    148     1   0.10969 276646.080000
    149    150     1   0.10969 276646.080000
    149    151     1   0.10969 276646.080000
    152    153     1   0.10969 276646.080000
    152    154     1   0.10969 276646.080000
    155    156     1   0.10969 276646.080000
    155    157     1   0.10969 276646.080000
    158    159     1   0.10969 276646.080000
    158    160     1   0.10969 276646.080000
    161    162     1   0.10969 276646.080000
    161    163     1   0.10969 276646.080000
    164    165     1   0.10969 276646.080000
    164    166     1   0.10969 276646.080000
    167    168     1   0.10969 276646.080000
    167    169     1   0.10969 276646.080000
    170    171     1   0.10969 276646.080000
    170    172     1   0.10969 276646.080000
    175    176     1   0.10969 276646.080000
    175    177     1   0.10969 276646.080000
    178    179     1   0.10969 276646.080000
    178    180     1   0.10969 276646.080000
    181    182     1   0.10969 276646.080000
    181    183     1   0.10969 276646.080000
    184    185     1   0.10969 276646.080000
    184    186     1   0.10969 276646.080000
    187    188     1   0.10969 276646.080000
    187    189     1   0.10969 276646.080000
    190    191     1   0.10969 276646.080000
    190    192     1   0.10969 276646.080000
    193    194     1   0.10969 276646.080000
    193    195     1   0.10969 276646.080000
    196    197     1   0.10969 276646.080000
    196    198     1   0.10969 276646.080000
    199    200     1   0.10969 276646.080000
    199    201     1   0.10969 276646.080000
    204    205     1   0.10969 276646.080000
    204    206     1   0.10969 276646.080000
    207    208     1   0.10969 276646.080000
    207    209     1   0.10969 276646.080000
    210    211     1   0.10969 276646.080000
    210    212     1   0.10969 276646.080000
    213    214     1   0.10969 276646.080000
    213    215     1   0.10969 276646.080000
    216    217     1   0.10969 276646.080000
    216    218     1   0.10969 276646.080000
    219    220     1   0.10969 276646.080000
    219    221     1   0.10969 276646.080000
    222    223     1   0.10969 276646.080000
    222    224     1   0.10969 276646.080000
    225    226     1   0.10969 276646.080000
    225    227     1   0.10969 276646.080000
    228    229     1   0.10969 276646.080000
    228    230     1   0.10969 276646.080000
    233    234     1   0.10969 276646.080000
    233    235     1   0.10969 276646.080000
    236    237     1   0.10969 276646.080000
    236    238     1   0.10969 276646.080000
    239    240     1   0.10969 276646.080000
    239    241     1   0.10969 276646.080000
    242    243     1   0.10969 276646.080000
    242    244     1   0.10969 276646.080000
    245    246     1   0.10969 276646.080000
    245    247     1   0.10969 276646.080000
    248    249     1   0.10969 276646.080000
    248    250     1   0.10969 276646.080000
    251    252     1   0.10969 276646.080000
    251    253     1   0.10969 276646.080000
    254    255     1   0.10969 276646.080000
    254    256     1   0.10969 276646.080000
    257    258     1   0.10969 276646.080000
    257    259     1   0.10969 276646.080000
    262    263     1   0.10969 276646.080000
    262    264     1   0.10969 276646.080000
    265    266     1   0.10969 276646.080000
    265    267     1   0.10969 276646.080000
    268    269     1   0.10969 276646.080000
    268    270     1   0.10969 276646.080000
    271    272     1   0.10969 276646.080000
    271    273     1   0.10969 276646.080000
    274    275     1   0.10969 276646.080000
    274    276     1   0.10969 276646.080000
    277    278     1   0.10969 276646.080000
    277    279     1   0.10969 276646.080000
    280    281     1   0.10969 276646.080000
    280    282     1   0.10969 276646.080000
    283    284     1   0.10969 276646.080000
    283    285     1   0.10969 276646.080000
    286    287     1   0.10969 276646.080000
    286    288     1   0.10969 276646.080000
    291    292     1   0.10969 276646.080000
    291    293     1   0.10969 276646.080000
    294    295     1   0.10969 276646.080000
    294    296     1   0.10969 276646.080000
    297    298     1   0.10969 276646.080000
    297    299     1   0.10969 276646.080000
    300    301     1   0.10969 276646.080000
    300    302     1   0.10969 276646.080000
    303    304     1   0.10969 276646.080000
    303    305     1   0.10969 276646.080000
    306    307     1   0.10969 276646.080000
    306    308     1   0.10969 276646.080000
    309    310     1   0.10969 276646.080000
    309    311     1   0.10969 276646.080000
    312    313     1   0.10969 276646.080000
    312    314     1   0.10969 276646.080000
    315    316     1   0.10969 276646.080000
    315    317     1   0.10969 276646.080000
    320    321     1   0.10969 276646.080000
    320    322     1   0.10969 276646.080000
    323    324     1   0.10969 276646.080000
    323    325     1   0.10969 276646.080000
    326    327     1   0.10969 276646.080000
    326    328     1   0.10969 276646.080000
    329    330     1   0.10969 276646.080000
    329    331     1   0.10969 276646.080000
    332    333     1   0.10969 276646.080000
    332    334     1   0.10969 276646.080000
    335    336     1   0.10969 276646.080000
    335    337     1   0.10969 276646.080000
    338    339     1   0.10969 276646.080000
    338    340     1   0.10969 276646.080000
    341    342     1   0.10969 276646.080000
    341    343     1   0.10969 276646.080000
    344    345     1   0.10969 276646.080000
    344    346     1   0.10969 276646.080000
    349    350     1   0.10969 276646.080000
    349    351     1   0.10969 276646.080000
    352    353     1   0.10969 276646.080000
    352    354     1   0.10969 276646.080000
    355    356     1   0.10969 276646.080000
    355    357     1   0.10969 276646.080000
    358    359     1   0.10969 276646.080000
    358    360     1   0.10969 276646.080000
    361    362     1   0.10969 276646.080000
    361    363     1   0.10969 276646.080000
    364    365     1   0.10969 276646.080000
    364    366     1   0.10969 276646.080000
    367    368     1   0.10969 276646.080000
    367    369     1   0.10969 276646.080000
    370    371     1   0.10969 276646.080000
    370    372     1   0.10969 276646.080000
    373    374     1   0.10969 276646.080000
    373    375     1   0.10969 276646.080000
    378    379     1   0.10969 276646.080000
    378    380     1   0.10969 276646.080000
    381    382     1   0.10969 276646.080000
    381    383     1   0.10969 276646.080000
    384    385     1   0.10969 276646.080000
    384    386     1   0.10969 276646.080000
    387    388     1   0.10969 276646.080000
    387    389     1   0.10969 276646.080000
    390    391     1   0.10969 276646.080000
    390    392     1   0.10969 276646.080000
    393    394     1   0.10969 276646.080000
    393    395     1   0.10969 276646.080000
    396    397     1   0.10969 276646.080000
    396    398     1   0.10969 276646.080000
    399    400     1   0.10969 276646.080000
    399    401     1   0.10969 276646.080000
    402    403     1   0.10969 276646.080000
    402    404     1   0.10969 276646.080000
    406    407     1   0.10969 276646.080000
    406    408     1   0.10969 276646.080000
    409    410     1   0.10969 276646.080000
    409    411     1   0.10969 276646.080000
    412    413     1   0.10969 276646.080000
    412    414     1   0.10969 276646.080000
    416    417     1   0.10969 276646.080000
    416    418     1   0.10969 276646.080000
    419    420     1   0.10969 276646.080000
    419    421     1   0.10969 276646.080000
    424    425     1   0.09730 310787.520000
    426    427     1   0.10969 276646.080000
    426    428     1   0.10969 276646.080000
    429    430     1   0.10969 276646.080000
    429    431     1   0.10969 276646.080000
    434    435     1   0.09730 310787.520000
    437    438     1   0.10969 276646.080000
    437    439     1   0.10969 276646.080000
    440    441     1   0.10969 276646.080000
    440    442     1   0.10969 276646.080000
    443    444     1   0.10969 276646.080000
    443    445     1   0.10969 276646.080000
    447    448     1   0.10969 276646.080000
    447    449     1   0.10969 276646.080000
    450    451     1   0.10969 276646.080000
    450    452     1   0.10969 276646.080000
    455    456     1   0.09730 310787.520000
    457    458     1   0.10969 276646.080000
    457    459     1   0.10969 276646.080000
    460    461     1   0.10969 276646.080000
    460    462     1   0.10969 276646.080000
    465    466     1   0.09730 310787.520000
    468    469     1   0.10969 276646.080000
    468    470     1   0.10969 276646.080000
    471    472     1   0.10969 276646.080000
    471    473     1   0.10969 276646.080000
    474    475     1   0.10969 276646.080000
    474    476     1   0.10969 276646.080000
    478    479     1   0.10969 276646.080000
    478    480     1   0.10969 276646.080000
    481    482     1   0.10969 276646.080000
    481    483     1   0.10969 276646.080000
    486    487     1   0.09730 310787.520000
    488    489     1   0.10969 276646.080000
    488    490     1   0.10969 276646.080000
    491    492     1   0.10969 276646.080000
    491    493     1   0.10969 276646.080000
    496    497     1   0.09730 310787.520000
    499    500     1   0.10969 276646.080000
    499    501     1   0.10969 276646.080000
    502    503     1   0.10969 276646.080000
    502    504     1   0.10969 276646.080000
    505    506     1   0.10969 276646.080000
    505    507     1   0.10969 276646.080000
    509    510     1   0.10969 276646.080000
    509    511     1   0.10969 276646.080000
    512    513     1   0.10969 276646.080000
    512    514     1   0.10969 276646.080000
    517    518     1   0.09730 310787.520000
    519    520     1   0.10969 276646.080000
    519    521     1   0.10969 276646.080000
    522    523     1   0.10969 276646.080000
    522    524     1   0.10969 276646.080000
    527    528     1   0.09730 310787.520000
    530    531     1   0.10969 276646.080000
    530    532     1   0.10969 276646.080000
    533    534     1   0.10969 276646.080000
    533    535     1   0.10969 276646.080000
    536    537     1   0.10969 276646.080000
    536    538     1   0.10969 276646.080000
    540    541     1   0.10969 276646.080000
    540    542     1   0.10969 276646.080000
    543    544     1   0.10969 276646.080000
    543    545     1   0.10969 276646.080000
    548    549     1   0.09730 310787.520000
    550    551     1   0.10969 276646.080000
    550    552     1   0.10969 276646.080000
    553    554     1   0.10969 276646.080000
    553    555     1   0.10969 276646.080000
    558    559     1   0.09730 310787.520000
    561    562     1   0.10969 276646.080000
    561    563     1   0.10969 276646.080000
    564    565     1   0.10969 276646.080000
    564    566     1   0.10969 276646.080000
    567    568     1   0.10969 276646.080000
    567    569     1   0.10969 276646.080000
    571    572     1   0.10969 276646.080000
    571    573     1   0.10969 276646.080000
    574    575     1   0.10969 276646.080000
    574    576     1   0.10969 276646.080000
    579    580     1   0.09730 310787.520000
    581    582     1   0.10969 276646.080000
    581    583     1   0.10969 276646.080000
    584    585     1   0.10969 276646.080000
    584    586     1   0.10969 276646.080000
    589    590     1   0.09730 310787.520000
    592    593     1   0.10969 276646.080000
    592    594     1   0.10969 276646.080000
    595    596     1   0.10969 276646.080000
    595    597     1   0.10969 276646.080000
    598    599     1   0.10969 276646.080000
    598    600     1   0.10969 276646.080000
    602    603     1   0.10969 276646.080000
    602    604     1   0.10969 276646.080000
    605    606     1   0.10969 276646.080000
    605    607     1   0.10969 276646.080000
    610    611     1   0.09730 310787.520000
    612    613     1   0.10969 276646.080000
    612    614     1   0.10969 276646.080000
    615    616     1   0.10969 276646.080000
    615    617     1   0.10969 276646.080000
    620    621     1   0.09730 310787.520000
    623    624     1   0.10969 276646.080000
    623    625     1   0.10969 276646.080000
    626    627     1   0.10969 276646.080000
    626    628     1   0.10969 276646.080000
    629    630     1   0.10969 276646.080000
    629    631     1   0.10969 276646.080000
    633    634     1   0.10969 276646.080000
    633    635     1   0.10969 276646.080000
    636    637     1   0.10969 276646.080000
    636    638     1   0.10969 276646.080000
    641    642     1   0.09730 310787.520000
    643    644     1   0.10969 276646.080000
    643    645     1   0.10969 276646.080000
    646    647     1   0.10969 276646.080000
    646    648     1   0.10969 276646.080000
    651    652     1   0.09730 310787.520000
    654    655     1   0.10969 276646.080000
    654    656     1   0.10969 276646.080000
    657    658     1   0.10969 276646.080000
    657    659     1   0.10969 276646.080000
    660    661     1   0.10969 276646.080000
    660    662     1   0.10969 276646.080000
    664    665     1   0.10969 276646.080000
    664    666     1   0.10969 276646.080000
    667    668     1   0.10969 276646.080000
    667    669     1   0.10969 276646.080000
    672    673     1   0.09730 310787.520000
    674    675     1   0.10969 276646.080000
    674    676     1   0.10969 276646.080000
    677    678     1   0.10969 276646.080000
    677    679     1   0.10969 276646.080000
    682    683     1   0.09730 310787.520000
    685    686     1   0.10969 276646.080000
    685    687     1   0.10969 276646.080000
    688    689     1   0.10969 276646.080000
    688    690     1   0.10969 276646.080000
    691    692     1   0.10969 276646.080000
    691    693     1   0.10969 276646.080000
    695    696     1   0.10969 276646.080000
    695    697     1   0.10969 276646.080000
    698    699     1   0.10969 276646.080000
    698    700     1   0.10969 276646.080000
    703    704     1   0.09730 310787.520000
    705    706     1   0.10969 276646.080000
    705    707     1   0.10969 276646.080000
    708    709     1   0.10969 276646.080000
    708    710     1   0.10969 276646.080000
    713    714     1   0.09730 310787.520000
    716    717     1   0.10969 276646.080000
    716    718     1   0.10969 276646.080000
    719    720     1   0.10969 276646.080000
    719    721     1   0.10969 276646.080000
    722    723     1   0.10969 276646.080000
    722    724     1   0.10969 276646.080000
    726    727     1   0.10969 276646.080000
    726    728     1   0.10969 276646.080000
    729    730     1   0.10969 276646.080000
    729    731     1   0.10969 276646.080000
    734    735     1   0.09730 310787.520000
    736    737     1   0.10969 276646.080000
    736    738     1   0.10969 276646.080000
    739    740     1   0.10969 276646.080000
    739    741     1   0.10969 276646.080000
    744    745     1   0.09730 310787.520000
    747    748     1   0.10969 276646.080000
    747    749     1   0.10969 276646.080000
    750    751     1   0.10969 276646.080000
    750    752     1   0.10969 276646.080000
    753    754     1   0.10969 276646.080000
    753    755     1   0.10969 276646.080000
    757    758     1   0.10969 276646.080000
    757    759     1   0.10969 276646.080000
    760    761     1   0.10969 276646.080000
    760    762     1   0.10969 276646.080000
    765    766     1   0.09730 310787.520000
    767    768     1   0.10969 276646.080000
    767    769     1   0.10969 276646.080000
    770    771     1   0.10969 276646.080000
    770    772     1   0.10969 276646.080000
    775    776     1   0.09730 310787.520000
    778    779     1   0.10969 276646.080000
    778    780     1   0.10969 276646.080000
    781    782     1   0.10969 276646.080000
    781    783     1   0.10969 276646.080000
    784    785     1   0.10969 276646.080000
    784    786     1   0.10969 276646.080000
    788    789     1   0.10969 276646.080000
    788    790     1   0.10969 276646.080000
    791    792     1   0.10969 276646.080000
    791    793     1   0.10969 276646.080000
    796    797     1   0.09730 310787.520000
    798    799     1   0.10969 276646.080000
    798    800     1   0.10969 276646.080000
    801    802     1   0.10969 276646.080000
    801    803     1   0.10969 276646.080000
    806    807     1   0.09730 310787.520000
    809    810     1   0.10969 276646.080000
    809    811     1   0.10969 276646.080000
    812    813     1   0.10969 276646.080000
    812    814     1   0.10969 276646.080000
    815    816     1   0.10969 276646.080000
    815    817     1   0.10969 276646.080000
    819    820     1   0.10969 276646.080000
    819    821     1   0.10969 276646.080000
    822    823     1   0.10969 276646.080000
    822    824     1   0.10969 276646.080000
    827    828     1   0.09730 310787.520000
    829    830     1   0.10969 276646.080000
    829    831     1   0.10969 276646.080000
    832    833     1   0.10969 276646.080000
    832    834     1   0.10969 276646.080000
    837    838     1   0.09730 310787.520000
    840    841     1   0.10969 276646.080000
    840    842     1   0.10969 276646.080000
    843    844     1   0.10969 276646.080000
    843    845     1   0.10969 276646.080000
    846    847     1   0.10969 276646.080000
    846    848     1   0.10969 276646.080000
    850    851     1   0.10969 276646.080000
    850    852     1   0.10969 276646.080000
    853    854     1   0.10969 276646.080000
    853    855     1   0.10969 276646.080000
    858    859     1   0.09730 310787.520000
    860    861     1   0.10969 276646.080000
    860    862     1   0.10969 276646.080000
    863    864     1   0.10969 276646.080000
    863    865     1   0.10969 276646.080000
    868    869     1   0.09730 310787.520000
    871    872     1   0.10969 276646.080000
    871    873     1   0.10969 276646.080000
    874    875     1   0.10969 276646.080000
    874    876     1   0.10969 276646.080000
    877    878     1   0.10969 276646.080000
    877    879     1   0.10969 276646.080000
    881    882     1   0.10969 276646.080000
    881    883     1   0.10969 276646.080000
    884    885     1   0.10969 276646.080000
    884    886     1   0.10969 276646.080000
    889    890     1   0.09730 310787.520000
    891    892     1   0.10969 276646.080000
    891    893     1   0.10969 276646.080000
    894    895     1   0.10969 276646.080000
    894    896     1   0.10969 276646.080000
    899    900     1   0.09730 310787.520000

[ pairs ]
;    ai     aj funct         c0         c1         c2         c3
      1     14     1
      1     17     1
      2     11     1
      2     20     1
      5      8     1
      5     21     1
      8     28     1
      8     31     1
     11     22     1
     11     25     1
     14     40     1
     14     43     1
     17     34     1
     17     37     1
     20     49     1
     20     46     1
     21     55     1
     21     52     1
     22     37     1
     22    173     1
     25     34     1
     25    144     1
     28     43     1
     28    115     1
     31     40     1
     31     86     1
     34    164     1
     37    135     1
     40    106     1
     43     77     1
     46     68     1
     49     97     1
     52    126     1
     55    155     1
     58     83     1
     58     80     1
     58     77     1
     59     74     1
     59     68     1
     59    231     1
     62     71     1
     62     68     1
     62    202     1
     65     71     1
     65     74     1
     65     86     1
     71    222     1
     74    193     1
     80    184     1
     83    213     1
     87    112     1
     87    109     1
     87    106     1
     88    103     1
     88     97     1
     88    289     1
     91    100     1
     91     97     1
     91    260     1
     94    100     1
     94    103     1
     94    115     1
    100    280     1
    103    251     1
    109    242     1
    112    271     1
    116    141     1
    116    138     1
    116    135     1
    117    132     1
    117    126     1
    117    347     1
    120    129     1
    120    126     1
    120    318     1
    123    129     1
    123    132     1
    123    144     1
    129    338     1
    132    309     1
    138    300     1
    141    329     1
    145    170     1
    145    167     1
    145    164     1
    146    161     1
    146    155     1
    146    405     1
    149    158     1
    149    155     1
    149    376     1
    152    158     1
    152    161     1
    152    173     1
    158    396     1
    161    367     1
    167    358     1
    170    387     1
    174    199     1
    174    196     1
    174    193     1
    175    190     1
    175    184     1
    175    467     1
    178    187     1
    178    184     1
    178    436     1
    181    187     1
    181    190     1
    181    202     1
    187    437     1
    190    406     1
    196    409     1
    199    440     1
    203    228     1
    203    225     1
    203    222     1
    204    219     1
    204    213     1
    204    529     1
    207    216     1
    207    213     1
    207    498     1
    210    216     1
    210    219     1
    210    231     1
    216    499     1
    219    468     1
    225    471     1
    228    502     1
    232    257     1
    232    254     1
    232    251     1
    233    248     1
    233    242     1
    233    591     1
    236    245     1
    236    242     1
    236    560     1
    239    245     1
    239    248     1
    239    260     1
    245    561     1
    248    530     1
    254    533     1
    257    564     1
    261    286     1
    261    283     1
    261    280     1
    262    277     1
    262    271     1
    262    653     1
    265    274     1
    265    271     1
    265    622     1
    268    274     1
    268    277     1
    268    289     1
    274    623     1
    277    592     1
    283    595     1
    286    626     1
    290    315     1
    290    312     1
    290    309     1
    291    306     1
    291    300     1
    291    715     1
    294    303     1
    294    300     1
    294    684     1
    297    303     1
    297    306     1
    297    318     1
    303    685     1
    306    654     1
    312    657     1
    315    688     1
    319    344     1
    319    341     1
    319    338     1
    320    335     1
    320    329     1
    320    777     1
    323    332     1
    323    329     1
    323    746     1
    326    332     1
    326    335     1
    326    347     1
    332    747     1
    335    716     1
    341    719     1
    344    750     1
    348    373     1
    348    370     1
    348    367     1
    349    364     1
    349    358     1
    349    839     1
    352    361     1
    352    358     1
    352    808     1
    355    361     1
    355    364     1
    355    376     1
    361    809     1
    364    778     1
    370    781     1
    373    812     1
    377    402     1
    377    399     1
    377    396     1
    378    393     1
    378    387     1
    378    901     1
    381    390     1
    381    387     1
    381    870     1
    384    390     1
    384    393     1
    384    405     1
    390    871     1
    393    840     1
    399    843     1
    402    874     1
    406    415     1
    409    416     1
    409    426     1
    412    436     1
    412    419     1
    412    429     1
    415    422     1
    415    432     1
    416    429     1
    416    423     1
    416    424     1
    419    426     1
    426    433     1
    426    434     1
    437    446     1
    440    447     1
    440    457     1
    443    450     1
    443    460     1
    443    467     1
    446    453     1
    446    463     1
    447    454     1
    447    455     1
    447    460     1
    450    457     1
    457    464     1
    457    465     1
    468    477     1
    471    478     1
    471    488     1
    474    498     1
    474    481     1
    474    491     1
    477    484     1
    477    494     1
    478    491     1
    478    485     1
    478    486     1
    481    488     1
    488    495     1
    488    496     1
    499    508     1
    502    509     1
    502    519     1
    505    512     1
    505    522     1
    505    529     1
    508    515     1
    508    525     1
    509    516     1
    509    517     1
    509    522     1
    512    519     1
    519    526     1
    519    527     1
    530    539     1
    533    540     1
    533    550     1
    536    560     1
    536    543     1
    536    553     1
    539    546     1
    539    556     1
    540    553     1
    540    547     1
    540    548     1
    543    550     1
    550    557     1
    550    558     1
    561    570     1
    564    571     1
    564    581     1
    567    574     1
    567    584     1
    567    591     1
    570    577     1
    570    587     1
    571    578     1
    571    579     1
    571    584     1
    574    581     1
    581    588     1
    581    589     1
    592    601     1
    595    602     1
    595    612     1
    598    622     1
    598    605     1
    598    615     1
    601    608     1
    601    618     1
    602    615     1
    602    609     1
    602    610     1
    605    612     1
    612    619     1
    612    620     1
    623    632     1
    626    633     1
    626    643     1
    629    636     1
    629    646     1
    629    653     1
    632    639     1
    632    649     1
    633    640     1
    633    641     1
    633    646     1
    636    643     1
    643    650     1
    643    651     1
    654    663     1
    657    664     1
    657    674     1
    660    684     1
    660    667     1
    660    677     1
    663    670     1
    663    680     1
    664    677     1
    664    671     1
    664    672     1
    667    674     1
    674    681     1
    674    682     1
    685    694     1
    688    695     1
    688    705     1
    691    698     1
    691    708     1
    691    715     1
    694    701     1
    694    711     1
    695    702     1
    695    703     1
    695    708     1
    698    705     1
    705    712     1
    705    713     1
    716    725     1
    719    726     1
    719    736     1
    722    746     1
    722    729     1
    722    739     1
    725    732     1
    725    742     1
    726    739     1
    726    733     1
    726    734     1
    729    736     1
    736    743     1
    736    744     1
    747    756     1
    750    757     1
    750    767     1
    753    760     1
    753    770     1
    753    777     1
    756    763     1
    756    773     1
    757    764     1
    757    765     1
    757    770     1
    760    767     1
    767    774     1
    767    775     1
    778    787     1
    781    788     1
    781    798     1
    784    808     1
    784    791     1
    784    801     1
    787    794     1
    787    804     1
    788    801     1
    788    795     1
    788    796     1
    791    798     1
    798    805     1
    798    806     1
    809    818     1
    812    819     1
    812    829     1
    815    822     1
    815    832     1
    815    839     1
    818    825     1
    818    835     1
    819    826     1
    819    827     1
    819    832     1
    822    829     1
    829    836     1
    829    837     1
    840    849     1
    843    850     1
    843    860     1
    846    870     1
    846    853     1
    846    863     1
    849    856     1
    849    866     1
    850    863     1
    850    857     1
    850    858     1
    853    860     1
    860    867     1
    860    868     1
    871    880     1
    874    881     1
    874    891     1
    877    884     1
    877    894     1
    877    901     1
    880    887     1
    880    897     1
    881    888     1
    881    889     1
    881    894     1
    884    891     1
    891    898     1
    891    899     1
      1      9     1
      1     10     1
      1     12     1
      1     13     1
      2      6     1
      2      7     1
      2     15     1
      2     16     1
      5      3     1
      3     14     1
      3      9     1
      3     10     1
      5      4     1
      4     14     1
      4      9     1
      4     10     1
      5     18     1
      5     19     1
      6     17     1
      6     12     1
      6     13     1
      7     17     1
      7     12     1
      7     13     1
      9     20     1
      9     15     1
      9     16     1
     10     20     1
     10     15     1
     10     16     1
     12     21     1
     12     18     1
     12     19     1
     13     21     1
     13     18     1
     13     19     1
     14     29     1
     14     30     1
     14     32     1
     14     33     1
     15     28     1
     15     31     1
     16     28     1
     16     31     1
     17     23     1
     17     24     1
     17     26     1
     17     27     1
     18     22     1
     18     25     1
     19     22     1
     19     25     1
     20     41     1
     20     42     1
     20     44     1
     20     45     1
     21     35     1
     21     36     1
     21     38     1
     21     39     1
     22     26     1
     22     27     1
     22     56     1
     22     57     1
     23     25     1
     23     55     1
     23     35     1
     23     36     1
     24     25     1
     24     55     1
     24     35     1
     24     36     1
     25     53     1
     25     54     1
     26     52     1
     26     38     1
     26     39     1
     27     52     1
     27     38     1
     27     39     1
     28     32     1
     28     33     1
     28     50     1
     28     51     1
     29     31     1
     29     49     1
     29     41     1
     29     42     1
     30     31     1
     30     49     1
     30     41     1
     30     42     1
     31     47     1
     31     48     1
     32     46     1
     32     44     1
     32     45     1
     33     46     1
     33     44     1
     33     45     1
     35    173     1
     35     56     1
     35     57     1
     36    173     1
     36     56     1
     36     57     1
     38    144     1
     38     53     1
     38     54     1
     39    144     1
     39     53     1
     39     54     1
     41    115     1
     41     50     1
     41     51     1
     42    115     1
     42     50     1
     42     51     1
     44     86     1
     44     47     1
     44     48     1
     45     86     1
     45     47     1
     45     48     1
     46     78     1
     46     79     1
     47     77     1
     48     77     1
     49    107     1
     49    108     1
     50    106     1
     51    106     1
     52    136     1
     52    137     1
     53    135     1
     54    135     1
     55    165     1
     55    166     1
     56    164     1
     57    164     1
     58     72     1
     58     73     1
     58     75     1
     58     76     1
     58     69     1
     58     70     1
     59     63     1
     59     64     1
     59     66     1
     59     67     1
     59     84     1
     59     85     1
     60     62     1
     60     65     1
     60     83     1
     60     72     1
     60     73     1
     61     62     1
     61     65     1
     61     83     1
     61     72     1
     61     73     1
     62     66     1
     62     67     1
     62     81     1
     62     82     1
     63     65     1
     63     80     1
     63     75     1
     63     76     1
     64     65     1
     64     80     1
     64     75     1
     64     76     1
     65     78     1
     65     79     1
     66     77     1
     66     69     1
     66     70     1
     67     77     1
     67     69     1
     67     70     1
     69     86     1
     69     78     1
     69     79     1
     70     86     1
     70     78     1
     70     79     1
     72    231     1
     72     84     1
     72     85     1
     73    231     1
     73     84     1
     73     85     1
     75    202     1
     75     81     1
     75     82     1
     76    202     1
     76     81     1
     76     82     1
     80    194     1
     80    195     1
     81    193     1
     82    193     1
     83    223     1
     83    224     1
     84    222     1
     85    222     1
     87    101     1
     87    102     1
     87    104     1
     87    105     1
     87     98     1
     87     99     1
     88     92     1
     88     93     1
     88     95     1
     88     96     1
     88    113     1
     88    114     1
     89     91     1
     89     94     1
     89    112     1
     89    101     1
     89    102     1
     90     91     1
     90     94     1
     90    112     1
     90    101     1
     90    102     1
     91     95     1
     91     96     1
     91    110     1
     91    111     1
     92     94     1
     92    109     1
     92    104     1
     92    105     1
     93     94     1
     93    109     1
     93    104     1
     93    105     1
     94    107     1
     94    108     1
     95    106     1
     95     98     1
     95     99     1
     96    106     1
     96     98     1
     96     99     1
     98    115     1
     98    107     1
     98    108     1
     99    115     1
     99    107     1
     99    108     1
    101    289     1
    101    113     1
    101    114     1
    102    289     1
    102    113     1
    102    114     1
    104    260     1
    104    110     1
    104    111     1
    105    260     1
    105    110     1
    105    111     1
    109    252     1
    109    253     1
    110    251     1
    111    251     1
    112    281     1
    112    282     1
    113    280     1
    114    280     1
    116    130     1
    116    131     1
    116    133     1
    116    134     1
    116    127     1
    116    128     1
    117    121     1
    117    122     1
    117    124     1
    117    125     1
    117    142     1
    117    143     1
    118    120     1
    118    123     1
    118    141     1
    118    130     1
    118    131     1
    119    120     1
    119    123     1
    119    141     1
    119    130     1
    119    131     1
    120    124     1
    120    125     1
    120    139     1
    120    140     1
    121    123     1
    121    138     1
    121    133     1
    121    134     1
    122    123     1
    122    138     1
    122    133     1
    122    134     1
    123    136     1
    123    137     1
    124    135     1
    124    127     1
    124    128     1
    125    135     1
    125    127     1
    125    128     1
    127    144     1
    127    136     1
    127    137     1
    128    144     1
    128    136     1
    128    137     1
    130    347     1
    130    142     1
    130    143     1
    131    347     1
    131    142     1
    131    143     1
    133    318     1
    133    139     1
    133    140     1
    134    318     1
    134    139     1
    134    140     1
    138    310     1
    138    311     1
    139    309     1
    140    309     1
    141    339     1
    141    340     1
    142    338     1
    143    338     1
    145    159     1
    145    160     1
    145    162     1
    145    163     1
    145    156     1
    145    157     1
    146    150     1
    146    151     1
    146    153     1
    146    154     1
    146    171     1
    146    172     1
    147    149     1
    147    152     1
    147    170     1
    147    159     1
    147    160     1
    148    149     1
    148    152     1
    148    170     1
    148    159     1
    148    160     1
    149    153     1
    149    154     1
    149    168     1
    149    169     1
    150    152     1
    150    167     1
    150    162     1
    150    163     1
    151    152     1
    151    167     1
    151    162     1
    151    163     1
    152    165     1
    152    166     1
    153    164     1
    153    156     1
    153    157     1
    154    164     1
    154    156     1
    154    157     1
    156    173     1
    156    165     1
    156    166     1
    157    173     1
    157    165     1
    157    166     1
    159    405     1
    159    171     1
    159    172     1
    160    405     1
    160    171     1
    160    172     1
    162    376     1
    162    168     1
    162    169     1
    163    376     1
    163    168     1
    163    169     1
    167    368     1
    167    369     1
    168    367     1
    169    367     1
    170    397     1
    170    398     1
    171    396     1
    172    396     1
    174    188     1
    174    189     1
    174    191     1
    174    192     1
    174    185     1
    174    186     1
    175    179     1
    175    180     1
    175    182     1
    175    183     1
    175    200     1
    175    201     1
    176    178     1
    176    181     1
    176    199     1
    176    188     1
    176    189     1
    177    178     1
    177    181     1
    177    199     1
    177    188     1
    177    189     1
    178    182     1
    178    183     1
    178    197     1
    178    198     1
    179    181     1
    179    196     1
    179    191     1
    179    192     1
    180    181     1
    180    196     1
    180    191     1
    180    192     1
    181    194     1
    181    195     1
    182    193     1
    182    185     1
    182    186     1
    183    193     1
    183    185     1
    183    186     1
    185    202     1
    185    194     1
    185    195     1
    186    202     1
    186    194     1
    186    195     1
    188    467     1
    188    200     1
    188    201     1
    189    467     1
    189    200     1
    189    201     1
    191    436     1
    191    197     1
    191    198     1
    192    436     1
    192    197     1
    192    198     1
    196    407     1
    196    408     1
    197    406     1
    198    406     1
    199    438     1
    199    439     1
    200    437     1
    201    437     1
    203    217     1
    203    218     1
    203    220     1
    203    221     1
    203    214     1
    203    215     1
    204    208     1
    204    209     1
    204    211     1
    204    212     1
    204    229     1
    204    230     1
    205    207     1
    205    210     1
    205    228     1
    205    217     1
    205    218     1
    206    207     1
    206    210     1
    206    228     1
    206    217     1
    206    218     1
    207    211     1
    207    212     1
    207    226     1
    207    227     1
    208    210     1
    208    225     1
    208    220     1
    208    221     1
    209    210     1
    209    225     1
    209    220     1
    209    221     1
    210    223     1
    210    224     1
    211    222     1
    211    214     1
    211    215     1
    212    222     1
    212    214     1
    212    215     1
    214    231     1
    214    223     1
    214    224     1
    215    231     1
    215    223     1
    215    224     1
    217    529     1
    217    229     1
    217    230     1
    218    529     1
    218    229     1
    218    230     1
    220    498     1
    220    226     1
    220    227     1
    221    498     1
    221    226     1
    221    227     1
    225    469     1
    225    470     1
    226    468     1
    227    468     1
    228    500     1
    228    501     1
    229    499     1
    230    499     1
    232    246     1
    232    247     1
    232    249     1
    232    250     1
    232    243     1
    232    244     1
    233    237     1
    233    238     1
    233    240     1
    233    241     1
    233    258     1
    233    259     1
    234    236     1
    234    239     1
    234    257     1
    234    246     1
    234    247     1
    235    236     1
    235    239     1
    235    257     1
    235    246     1
    235    247     1
    236    240     1
    236    241     1
    236    255     1
    236    256     1
    237    239     1
    237    254     1
    237    249     1
    237    250     1
    238    239     1
    238    254     1
    238    249     1
    238    250     1
    239    252     1
    239    253     1
    240    251     1
    240    243     1
    240    244     1
    241    251     1
    241    243     1
    241    244     1
    243    260     1
    243    252     1
    243    253     1
    244    260     1
    244    252     1
    244    253     1
    246    591     1
    246    258     1
    246    259     1
    247    591     1
    247    258     1
    247    259     1
    249    560     1
    249    255     1
    249    256     1
    250    560     1
    250    255     1
    250    256     1
    254    531     1
    254    532     1
    255    530     1
    256    530     1
    257    562     1
    257    563     1
    258    561     1
    259    561     1
    261    275     1
    261    276     1
    261    278     1
    261    279     1
    261    272     1
    261    273     1
    262    266     1
    262    267     1
    262    269     1
    262    270     1
    262    287     1
    262    288     1
    263    265     1
    263    268     1
    263    286     1
    263    275     1
    263    276     1
    264    265     1
    264    268     1
    264    286     1
    264    275     1
    264    276     1
    265    269     1
    265    270     1
    265    284     1
    265    285     1
    266    268     1
    266    283     1
    266    278     1
    266    279     1
    267    268     1
    267    283     1
    267    278     1
    267    279     1
    268    281     1
    268    282     1
    269    280     1
    269    272     1
    269    273     1
    270    280     1
    270    272     1
    270    273     1
    272    289     1
    272    281     1
    272    282     1
    273    289     1
    273    281     1
    273    282     1
    275    653     1
    275    287     1
    275    288     1
    276    653     1
    276    287     1
    276    288     1
    278    622     1
    278    284     1
    278    285     1
    279    622     1
    279    284     1
    279    285     1
    283    593     1
    283    594     1
    284    592     1
    285    592     1
    286    624     1
    286    625     1
    287    623     1
    288    623     1
    290    304     1
    290    305     1
    290    307     1
    290    308     1
    290    301     1
    290    302     1
    291    295     1
    291    296     1
    291    298     1
    291    299     1
    291    316     1
    291    317     1
    292    294     1
    292    297     1
    292    315     1
    292    304     1
    292    305     1
    293    294     1
    293    297     1
    293    315     1
    293    304     1
    293    305     1
    294    298     1
    294    299     1
    294    313     1
    294    314     1
    295    297     1
    295    312     1
    295    307     1
    295    308     1
    296    297     1
    296    312     1
    296    307     1
    296    308     1
    297    310     1
    297    311     1
    298    309     1
    298    301     1
    298    302     1
    299    309     1
    299    301     1
    299    302     1
    301    318     1
    301    310     1
    301    311     1
    302    318     1
    302    310     1
    302    311     1
    304    715     1
    304    316     1
    304    317     1
    305    715     1
    305    316     1
    305    317     1
    307    684     1
    307    313     1
    307    314     1
    308    684     1
    308    313     1
    308    314     1
    312    655     1
    312    656     1
    313    654     1
    314    654     1
    315    686     1
    315    687     1
    316    685     1
    317    685     1
    319    333     1
    319    334     1
    319    336     1
    319    337     1
    319    330     1
    319    331     1
    320    324     1
    320    325     1
    320    327     1
    320    328     1
    320    345     1
    320    346     1
    321    323     1
    321    326     1
    321    344     1
    321    333     1
    321    334     1
    322    323     1
    322    326     1
    322    344     1
    322    333     1
    322    334     1
    323    327     1
    323    328     1
    323    342     1
    323    343     1
    324    326     1
    324    341     1
    324    336     1
    324    337     1
    325    326     1
    325    341     1
    325    336     1
    325    337     1
    326    339     1
    326    340     1
    327    338     1
    327    330     1
    327    331     1
    328    338     1
    328    330     1
    328    331     1
    330    347     1
    330    339     1
    330    340     1
    331    347     1
    331    339     1
    331    340     1
    333    777     1
    333    345     1
    333    346     1
    334    777     1
    334    345     1
    334    346     1
    336    746     1
    336    342     1
    336    343     1
    337    746     1
    337    342     1
    337    343     1
    341    717     1
    341    718     1
    342    716     1
    343    716     1
    344    748     1
    344    749     1
    345    747     1
    346    747     1
    348    362     1
    348    363     1
    348    365     1
    348    366     1
    348    359     1
    348    360     1
    349    353     1
    349    354     1
    349    356     1
    349    357     1
    349    374     1
    349    375     1
    350    352     1
    350    355     1
    350    373     1
    350    362     1
    350    363     1
    351    352     1
    351    355     1
    351    373     1
    351    362     1
    351    363     1
    352    356     1
    352    357     1
    352    371     1
    352    372     1
    353    355     1
    353    370     1
    353    365     1
    353    366     1
    354    355     1
    354    370     1
    354    365     1
    354    366     1
    355    368     1
    355    369     1
    356    367     1
    356    359     1
    356    360     1
    357    367     1
    357    359     1
    357    360     1
    359    376     1
    359    368     1
    359    369     1
    360    376     1
    360    368     1
    360    369     1
    362    839     1
    362    374     1
    362    375     1
    363    839     1
    363    374     1
    363    375     1
    365    808     1
    365    371     1
    365    372     1
    366    808     1
    366    371     1
    366    372     1
    370    779     1
    370    780     1
    371    778     1
    372    778     1
    373    810     1
    373    811     1
    374    809     1
    375    809     1
    377    391     1
    377    392     1
    377    394     1
    377    395     1
    377    388     1
    377    389     1
    378    382     1
    378    383     1
    378    385     1
    378    386     1
    378    403     1
    378    404     1
    379    381     1
    379    384     1
    379    402     1
    379    391     1
    379    392     1
    380    381     1
    380    384     1
    380    402     1
    380    391     1
    380    392     1
    381    385     1
    381    386     1
    381    400     1
    381    401     1
    382    384     1
    382    399     1
    382    394     1
    382    395     1
    383    384     1
    383    399     1
    383    394     1
    383    395     1
    384    397     1
    384    398     1
    385    396     1
    385    388     1
    385    389     1
    386    396     1
    386    388     1
    386    389     1
    388    405     1
    388    397     1
    388    398     1
    389    405     1
    389    397     1
    389    398     1
    391    901     1
    391    403     1
    391    404     1
    392    901     1
    392    403     1
    392    404     1
    394    870     1
    394    400     1
    394    401     1
    395    870     1
    395    400     1
    395    401     1
    399    841     1
    399    842     1
    400    840     1
    401    840     1
    402    872     1
    402    873     1
    403    871     1
    404    871     1
    406    413     1
    406    414     1
    407    412     1
    407    410     1
    407    411     1
    408    412     1
    408    410     1
    408    411     1
    410    436     1
    410    415     1
    410    413     1
    410    414     1
    411    436     1
    411    415     1
    411    413     1
    411    414     1
    412    417     1
    412    418     1
    412    427     1
    412    428     1
    413    416     1
    413    426     1
    414    416     1
    414    426     1
    415    420     1
    415    421     1
    415    430     1
    415    431     1
    416    427     1
    416    428     1
    417    426     1
    417    422     1
    417    420     1
    417    421     1
    418    426     1
    418    422     1
    418    420     1
    418    421     1
    419    425     1
    420    423     1
    420    424     1
    421    423     1
    421    424     1
    423    425     1
    427    432     1
    427    430     1
    427    431     1
    428    432     1
    428    430     1
    428    431     1
    429    435     1
    430    433     1
    430    434     1
    431    433     1
    431    434     1
    433    435     1
    437    444     1
    437    445     1
    438    443     1
    438    441     1
    438    442     1
    439    443     1
    439    441     1
    439    442     1
    441    446     1
    441    444     1
    441    445     1
    441    467     1
    442    446     1
    442    444     1
    442    445     1
    442    467     1
    443    448     1
    443    449     1
    443    458     1
    443    459     1
    444    447     1
    444    457     1
    445    447     1
    445    457     1
    446    451     1
    446    452     1
    446    461     1
    446    462     1
    447    458     1
    447    459     1
    448    453     1
    448    451     1
    448    452     1
    448    457     1
    449    453     1
    449    451     1
    449    452     1
    449    457     1
    450    456     1
    451    454     1
    451    455     1
    452    454     1
    452    455     1
    454    456     1
    458    463     1
    458    461     1
    458    462     1
    459    463     1
    459    461     1
    459    462     1
    460    466     1
    461    464     1
    461    465     1
    462    464     1
    462    465     1
    464    466     1
    468    475     1
    468    476     1
    469    474     1
    469    472     1
    469    473     1
    470    474     1
    470    472     1
    470    473     1
    472    498     1
    472    477     1
    472    475     1
    472    476     1
    473    498     1
    473    477     1
    473    475     1
    473    476     1
    474    479     1
    474    480     1
    474    489     1
    474    490     1
    475    478     1
    475    488     1
    476    478     1
    476    488     1
    477    482     1
    477    483     1
    477    492     1
    477    493     1
    478    489     1
    478    490     1
    479    488     1
    479    484     1
    479    482     1
    479    483     1
    480    488     1
    480    484     1
    480    482     1
    480    483     1
    481    487     1
    482    485     1
    482    486     1
    483    485     1
    483    486     1
    485    487     1
    489    494     1
    489    492     1
    489    493     1
    490    494     1
    490    492     1
    490    493     1
    491    497     1
    492    495     1
    492    496     1
    493    495     1
    493    496     1
    495    497     1
    499    506     1
    499    507     1
    500    505     1
    500    503     1
    500    504     1
    501    505     1
    501    503     1
    501    504     1
    503    508     1
    503    506     1
    503    507     1
    503    529     1
    504    508     1
    504    506     1
    504    507     1
    504    529     1
    505    510     1
    505    511     1
    505    520     1
    505    521     1
    506    509     1
    506    519     1
    507    509     1
    507    519     1
    508    513     1
    508    514     1
    508    523     1
    508    524     1
    509    520     1
    509    521     1
    510    515     1
    510    513     1
    510    514     1
    510    519     1
    511    515     1
    511    513     1
    511    514     1
    511    519     1
    512    518     1
    513    516     1
    513    517     1
    514    516     1
    514    517     1
    516    518     1
    520    525     1
    520    523     1
    520    524     1
    521    525     1
    521    523     1
    521    524     1
    522    528     1
    523    526     1
    523    527     1
    524    526     1
    524    527     1
    526    528     1
    530    537     1
    530    538     1
    531    536     1
    531    534     1
    531    535     1
    532    536     1
    532    534     1
    532    535     1
    534    560     1
    534    539     1
    534    537     1
    534    538     1
    535    560     1
    535    539     1
    535    537     1
    535    538     1
    536    541     1
    536    542     1
    536    551     1
    536    552     1
    537    540     1
    537    550     1
    538    540     1
    538    550     1
    539    544     1
    539    545     1
    539    554     1
    539    555     1
    540    551     1
    540    552     1
    541    550     1
    541    546     1
    541    544     1
    541    545     1
    542    550     1
    542    546     1
    542    544     1
    542    545     1
    543    549     1
    544    547     1
    544    548     1
    545    547     1
    545    548     1
    547    549     1
    551    556     1
    551    554     1
    551    555     1
    552    556     1
    552    554     1
    552    555     1
    553    559     1
    554    557     1
    554    558     1
    555    557     1
    555    558     1
    557    559     1
    561    568     1
    561    569     1
    562    567     1
    562    565     1
    562    566     1
    563    567     1
    563    565     1
    563    566     1
    565    570     1
    565    568     1
    565    569     1
    565    591     1
    566    570     1
    566    568     1
    566    569     1
    566    591     1
    567    572     1
    567    573     1
    567    582     1
    567    583     1
    568    571     1
    568    581     1
    569    571     1
    569    581     1
    570    575     1
    570    576     1
    570    585     1
    570    586     1
    571    582     1
    571    583     1
    572    577     1
    572    575     1
    572    576     1
    572    581     1
    573    577     1
    573    575     1
    573    576     1
    573    581     1
    574    580     1
    575    578     1
    575    579     1
    576    578     1
    576    579     1
    578    580     1
    582    587     1
    582    585     1
    582    586     1
    583    587     1
    583    585     1
    583    586     1
    584    590     1
    585    588     1
    585    589     1
    586    588     1
    586    589     1
    588    590     1
    592    599     1
    592    600     1
    593    598     1
    593    596     1
    593    597     1
    594    598     1
    594    596     1
    594    597     1
    596    622     1
    596    601     1
    596    599     1
    596    600     1
    597    622     1
    597    601     1
    597    599     1
    597    600     1
    598    603     1
    598    604     1
    598    613     1
    598    614     1
    599    602     1
    599    612     1
    600    602     1
    600    612     1
    601    606     1
    601    607     1
    601    616     1
    601    617     1
    602    613     1
    602    614     1
    603    612     1
    603    608     1
    603    606     1
    603    607     1
    604    612     1
    604    608     1
    604    606     1
    604    607     1
    605    611     1
    606    609     1
    606    610     1
    607    609     1
    607    610     1
    609    611     1
    613    618     1
    613    616     1
    613    617     1
    614    618     1
    614    616     1
    614    617     1
    615    621     1
    616    619     1
    616    620     1
    617    619     1
    617    620     1
    619    621     1
    623    630     1
    623    631     1
    624    629     1
    624    627     1
    624    628     1
    625    629     1
    625    627     1
    625    628     1
    627    632     1
    627    630     1
    627    631     1
    627    653     1
    628    632     1
    628    630     1
    628    631     1
    628    653     1
    629    634     1
    629    635     1
    629    644     1
    629    645     1
    630    633     1
    630    643     1
    631    633     1
    631    643     1
    632    637     1
    632    638     1
    632    647     1
    632    648     1
    633    644     1
    633    645     1
    634    639     1
    634    637     1
    634    638     1
    634    643     1
    635    639     1
    635    637     1
    635    638     1
    635    643     1
    636    642     1
    637    640     1
    637    641     1
    638    640     1
    638    641     1
    640    642     1
    644    649     1
    644    647     1
    644    648     1
    645    649     1
    645    647     1
    645    648     1
    646    652     1
    647    650     1
    647    651     1
    648    650     1
    648    651     1
    650    652     1
    654    661     1
    654    662     1
    655    660     1
    655    658     1
    655    659     1
    656    660     1
    656    658     1
    656    659     1
    658    684     1
    658    663     1
    658    661     1
    658    662     1
    659    684     1
    659    663     1
    659    661     1
    659    662     1
    660    665     1
    660    666     1
    660    675     1
    660    676     1
    661    664     1
    661    674     1
    662    664     1
    662    674     1
    663    668     1
    663    669     1
    663    678     1
    663    679     1
    664    675     1
    664    676     1
    665    674     1
    665    670     1
    665    668     1
    665    669     1
    666    674     1
    666    670     1
    666    668     1
    666    669     1
    667    673     1
    668    671     1
    668    672     1
    669    671     1
    669    672     1
    671    673     1
    675    680     1
    675    678     1
    675    679     1
    676    680     1
    676    678     1
    676    679     1
    677    683     1
    678    681     1
    678    682     1
    679    681     1
    679    682     1
    681    683     1
    685    692     1
    685    693     1
    686    691     1
    686    689     1
    686    690     1
    687    691     1
    687    689     1
    687    690     1
    689    694     1
    689    692     1
    689    693     1
    689    715     1
    690    694     1
    690    692     1
    690    693     1
    690    715     1
    691    696     1
    691    697     1
    691    706     1
    691    707     1
    692    695     1
    692    705     1
    693    695     1
    693    705     1
    694    699     1
    694    700     1
    694    709     1
    694    710     1
    695    706     1
    695    707     1
    696    701     1
    696    699     1
    696    700     1
    696    705     1
    697    701     1
    697    699     1
    697    700     1
    697    705     1
    698    704     1
    699    702     1
    699    703     1
    700    702     1
    700    703     1
    702    704     1
    706    711     1
    706    709     1
    706    710     1
    707    711     1
    707    709     1
    707    710     1
    708    714     1
    709    712     1
    709    713     1
    710    712     1
    710    713     1
    712    714     1
    716    723     1
    716    724     1
    717    722     1
    717    720     1
    717    721     1
    718    722     1
    718    720     1
    718    721     1
    720    746     1
    720    725     1
    720    723     1
    720    724     1
    721    746     1
    721    725     1
    721    723     1
    721    724     1
    722    727     1
    722    728     1
    722    737     1
    722    738     1
    723    726     1
    723    736     1
    724    726     1
    724    736     1
    725    730     1
    725    731     1
    725    740     1
    725    741     1
    726    737     1
    726    738     1
    727    736     1
    727    732     1
    727    730     1
    727    731     1
    728    736     1
    728    732     1
    728    730     1
    728    731     1
    729    735     1
    730    733     1
    730    734     1
    731    733     1
    731    734     1
    733    735     1
    737    742     1
    737    740     1
    737    741     1
    738    742     1
    738    740     1
    738    741     1
    739    745     1
    740    743     1
    740    744     1
    741    743     1
    741    744     1
    743    745     1
    747    754     1
    747    755     1
    748    753     1
    748    751     1
    748    752     1
    749    753     1
    749    751     1
    749    752     1
    751    756     1
    751    754     1
    751    755     1
    751    777     1
    752    756     1
    752    754     1
    752    755     1
    752    777     1
    753    758     1
    753    759     1
    753    768     1
    753    769     1
    754    757     1
    754    767     1
    755    757     1
    755    767     1
    756    761     1
    756    762     1
    756    771     1
    756    772     1
    757    768     1
    757    769     1
    758    763     1
    758    761     1
    758    762     1
    758    767     1
    759    763     1
    759    761     1
    759    762     1
    759    767     1
    760    766     1
    761    764     1
    761    765     1
    762    764     1
    762    765     1
    764    766     1
    768    773     1
    768    771     1
    768    772     1
    769    773     1
    769    771     1
    769    772     1
    770    776     1
    771    774     1
    771    775     1
    772    774     1
    772    775     1
    774    776     1
    778    785     1
    778    786     1
    779    784     1
    779    782     1
    779    783     1
    780    784     1
    780    782     1
    780    783     1
    782    808     1
    782    787     1
    782    785     1
    782    786     1
    783    808     1
    783    787     1
    783    785     1
    783    786     1
    784    789     1
    784    790     1
    784    799     1
    784    800     1
    785    788     1
    785    798     1
    786    788     1
    786    798     1
    787    792     1
    787    793     1
    787    802     1
    787    803     1
    788    799     1
    788    800     1
    789    798     1
    789    794     1
    789    792     1
    789    793     1
    790    798     1
    790    794     1
    790    792     1
    790    793     1
    791    797     1
    792    795     1
    792    796     1
    793    795     1
    793    796     1
    795    797     1
    799    804     1
    799    802     1
    799    803     1
    800    804     1
    800    802     1
    800    803     1
    801    807     1
    802    805     1
    802    806     1
    803    805     1
    803    806     1
    805    807     1
    809    816     1
    809    817     1
    810    815     1
    810    813     1
    810    814     1
    811    815     1
    811    813     1
    811    814     1
    813    818     1
    813    816     1
    813    817     1
    813    839     1
    814    818     1
    814    816     1
    814    817     1
    814    839     1
    815    820     1
    815    821     1
    815    830     1
    815    831     1
    816    819     1
    816    829     1
    817    819     1
    817    829     1
    818    823     1
    818    824     1
    818    833     1
    818    834     1
    819    830     1
    819    831     1
    820    825     1
    820    823     1
    820    824     1
    820    829     1
    821    825     1
    821    823     1
    821    824     1
    821    829     1
    822    828     1
    823    826     1
    823    827     1
    824    826     1
    824    827     1
    826    828     1
    830    835     1
    830    833     1
    830    834     1
    831    835     1
    831    833     1
    831    834     1
    832    838     1
    833    836     1
    833    837     1
    834    836     1
    834    837     1
    836    838     1
    840    847     1
    840    848     1
    841    846     1
    841    844     1
    841    845     1
    842    846     1
    842    844     1
    842    845     1
    844    870     1
    844    849     1
    844    847     1
    844    848     1
    845    870     1
    845    849     1
    845    847     1
    845    848     1
    846    851     1
    846    852     1
    846    861     1
    846    862     1
    847    850     1
    847    860     1
    848    850     1
    848    860     1
    849    854     1
    849    855     1
    849    864     1
    849    865     1
    850    861     1
    850    862     1
    851    860     1
    851    856     1
    851    854     1
    851    855     1
    852    860     1
    852    856     1
    852    854     1
    852    855     1
    853    859     1
    854    857     1
    854    858     1
    855    857     1
    855    858     1
    857    859     1
    861    866     1
    861    864     1
    861    865     1
    862    866     1
    862    864     1
    862    865     1
    863    869     1
    864    867     1
    864    868     1
    865    867     1
    865    868     1
    867    869     1
    871    878     1
    871    879     1
    872    877     1
    872    875     1
    872    876     1
    873    877     1
    873    875     1
    873    876     1
    875    880     1
    875    878     1
    875    879     1
    875    901     1
    876    880     1
    876    878     1
    876    879     1
    876    901     1
    877    882     1
    877    883     1
    877    892     1
    877    893     1
    878    881     1
    878    891     1
    879    881     1
    879    891     1
    880    885     1
    880    886     1
    880    895     1
    880    896     1
    881    892     1
    881    893     1
    882    887     1
    882    885     1
    882    886     1
    882    891     1
    883    887     1
    883    885     1
    883    886     1
    883    891     1
    884    890     1
    885    888     1
    885    889     1
    886    888     1
    886    889     1
    888    890     1
    892    897     1
    892    895     1
    892    896     1
    893    897     1
    893    895     1
    893    896     1
    894    900     1
    895    898     1
    895    899     1
    896    898     1
    896    899     1
    898    900     1

[ angles ]
;    ai     aj     ak funct         c0         c1         c2         c3
      1      2      8     1   107.9700462 569.024000
      1      5     11     1   107.9700462 569.024000
      2      1      5     1   112.4800480 524.673600
      2      8     14     1   111.5100476 526.347200
      5     11     17     1   111.5100476 526.347200
      8     14     20     1   111.0400475 552.288000
     11     17     21     1   111.0400475 552.288000
     14     20     28     1   112.3500484 533.878400
     14     20     31     1   112.3500484 533.878400
     17     21     22     1   112.3500484 533.878400
     17     21     25     1   112.3500484 533.878400
     20     28     40     1   111.0400475 552.288000
     20     31     43     1   111.0400475 552.288000
     21     22     34     1   111.0400475 552.288000
     21     25     37     1   111.0400475 552.288000
     22     21     25     1   112.3500484 533.878400
     22     34     55     1   111.5100476 526.347200
     25     37     52     1   111.5100476 526.347200
     28     20     31     1   112.3500484 533.878400
     28     40     49     1   111.5100476 526.347200
     31     43     46     1   111.5100476 526.347200
     34     55    173     1   107.9700462 569.024000
     37     52    144     1   107.9700462 569.024000
     40     49    115     1   107.9700462 569.024000
     43     46     86     1   107.9700462 569.024000
     46     86     77     1   112.4800480 524.673600
     49    115    106     1   112.4800480 524.673600
     52    144    135     1   112.4800480 524.673600
     55    173    164     1   112.4800480 524.673600
     58     59     71     1   111.0400475 552.288000
     58     62     74     1   111.0400475 552.288000
     58     65     68     1   111.0400475 552.288000
     59     58     62     1   112.3500484 533.878400
     59     58     65     1   112.3500484 533.878400
     59     71     83     1   111.5100476 526.347200
     62     58     65     1   112.3500484 533.878400
     62     74     80     1   111.5100476 526.347200
     65     68     77     1   111.5100476 526.347200
     68     77     86     1   107.9700462 569.024000
     71     83    231     1   107.9700462 569.024000
     74     80    202     1   107.9700462 569.024000
     80    202    193     1   112.4800480 524.673600
     83    231    222     1   112.4800480 524.673600
     87     88    100     1   111.0400475 552.288000
     87     91    103     1   111.0400475 552.288000
     87     94     97     1   111.0400475 552.288000
     88     87     91     1   112.3500484 533.878400
     88     87     94     1   112.3500484 533.878400
     88    100    112     1   111.5100476 526.347200
     91     87     94     1   112.3500484 533.878400
     91    103    109     1   111.5100476 526.347200
     94     97    106     1   111.5100476 526.347200
     97    106    115     1   107.9700462 569.024000
    100    112    289     1   107.9700462 569.024000
    103    109    260     1   107.9700462 569.024000
    109    260    251     1   112.4800480 524.673600
    112    289    280     1   112.4800480 524.673600
    116    117    129     1   111.0400475 552.288000
    116    120    132     1   111.0400475 552.288000
    116    123    126     1   111.0400475 552.288000
    117    116    120     1   112.3500484 533.878400
    117    116    123     1   112.3500484 533.878400
    117    129    141     1   111.5100476 526.347200
    120    116    123     1   112.3500484 533.878400
    120    132    138     1   111.5100476 526.347200
    123    126    135     1   111.5100476 526.347200
    126    135    144     1   107.9700462 569.024000
    129    141    347     1   107.9700462 569.024000
    132    138    318     1   107.9700462 569.024000
    138    318    309     1   112.4800480 524.673600
    141    347    338     1   112.4800480 524.673600
    145    146    158     1   111.0400475 552.288000
    145    149    161     1   111.0400475 552.288000
    145    152    155     1   111.0400475 552.288000
    146    145    149     1   112.3500484 533.878400
    146    145    152     1   112.3500484 533.878400
    146    158    170     1   111.5100476 526.347200
    149    145    152     1   112.3500484 533.878400
    149    161    167     1   111.5100476 526.347200
    152    155    164     1   111.5100476 526.347200
    155    164    173     1   107.9700462 569.024000
    158    170    405     1   107.9700462 569.024000
    161    167    376     1   107.9700462 569.024000
    167    376    367     1   112.4800480 524.673600
    170    405    396     1   112.4800480 524.673600
    174    175    187     1   111.0400475 552.288000
    174    178    190     1   111.0400475 552.288000
    174    181    184     1   111.0400475 552.288000
    175    174    178     1   112.3500484 533.878400
    175    174    181     1   112.3500484 533.878400
    175    187    199     1   111.5100476 526.347200
    178    174    181     1   112.3500484 533.878400
    178    190    196     1   111.5100476 526.347200
    181    184    193     1   111.5100476 526.347200
    184    193    202     1   107.9700462 569.024000
    187    199    467     1   107.9700462 569.024000
    190    196    436     1   107.9700462 569.024000
    196    436    406     1   112.4800480 524.673600
    199    467    437     1   112.4800480 524.673600
    203    204    216     1   111.0400475 552.288000
    203    207    219     1   111.0400475 552.288000
    203    210    213     1   111.0400475 552.288000
    204    203    207     1   112.3500484 533.878400
    204    203    210     1   112.3500484 533.878400
    204    216    228     1   111.5100476 526.347200
    207    203    210     1   112.3500484 533.878400
    207    219    225     1   111.5100476 526.347200
    210    213    222     1   111.5100476 526.347200
    213    222    231     1   107.9700462 569.024000
    216    228    529     1   107.9700462 569.024000
    219    225    498     1   107.9700462 569.024000
    225    498    468     1   112.4800480 524.673600
    228    529    499     1   112.4800480 524.673600
    232    233    245     1   111.0400475 552.288000
    232    236    248     1   111.0400475 552.288000
    232    239    242     1   111.0400475 552.288000
    233    232    236     1   112.3500484 533.878400
    233    232    239     1   112.3500484 533.878400
    233    245    257     1   111.5100476 526.347200
    236    232    239     1   112.3500484 533.878400
    236    248    254     1   111.5100476 526.347200
    239    242    251     1   111.5100476 526.347200
    242    251    260     1   107.9700462 569.024000
    245    257    591     1   107.9700462 569.024000
    248    254    560     1   107.9700462 569.024000
    254    560    530     1   112.4800480 524.673600
    257    591    561     1   112.4800480 524.673600
    261    262    274     1   111.0400475 552.288000
    261    265    277     1   111.0400475 552.288000
    261    268    271     1   111.0400475 552.288000
    262    261    265     1   112.3500484 533.878400
    262    261    268     1   112.3500484 533.878400
    262    274    286     1   111.5100476 526.347200
    265    261    268     1   112.3500484 533.878400
    265    277    283     1   111.5100476 526.347200
    268    271    280     1   111.5100476 526.347200
    271    280    289     1   107.9700462 569.024000
    274    286    653     1   107.9700462 569.024000
    277    283    622     1   107.9700462 569.024000
    283    622    592     1   112.4800480 524.673600
    286    653    623     1   112.4800480 524.673600
    290    291    303     1   111.0400475 552.288000
    290    294    306     1   111.0400475 552.288000
    290    297    300     1   111.0400475 552.288000
    291    290    294     1   112.3500484 533.878400
    291    290    297     1   112.3500484 533.878400
    291    303    315     1   111.5100476 526.347200
    294    290    297     1   112.3500484 533.878400
    294    306    312     1   111.5100476 526.347200
    297    300    309     1   111.5100476 526.347200
    300    309    318     1   107.9700462 569.024000
    303    315    715     1   107.9700462 569.024000
    306    312    684     1   107.9700462 569.024000
    312    684    654     1   112.4800480 524.673600
    315    715    685     1   112.4800480 524.673600
    319    320    332     1   111.0400475 552.288000
    319    323    335     1   111.0400475 552.288000
    319    326    329     1   111.0400475 552.288000
    320    319    323     1   112.3500484 533.878400
    320    319    326     1   112.3500484 533.878400
    320    332    344     1   111.5100476 526.347200
    323    319    326     1   112.3500484 533.878400
    323    335    341     1   111.5100476 526.347200
    326    329    338     1   111.5100476 526.347200
    329    338    347     1   107.9700462 569.024000
    332    344    777     1   107.9700462 569.024000
    335    341    746     1   107.9700462 569.024000
    341    746    716     1   112.4800480 524.673600
    344    777    747     1   112.4800480 524.673600
    348    349    361     1   111.0400475 552.288000
    348    352    364     1   111.0400475 552.288000
    348    355    358     1   111.0400475 552.288000
    349    348    352     1   112.3500484 533.878400
    349    348    355     1   112.3500484 533.878400
    349    361    373     1   111.5100476 526.347200
    352    348    355     1   112.3500484 533.878400
    352    364    370     1   111.5100476 526.347200
    355    358    367     1   111.5100476 526.347200
    358    367    376     1   107.9700462 569.024000
    361    373    839     1   107.9700462 569.024000
    364    370    808     1   107.9700462 569.024000
    370    808    778     1   112.4800480 524.673600
    373    839    809     1   112.4800480 524.673600
    377    378    390     1   111.0400475 552.288000
    377    381    393     1   111.0400475 552.288000
    377    384    387     1   111.0400475 552.288000
    378    377    381     1   112.3500484 533.878400
    378    377    384     1   112.3500484 533.878400
    378    390    402     1   111.5100476 526.347200
    381    377    384     1   112.3500484 533.878400
    381    393    399     1   111.5100476 526.347200
    384    387    396     1   111.5100476 526.347200
    387    396    405     1   107.9700462 569.024000
    390    402    901     1   107.9700462 569.024000
    393    399    870     1   107.9700462 569.024000
    399    870    840     1   112.4800480 524.673600
    402    901    871     1   112.4800480 524.673600
    406    409    412     1   111.5100476 526.347200
    409    406    436     1   107.9700462 569.024000
    409    412    415     1   111.0400475 552.288000
    412    415    416     1   112.3500484 533.878400
    412    415    426     1   112.3500484 533.878400
    415    416    419     1   111.0400475 552.288000
    415    426    429     1   111.0400475 552.288000
    416    415    426     1   112.3500484 533.878400
    416    419    422     1   111.0400475 529.694400
    419    422    423     1   123.2000528 564.003200
    419    422    424     1   112.7300484 572.371200
    423    422    424     1   122.1000523 635.131200
    426    429    432     1   111.0400475 529.694400
    429    432    433     1   123.2000528 564.003200
    429    432    434     1   112.7300484 572.371200
    433    432    434     1   122.1000523 635.131200
    437    440    443     1   111.5100476 526.347200
    440    443    446     1   111.0400475 552.288000
    440    437    467     1   107.9700462 569.024000
    443    446    447     1   112.3500484 533.878400
    443    446    457     1   112.3500484 533.878400
    446    447    450     1   111.0400475 552.288000
    446    457    460     1   111.0400475 552.288000
    447    450    453     1   111.0400475 529.694400
    447    446    457     1   112.3500484 533.878400
    450    453    454     1   123.2000528 564.003200
    450    453    455     1   112.7300484 572.371200
    454    453    455     1   122.1000523 635.131200
    457    460    463     1   111.0400475 529.694400
    460    463    464     1   123.2000528 564.003200
    460    463    465     1   112.7300484 572.371200
    464    463    465     1   122.1000523 635.131200
    468    471    474     1   111.5100476 526.347200
    471    468    498     1   107.9700462 569.024000
    471    474    477     1   111.0400475 552.288000
    474    477    478     1   112.3500484 533.878400
    474    477    488     1   112.3500484 533.878400
    477    478    481     1   111.0400475 552.288000
    477    488    491     1   111.0400475 552.288000
    478    477    488     1   112.3500484 533.878400
    478    481    484     1   111.0400475 529.694400
    481    484    485     1   123.2000528 564.003200
    481    484    486     1   112.7300484 572.371200
    485    484    486     1   122.1000523 635.131200
    488    491    494     1   111.0400475 529.694400
    491    494    495     1   123.2000528 564.003200
    491    494    496     1   112.7300484 572.371200
    495    494    496     1   122.1000523 635.131200
    499    502    505     1   111.5100476 526.347200
    502    505    508     1   111.0400475 552.288000
    502    499    529     1   107.9700462 569.024000
    505    508    509     1   112.3500484 533.878400
    505    508    519     1   112.3500484 533.878400
    508    509    512     1   111.0400475 552.288000
    508    519    522     1   111.0400475 552.288000
    509    512    515     1   111.0400475 529.694400
    509    508    519     1   112.3500484 533.878400
    512    515    516     1   123.2000528 564.003200
    512    515    517     1   112.7300484 572.371200
    516    515    517     1   122.1000523 635.131200
    519    522    525     1   111.0400475 529.694400
    522    525    526     1   123.2000528 564.003200
    522    525    527     1   112.7300484 572.371200
    526    525    527     1   122.1000523 635.131200
    530    533    536     1   111.5100476 526.347200
    533    530    560     1   107.9700462 569.024000
    533    536    539     1   111.0400475 552.288000
    536    539    540     1   112.3500484 533.878400
    536    539    550     1   112.3500484 533.878400
    539    540    543     1   111.0400475 552.288000
    539    550    553     1   111.0400475 552.288000
    540    539    550     1   112.3500484 533.878400
    540    543    546     1   111.0400475 529.694400
    543    546    547     1   123.2000528 564.003200
    543    546    548     1   112.7300484 572.371200
    547    546    548     1   122.1000523 635.131200
    550    553    556     1   111.0400475 529.694400
    553    556    557     1   123.2000528 564.003200
    553    556    558     1   112.7300484 572.371200
    557    556    558     1   122.1000523 635.131200
    561    564    567     1   111.5100476 526.347200
    564    567    570     1   111.0400475 552.288000
    564    561    591     1   107.9700462 569.024000
    567    570    571     1   112.3500484 533.878400
    567    570    581     1   112.3500484 533.878400
    570    571    574     1   111.0400475 552.288000
    570    581    584     1   111.0400475 552.288000
    571    574    577     1   111.0400475 529.694400
    571    570    581     1   112.3500484 533.878400
    574    577    578     1   123.2000528 564.003200
    574    577    579     1   112.7300484 572.371200
    578    577    579     1   122.1000523 635.131200
    581    584    587     1   111.0400475 529.694400
    584    587    588     1   123.2000528 564.003200
    584    587    589     1   112.7300484 572.371200
    588    587    589     1   122.1000523 635.131200
    592    595    598     1   111.5100476 526.347200
    595    592    622     1   107.9700462 569.024000
    595    598    601     1   111.0400475 552.288000
    598    601    602     1   112.3500484 533.878400
    598    601    612     1   112.3500484 533.878400
    601    602    605     1   111.0400475 552.288000
    601    612    615     1   111.0400475 552.288000
    602    601    612     1   112.3500484 533.878400
    602    605    608     1   111.0400475 529.694400
    605    608    609     1   123.2000528 564.003200
    605    608    610     1   112.7300484 572.371200
    609    608    610     1   122.1000523 635.131200
    612    615    618     1   111.0400475 529.694400
    615    618    619     1   123.2000528 564.003200
    615    618    620     1   112.7300484 572.371200
    619    618    620     1   122.1000523 635.131200
    623    626    629     1   111.5100476 526.347200
    626    629    632     1   111.0400475 552.288000
    626    623    653     1   107.9700462 569.024000
    629    632    633     1   112.3500484 533.878400
    629    632    643     1   112.3500484 533.878400
    632    633    636     1   111.0400475 552.288000
    632    643    646     1   111.0400475 552.288000
    633    636    639     1   111.0400475 529.694400
    633    632    643     1   112.3500484 533.878400
    636    639    640     1   123.2000528 564.003200
    636    639    641     1   112.7300484 572.371200
    640    639    641     1   122.1000523 635.131200
    643    646    649     1   111.0400475 529.694400
    646    649    650     1   123.2000528 564.003200
    646    649    651     1   112.7300484 572.371200
    650    649    651     1   122.1000523 635.131200
    654    657    660     1   111.5100476 526.347200
    657    654    684     1   107.9700462 569.024000
    657    660    663     1   111.0400475 552.288000
    660    663    664     1   112.3500484 533.878400
    660    663    674     1   112.3500484 533.878400
    663    664    667     1   111.0400475 552.288000
    663    674    677     1   111.0400475 552.288000
    664    663    674     1   112.3500484 533.878400
    664    667    670     1   111.0400475 529.694400
    667    670    671     1   123.2000528 564.003200
    667    670    672     1   112.7300484 572.371200
    671    670    672     1   122.1000523 635.131200
    674    677    680     1   111.0400475 529.694400
    677    680    681     1   123.2000528 564.003200
    677    680    682     1   112.7300484 572.371200
    681    680    682     1   122.1000523 635.131200
    685    688    691     1   111.5100476 526.347200
    688    691    694     1   111.0400475 552.288000
    688    685    715     1   107.9700462 569.024000
    691    694    695     1   112.3500484 533.878400
    691    694    705     1   112.3500484 533.878400
    694    695    698     1   111.0400475 552.288000
    694    705    708     1   111.0400475 552.288000
    695    698    701     1   111.0400475 529.694400
    695    694    705     1   112.3500484 533.878400
    698    701    702     1   123.2000528 564.003200
    698    701    703     1   112.7300484 572.371200
    702    701    703     1   122.1000523 635.131200
    705    708    711     1   111.0400475 529.694400
    708    711    712     1   123.2000528 564.003200
    708    711    713     1   112.7300484 572.371200
    712    711    713     1   122.1000523 635.131200
    716    719    722     1   111.5100476 526.347200
    719    716    746     1   107.9700462 569.024000
    719    722    725     1   111.0400475 552.288000
    722    725    726     1   112.3500484 533.878400
    722    725    736     1   112.3500484 533.878400
    725    726    729     1   111.0400475 552.288000
    725    736    739     1   111.0400475 552.288000
    726    725    736     1   112.3500484 533.878400
    726    729    732     1   111.0400475 529.694400
    729    732    733     1   123.2000528 564.003200
    729    732    734     1   112.7300484 572.371200
    733    732    734     1   122.1000523 635.131200
    736    739    742     1   111.0400475 529.694400
    739    742    743     1   123.2000528 564.003200
    739    742    744     1   112.7300484 572.371200
    743    742    744     1   122.1000523 635.131200
    747    750    753     1   111.5100476 526.347200
    750    753    756     1   111.0400475 552.288000
    750    747    777     1   107.9700462 569.024000
    753    756    757     1   112.3500484 533.878400
    753    756    767     1   112.3500484 533.878400
    756    757    760     1   111.0400475 552.288000
    756    767    770     1   111.0400475 552.288000
    757    760    763     1   111.0400475 529.694400
    757    756    767     1   112.3500484 533.878400
    760    763    764     1   123.2000528 564.003200
    760    763    765     1   112.7300484 572.371200
    764    763    765     1   122.1000523 635.131200
    767    770    773     1   111.0400475 529.694400
    770    773    774     1   123.2000528 564.003200
    770    773    775     1   112.7300484 572.371200
    774    773    775     1   122.1000523 635.131200
    778    781    784     1   111.5100476 526.347200
    781    778    808     1   107.9700462 569.024000
    781    784    787     1   111.0400475 552.288000
    784    787    788     1   112.3500484 533.878400
    784    787    798     1   112.3500484 533.878400
    787    788    791     1   111.0400475 552.288000
    787    798    801     1   111.0400475 552.288000
    788    787    798     1   112.3500484 533.878400
    788    791    794     1   111.0400475 529.694400
    791    794    795     1   123.2000528 564.003200
    791    794    796     1   112.7300484 572.371200
    795    794    796     1   122.1000523 635.131200
    798    801    804     1   111.0400475 529.694400
    801    804    805     1   123.2000528 564.003200
    801    804    806     1   112.7300484 572.371200
    805    804    806     1   122.1000523 635.131200
    809    812    815     1   111.5100476 526.347200
    812    815    818     1   111.0400475 552.288000
    812    809    839     1   107.9700462 569.024000
    815    818    819     1   112.3500484 533.878400
    815    818    829     1   112.3500484 533.878400
    818    819    822     1   111.0400475 552.288000
    818    829    832     1   111.0400475 552.288000
    819    822    825     1   111.0400475 529.694400
    819    818    829     1   112.3500484 533.878400
    822    825    826     1   123.2000528 564.003200
    822    825    827     1   112.7300484 572.371200
    826    825    827     1   122.1000523 635.131200
    829    832    835     1   111.0400475 529.694400
    832    835    836     1   123.2000528 564.003200
    832    835    837     1   112.7300484 572.371200
    836    835    837     1   122.1000523 635.131200
    840    843    846     1   111.5100476 526.347200
    843    840    870     1   107.9700462 569.024000
    843    846    849     1   111.0400475 552.288000
    846    849    850     1   112.3500484 533.878400
    846    849    860     1   112.3500484 533.878400
    849    850    853     1   111.0400475 552.288000
    849    860    863     1   111.0400475 552.288000
    850    849    860     1   112.3500484 533.878400
    850    853    856     1   111.0400475 529.694400
    853    856    857     1   123.2000528 564.003200
    853    856    858     1   112.7300484 572.371200
    857    856    858     1   122.1000523 635.131200
    860    863    866     1   111.0400475 529.694400
    863    866    867     1   123.2000528 564.003200
    863    866    868     1   112.7300484 572.371200
    867    866    868     1   122.1000523 635.131200
    871    874    877     1   111.5100476 526.347200
    874    877    880     1   111.0400475 552.288000
    874    871    901     1   107.9700462 569.024000
    877    880    881     1   112.3500484 533.878400
    877    880    891     1   112.3500484 533.878400
    880    881    884     1   111.0400475 552.288000
    880    891    894     1   111.0400475 552.288000
    881    884    887     1   111.0400475 529.694400
    881    880    891     1   112.3500484 533.878400
    884    887    888     1   123.2000528 564.003200
    884    887    889     1   112.7300484 572.371200
    888    887    889     1   122.1000523 635.131200
    891    894    897     1   111.0400475 529.694400
    894    897    898     1   123.2000528 564.003200
    894    897    899     1   112.7300484 572.371200
    898    897    899     1   122.1000523 635.131200
      1      2      3     1   109.7800468 425.094400
      1      2      4     1   109.7800468 425.094400
      1      5      6     1   109.7800468 425.094400
      1      5      7     1   109.7800468 425.094400
      2      8      9     1   109.8000471 387.438400
      2      8     10     1   109.8000471 387.438400
      3      2      8     1   109.5600471 388.275200
      3      2      4     1   108.4600466 328.025600
      4      2      8     1   109.5600471 388.275200
      5     11     12     1   109.8000471 387.438400
      5     11     13     1   109.8000471 387.438400
      6      5     11     1   109.5600471 388.275200
      6      5      7     1   108.4600466 328.025600
      7      5     11     1   109.5600471 388.275200
      8     14     15     1   109.5600471 388.275200
      8     14     16     1   109.5600471 388.275200
      9      8     14     1   109.8000471 387.438400
      9      8     10     1   107.5800459 329.699200
     10      8     14     1   109.8000471 387.438400
     11     17     18     1   109.5600471 388.275200
     11     17     19     1   109.5600471 388.275200
     12     11     17     1   109.8000471 387.438400
     12     11     13     1   107.5800459 329.699200
     13     11     17     1   109.8000471 387.438400
     15     14     20     1   109.8800469 414.216000
     15     14     16     1   108.4600466 328.025600
     16     14     20     1   109.8800469 414.216000
     18     17     21     1   109.8800469 414.216000
     18     17     19     1   108.4600466 328.025600
     19     17     21     1   109.8800469 414.216000
     20     28     29     1   109.8800469 414.216000
     20     28     30     1   109.8800469 414.216000
     20     31     32     1   109.8800469 414.216000
     20     31     33     1   109.8800469 414.216000
     21     22     23     1   109.8800469 414.216000
     21     22     24     1   109.8800469 414.216000
     21     25     26     1   109.8800469 414.216000
     21     25     27     1   109.8800469 414.216000
     22     34     35     1   109.8000471 387.438400
     22     34     36     1   109.8000471 387.438400
     23     22     34     1   109.5600471 388.275200
     23     22     24     1   108.4600466 328.025600
     24     22     34     1   109.5600471 388.275200
     25     37     38     1   109.8000471 387.438400
     25     37     39     1   109.8000471 387.438400
     26     25     37     1   109.5600471 388.275200
     26     25     27     1   108.4600466 328.025600
     27     25     37     1   109.5600471 388.275200
     28     40     41     1   109.8000471 387.438400
     28     40     42     1   109.8000471 387.438400
     29     28     40     1   109.5600471 388.275200
     29     28     30     1   108.4600466 328.025600
     30     28     40     1   109.5600471 388.275200
     31     43     44     1   109.8000471 387.438400
     31     43     45     1   109.8000471 387.438400
     32     31     43     1   109.5600471 388.275200
     32     31     33     1   108.4600466 328.025600
     33     31     43     1   109.5600471 388.275200
     34     55     56     1   109.5600471 388.275200
     34     55     57     1   109.5600471 388.275200
     35     34     55     1   109.8000471 387.438400
     35     34     36     1   107.5800459 329.699200
     36     34     55     1   109.8000471 387.438400
     37     52     53     1   109.5600471 388.275200
     37     52     54     1   109.5600471 388.275200
     38     37     52     1   109.8000471 387.438400
     38     37     39     1   107.5800459 329.699200
     39     37     52     1   109.8000471 387.438400
     40     49     50     1   109.5600471 388.275200
     40     49     51     1   109.5600471 388.275200
     41     40     49     1   109.8000471 387.438400
     41     40     42     1   107.5800459 329.699200
     42     40     49     1   109.8000471 387.438400
     43     46     47     1   109.5600471 388.275200
     43     46     48     1   109.5600471 388.275200
     44     43     46     1   109.8000471 387.438400
     44     43     45     1   107.5800459 329.699200
     45     43     46     1   109.8000471 387.438400
     47     46     86     1   109.7800468 425.094400
     47     46     48     1   108.4600466 328.025600
     48     46     86     1   109.7800468 425.094400
     50     49    115     1   109.7800468 425.094400
     50     49     51     1   108.4600466 328.025600
     51     49    115     1   109.7800468 425.094400
     53     52    144     1   109.7800468 425.094400
     53     52     54     1   108.4600466 328.025600
     54     52    144     1   109.7800468 425.094400
     56     55    173     1   109.7800468 425.094400
     56     55     57     1   108.4600466 328.025600
     57     55    173     1   109.7800468 425.094400
     58     59     60     1   109.8800469 414.216000
     58     59     61     1   109.8800469 414.216000
     58     62     63     1   109.8800469 414.216000
     58     62     64     1   109.8800469 414.216000
     58     65     66     1   109.8800469 414.216000
     58     65     67     1   109.8800469 414.216000
     59     71     72     1   109.8000471 387.438400
     59     71     73     1   109.8000471 387.438400
     60     59     71     1   109.5600471 388.275200
     60     59     61     1   108.4600466 328.025600
     61     59     71     1   109.5600471 388.275200
     62     74     75     1   109.8000471 387.438400
     62     74     76     1   109.8000471 387.438400
     63     62     74     1   109.5600471 388.275200
     63     62     64     1   108.4600466 328.025600
     64     62     74     1   109.5600471 388.275200
     65     68     69     1   109.8000471 387.438400
     65     68     70     1   109.8000471 387.438400
     66     65     68     1   109.5600471 388.275200
     66     65     67     1   108.4600466 328.025600
     67     65     68     1   109.5600471 388.275200
     68     77     78     1   109.5600471 388.275200
     68     77     79     1   109.5600471 388.275200
     69     68     77     1   109.8000471 387.438400
     69     68     70     1   107.5800459 329.699200
     70     68     77     1   109.8000471 387.438400
     71     83     84     1   109.5600471 388.275200
     71     83     85     1   109.5600471 388.275200
     72     71     83     1   109.8000471 387.438400
     72     71     73     1   107.5800459 329.699200
     73     71     83     1   109.8000471 387.438400
     74     80     81     1   109.5600471 388.275200
     74     80     82     1   109.5600471 388.275200
     75     74     80     1   109.8000471 387.438400
     75     74     76     1   107.5800459 329.699200
     76     74     80     1   109.8000471 387.438400
     78     77     86     1   109.7800468 425.094400
     78     77     79     1   108.4600466 328.025600
     79     77     86     1   109.7800468 425.094400
     81     80    202     1   109.7800468 425.094400
     81     80     82     1   108.4600466 328.025600
     82     80    202     1   109.7800468 425.094400
     84     83    231     1   109.7800468 425.094400
     84     83     85     1   108.4600466 328.025600
     85     83    231     1   109.7800468 425.094400
     87     88     89     1   109.8800469 414.216000
     87     88     90     1   109.8800469 414.216000
     87     91     92     1   109.8800469 414.216000
     87     91     93     1   109.8800469 414.216000
     87     94     95     1   109.8800469 414.216000
     87     94     96     1   109.8800469 414.216000
     88    100    101     1   109.8000471 387.438400
     88    100    102     1   109.8000471 387.438400
     89     88    100     1   109.5600471 388.275200
     89     88     90     1   108.4600466 328.025600
     90     88    100     1   109.5600471 388.275200
     91    103    104     1   109.8000471 387.438400
     91    103    105     1   109.8000471 387.438400
     92     91    103     1   109.5600471 388.275200
     92     91     93     1   108.4600466 328.025600
     93     91    103     1   109.5600471 388.275200
     94     97     98     1   109.8000471 387.438400
     94     97     99     1   109.8000471 387.438400
     95     94     97     1   109.5600471 388.275200
     95     94     96     1   108.4600466 328.025600
     96     94     97     1   109.5600471 388.275200
     97    106    107     1   109.5600471 388.275200
     97    106    108     1   109.5600471 388.275200
     98     97    106     1   109.8000471 387.438400
     98     97     99     1   107.5800459 329.699200
     99     97    106     1   109.8000471 387.438400
    100    112    113     1   109.5600471 388.275200
    100    112    114     1   109.5600471 388.275200
    101    100    112     1   109.8000471 387.438400
    101    100    102     1   107.5800459 329.699200
    102    100    112     1   109.8000471 387.438400
    103    109    110     1   109.5600471 388.275200
    103    109    111     1   109.5600471 388.275200
    104    103    109     1   109.8000471 387.438400
    104    103    105     1   107.5800459 329.699200
    105    103    109     1   109.8000471 387.438400
    107    106    115     1   109.7800468 425.094400
    107    106    108     1   108.4600466 328.025600
    108    106    115     1   109.7800468 425.094400
    110    109    260     1   109.7800468 425.094400
    110    109    111     1   108.4600466 328.025600
    111    109    260     1   109.7800468 425.094400
    113    112    289     1   109.7800468 425.094400
    113    112    114     1   108.4600466 328.025600
    114    112    289     1   109.7800468 425.094400
    116    117    118     1   109.8800469 414.216000
    116    117    119     1   109.8800469 414.216000
    116    120    121     1   109.8800469 414.216000
    116    120    122     1   109.8800469 414.216000
    116    123    124     1   109.8800469 414.216000
    116    123    125     1   109.8800469 414.216000
    117    129    130     1   109.8000471 387.438400
    117    129    131     1   109.8000471 387.438400
    118    117    129     1   109.5600471 388.275200
    118    117    119     1   108.4600466 328.025600
    119    117    129     1   109.5600471 388.275200
    120    132    133     1   109.8000471 387.438400
    120    132    134     1   109.8000471 387.438400
    121    120    132     1   109.5600471 388.275200
    121    120    122     1   108.4600466 328.025600
    122    120    132     1   109.5600471 388.275200
    123    126    127     1   109.8000471 387.438400
    123    126    128     1   109.8000471 387.438400
    124    123    126     1   109.5600471 388.275200
    124    123    125     1   108.4600466 328.025600
    125    123    126     1   109.5600471 388.275200
    126    135    136     1   109.5600471 388.275200
    126    135    137     1   109.5600471 388.275200
    127    126    135     1   109.8000471 387.438400
    127    126    128     1   107.5800459 329.699200
    128    126    135     1   109.8000471 387.438400
    129    141    142     1   109.5600471 388.275200
    129    141    143     1   109.5600471 388.275200
    130    129    141     1   109.8000471 387.438400
    130    129    131     1   107.5800459 329.699200
    131    129    141     1   109.8000471 387.438400
    132    138    139     1   109.5600471 388.275200
    132    138    140     1   109.5600471 388.275200
    133    132    138     1   109.8000471 387.438400
    133    132    134     1   107.5800459 329.699200
    134    132    138     1   109.8000471 387.438400
    136    135    144     1   109.7800468 425.094400
    136    135    137     1   108.4600466 328.025600
    137    135    144     1   109.7800468 425.094400
    139    138    318     1   109.7800468 425.094400
    139    138    140     1   108.4600466 328.025600
    140    138    318     1   109.7800468 425.094400
    142    141    347     1   109.7800468 425.094400
    142    141    143     1   108.4600466 328.025600
    143    141    347     1   109.7800468 425.094400
    145    146    147     1   109.8800469 414.216000
    145    146    148     1   109.8800469 414.216000
    145    149    150     1   109.8800469 414.216000
    145    149    151     1   109.8800469 414.216000
    145    152    153     1   109.8800469 414.216000
    145    152    154     1   109.8800469 414.216000
    146    158    159     1   109.8000471 387.438400
    146    158    160     1   109.8000471 387.438400
    147    146    158     1   109.5600471 388.275200
    147    146    148     1   108.4600466 328.025600
    148    146    158     1   109.5600471 388.275200
    149    161    162     1   109.8000471 387.438400
    149    161    163     1   109.8000471 387.438400
    150    149    161     1   109.5600471 388.275200
    150    149    151     1   108.4600466 328.025600
    151    149    161     1   109.5600471 388.275200
    152    155    156     1   109.8000471 387.438400
    152    155    157     1   109.8000471 387.438400
    153    152    155     1   109.5600471 388.275200
    153    152    154     1   108.4600466 328.025600
    154    152    155     1   109.5600471 388.275200
    155    164    165     1   109.5600471 388.275200
    155    164    166     1   109.5600471 388.275200
    156    155    164     1   109.8000471 387.438400
    156    155    157     1   107.5800459 329.699200
    157    155    164     1   109.8000471 387.438400
    158    170    171     1   109.5600471 388.275200
    158    170    172     1   109.5600471 388.275200
    159    158    170     1   109.8000471 387.438400
    159    158    160     1   107.5800459 329.699200
    160    158    170     1   109.8000471 387.438400
    161    167    168     1   109.5600471 388.275200
    161    167    169     1   109.5600471 388.275200
    162    161    167     1   109.8000471 387.438400
    162    161    163     1   107.5800459 329.699200
    163    161    167     1   109.8000471 387.438400
    165    164    173     1   109.7800468 425.094400
    165    164    166     1   108.4600466 328.025600
    166    164    173     1   109.7800468 425.094400
    168    167    376     1   109.7800468 425.094400
    168    167    169     1   108.4600466 328.025600
    169    167    376     1   109.7800468 425.094400
    171    170    405     1   109.7800468 425.094400
    171    170    172     1   108.4600466 328.025600
    172    170    405     1   109.7800468 425.094400
    174    175    176     1   109.8800469 414.216000
    174    175    177     1   109.8800469 414.216000
    174    178    179     1   109.8800469 414.216000
    174    178    180     1   109.8800469 414.216000
    174    181    182     1   109.8800469 414.216000
    174    181    183     1   109.8800469 414.216000
    175    187    188     1   109.8000471 387.438400
    175    187    189     1   109.8000471 387.438400
    176    175    187     1   109.5600471 388.275200
    176    175    177     1   108.4600466 328.025600
    177    175    187     1   109.5600471 388.275200
    178    190    191     1   109.8000471 387.438400
    178    190    192     1   109.8000471 387.438400
    179    178    190     1   109.5600471 388.275200
    179    178    180     1   108.4600466 328.025600
    180    178    190     1   109.5600471 388.275200
    181    184    185     1   109.8000471 387.438400
    181    184    186     1   109.8000471 387.438400
    182    181    184     1   109.5600471 388.275200
    182    181    183     1   108.4600466 328.025600
    183    181    184     1   109.5600471 388.275200
    184    193    194     1   109.5600471 388.275200
    184    193    195     1   109.5600471 388.275200
    185    184    193     1   109.8000471 387.438400
    185    184    186     1   107.5800459 329.699200
    186    184    193     1   109.8000471 387.438400
    187    199    200     1   109.5600471 388.275200
    187    199    201     1   109.5600471 388.275200
    188    187    199     1   109.8000471 387.438400
    188    187    189     1   107.5800459 329.699200
    189    187    199     1   109.8000471 387.438400
    190    196    197     1   109.5600471 388.275200
    190    196    198     1   109.5600471 388.275200
    191    190    196     1   109.8000471 387.438400
    191    190    192     1   107.5800459 329.699200
    192    190    196     1   109.8000471 387.438400
    194    193    202     1   109.7800468 425.094400
    194    193    195     1   108.4600466 328.025600
    195    193    202     1   109.7800468 425.094400
    197    196    436     1   109.7800468 425.094400
    197    196    198     1   108.4600466 328.025600
    198    196    436     1   109.7800468 425.094400
    200    199    467     1   109.7800468 425.094400
    200    199    201     1   108.4600466 328.025600
    201    199    467     1   109.7800468 425.094400
    203    204    205     1   109.8800469 414.216000
    203    204    206     1   109.8800469 414.216000
    203    207    208     1   109.8800469 414.216000
    203    207    209     1   109.8800469 414.216000
    203    210    211     1   109.8800469 414.216000
    203    210    212     1   109.8800469 414.216000
    204    216    217     1   109.8000471 387.438400
    204    216    218     1   109.8000471 387.438400
    205    204    216     1   109.5600471 388.275200
    205    204    206     1   108.4600466 328.025600
    206    204    216     1   109.5600471 388.275200
    207    219    220     1   109.8000471 387.438400
    207    219    221     1   109.8000471 387.438400
    208    207    219     1   109.5600471 388.275200
    208    207    209     1   108.4600466 328.025600
    209    207    219     1   109.5600471 388.275200
    210    213    214     1   109.8000471 387.438400
    210    213    215     1   109.8000471 387.438400
    211    210    213     1   109.5600471 388.275200
    211    210    212     1   108.4600466 328.025600
    212    210    213     1   109.5600471 388.275200
    213    222    223     1   109.5600471 388.275200
    213    222    224     1   109.5600471 388.275200
    214    213    222     1   109.8000471 387.438400
    214    213    215     1   107.5800459 329.699200
    215    213    222     1   109.8000471 387.438400
    216    228    229     1   109.5600471 388.275200
    216    228    230     1   109.5600471 388.275200
    217    216    228     1   109.8000471 387.438400
    217    216    218     1   107.5800459 329.699200
    218    216    228     1   109.8000471 387.438400
    219    225    226     1   109.5600471 388.275200
    219    225    227     1   109.5600471 388.275200
    220    219    225     1   109.8000471 387.438400
    220    219    221     1   107.5800459 329.699200
    221    219    225     1   109.8000471 387.438400
    223    222    231     1   109.7800468 425.094400
    223    222    224     1   108.4600466 328.025600
    224    222    231     1   109.7800468 425.094400
    226    225    498     1   109.7800468 425.094400
    226    225    227     1   108.4600466 328.025600
    227    225    498     1   109.7800468 425.094400
    229    228    529     1   109.7800468 425.094400
    229    228    230     1   108.4600466 328.025600
    230    228    529     1   109.7800468 425.094400
    232    233    234     1   109.8800469 414.216000
    232    233    235     1   109.8800469 414.216000
    232    236    237     1   109.8800469 414.216000
    232    236    238     1   109.8800469 414.216000
    232    239    240     1   109.8800469 414.216000
    232    239    241     1   109.8800469 414.216000
    233    245    246     1   109.8000471 387.438400
    233    245    247     1   109.8000471 387.438400
    234    233    245     1   109.5600471 388.275200
    234    233    235     1   108.4600466 328.025600
    235    233    245     1   109.5600471 388.275200
    236    248    249     1   109.8000471 387.438400
    236    248    250     1   109.8000471 387.438400
    237    236    248     1   109.5600471 388.275200
    237    236    238     1   108.4600466 328.025600
    238    236    248     1   109.5600471 388.275200
    239    242    243     1   109.8000471 387.438400
    239    242    244     1   109.8000471 387.438400
    240    239    242     1   109.5600471 388.275200
    240    239    241     1   108.4600466 328.025600
    241    239    242     1   109.5600471 388.275200
    242    251    252     1   109.5600471 388.275200
    242    251    253     1   109.5600471 388.275200
    243    242    251     1   109.8000471 387.438400
    243    242    244     1   107.5800459 329.699200
    244    242    251     1   109.8000471 387.438400
    245    257    258     1   109.5600471 388.275200
    245    257    259     1   109.5600471 388.275200
    246    245    257     1   109.8000471 387.438400
    246    245    247     1   107.5800459 329.699200
    247    245    257     1   109.8000471 387.438400
    248    254    255     1   109.5600471 388.275200
    248    254    256     1   109.5600471 388.275200
    249    248    254     1   109.8000471 387.438400
    249    248    250     1   107.5800459 329.699200
    250    248    254     1   109.8000471 387.438400
    252    251    260     1   109.7800468 425.094400
    252    251    253     1   108.4600466 328.025600
    253    251    260     1   109.7800468 425.094400
    255    254    560     1   109.7800468 425.094400
    255    254    256     1   108.4600466 328.025600
    256    254    560     1   109.7800468 425.094400
    258    257    591     1   109.7800468 425.094400
    258    257    259     1   108.4600466 328.025600
    259    257    591     1   109.7800468 425.094400
    261    262    263     1   109.8800469 414.216000
    261    262    264     1   109.8800469 414.216000
    261    265    266     1   109.8800469 414.216000
    261    265    267     1   109.8800469 414.216000
    261    268    269     1   109.8800469 414.216000
    261    268    270     1   109.8800469 414.216000
    262    274    275     1   109.8000471 387.438400
    262    274    276     1   109.8000471 387.438400
    263    262    274     1   109.5600471 388.275200
    263    262    264     1   108.4600466 328.025600
    264    262    274     1   109.5600471 388.275200
    265    277    278     1   109.8000471 387.438400
    265    277    279     1   109.8000471 387.438400
    266    265    277     1   109.5600471 388.275200
    266    265    267     1   108.4600466 328.025600
    267    265    277     1   109.5600471 388.275200
    268    271    272     1   109.8000471 387.438400
    268    271    273     1   109.8000471 387.438400
    269    268    271     1   109.5600471 388.275200
    269    268    270     1   108.4600466 328.025600
    270    268    271     1   109.5600471 388.275200
    271    280    281     1   109.5600471 388.275200
    271    280    282     1   109.5600471 388.275200
    272    271    280     1   109.8000471 387.438400
    272    271    273     1   107.5800459 329.699200
    273    271    280     1   109.8000471 387.438400
    274    286    287     1   109.5600471 388.275200
    274    286    288     1   109.5600471 388.275200
    275    274    286     1   109.8000471 387.438400
    275    274    276     1   107.5800459 329.699200
    276    274    286     1   109.8000471 387.438400
    277    283    284     1   109.5600471 388.275200
    277    283    285     1   109.5600471 388.275200
    278    277    283     1   109.8000471 387.438400
    278    277    279     1   107.5800459 329.699200
    279    277    283     1   109.8000471 387.438400
    281    280    289     1   109.7800468 425.094400
    281    280    282     1   108.4600466 328.025600
    282    280    289     1   109.7800468 425.094400
    284    283    622     1   109.7800468 425.094400
    284    283    285     1   108.4600466 328.025600
    285    283    622     1   109.7800468 425.094400
    287    286    653     1   109.7800468 425.094400
    287    286    288     1   108.4600466 328.025600
    288    286    653     1   109.7800468 425.094400
    290    291    292     1   109.8800469 414.216000
    290    291    293     1   109.8800469 414.216000
    290    294    295     1   109.8800469 414.216000
    290    294    296     1   109.8800469 414.216000
    290    297    298     1   109.8800469 414.216000
    290    297    299     1   109.8800469 414.216000
    291    303    304     1   109.8000471 387.438400
    291    303    305     1   109.8000471 387.438400
    292    291    303     1   109.5600471 388.275200
    292    291    293     1   108.4600466 328.025600
    293    291    303     1   109.5600471 388.275200
    294    306    307     1   109.8000471 387.438400
    294    306    308     1   109.8000471 387.438400
    295    294    306     1   109.5600471 388.275200
    295    294    296     1   108.4600466 328.025600
    296    294    306     1   109.5600471 388.275200
    297    300    301     1   109.8000471 387.438400
    297    300    302     1   109.8000471 387.438400
    298    297    300     1   109.5600471 388.275200
    298    297    299     1   108.4600466 328.025600
    299    297    300     1   109.5600471 388.275200
    300    309    310     1   109.5600471 388.275200
    300    309    311     1   109.5600471 388.275200
    301    300    309     1   109.8000471 387.438400
    301    300    302     1   107.5800459 329.699200
    302    300    309     1   109.8000471 387.438400
    303    315    316     1   109.5600471 388.275200
    303    315    317     1   109.5600471 388.275200
    304    303    315     1   109.8000471 387.438400
    304    303    305     1   107.5800459 329.699200
    305    303    315     1   109.8000471 387.438400
    306    312    313     1   109.5600471 388.275200
    306    312    314     1   109.5600471 388.275200
    307    306    312     1   109.8000471 387.438400
    307    306    308     1   107.5800459 329.699200
    308    306    312     1   109.8000471 387.438400
    310    309    318     1   109.7800468 425.094400
    310    309    311     1   108.4600466 328.025600
    311    309    318     1   109.7800468 425.094400
    313    312    684     1   109.7800468 425.094400
    313    312    314     1   108.4600466 328.025600
    314    312    684     1   109.7800468 425.094400
    316    315    715     1   109.7800468 425.094400
    316    315    317     1   108.4600466 328.025600
    317    315    715     1   109.7800468 425.094400
    319    320    321     1   109.8800469 414.216000
    319    320    322     1   109.8800469 414.216000
    319    323    324     1   109.8800469 414.216000
    319    323    325     1   109.8800469 414.216000
    319    326    327     1   109.8800469 414.216000
    319    326    328     1   109.8800469 414.216000
    320    332    333     1   109.8000471 387.438400
    320    332    334     1   109.8000471 387.438400
    321    320    332     1   109.5600471 388.275200
    321    320    322     1   108.4600466 328.025600
    322    320    332     1   109.5600471 388.275200
    323    335    336     1   109.8000471 387.438400
    323    335    337     1   109.8000471 387.438400
    324    323    335     1   109.5600471 388.275200
    324    323    325     1   108.4600466 328.025600
    325    323    335     1   109.5600471 388.275200
    326    329    330     1   109.8000471 387.438400
    326    329    331     1   109.8000471 387.438400
    327    326    329     1   109.5600471 388.275200
    327    326    328     1   108.4600466 328.025600
    328    326    329     1   109.5600471 388.275200
    329    338    339     1   109.5600471 388.275200
    329    338    340     1   109.5600471 388.275200
    330    329    338     1   109.8000471 387.438400
    330    329    331     1   107.5800459 329.699200
    331    329    338     1   109.8000471 387.438400
    332    344    345     1   109.5600471 388.275200
    332    344    346     1   109.5600471 388.275200
    333    332    344     1   109.8000471 387.438400
    333    332    334     1   107.5800459 329.699200
    334    332    344     1   109.8000471 387.438400
    335    341    342     1   109.5600471 388.275200
    335    341    343     1   109.5600471 388.275200
    336    335    341     1   109.8000471 387.438400
    336    335    337     1   107.5800459 329.699200
    337    335    341     1   109.8000471 387.438400
    339    338    347     1   109.7800468 425.094400
    339    338    340     1   108.4600466 328.025600
    340    338    347     1   109.7800468 425.094400
    342    341    746     1   109.7800468 425.094400
    342    341    343     1   108.4600466 328.025600
    343    341    746     1   109.7800468 425.094400
    345    344    777     1   109.7800468 425.094400
    345    344    346     1   108.4600466 328.025600
    346    344    777     1   109.7800468 425.094400
    348    349    350     1   109.8800469 414.216000
    348    349    351     1   109.8800469 414.216000
    348    352    353     1   109.8800469 414.216000
    348    352    354     1   109.8800469 414.216000
    348    355    356     1   109.8800469 414.216000
    348    355    357     1   109.8800469 414.216000
    349    361    362     1   109.8000471 387.438400
    349    361    363     1   109.8000471 387.438400
    350    349    361     1   109.5600471 388.275200
    350    349    351     1   108.4600466 328.025600
    351    349    361     1   109.5600471 388.275200
    352    364    365     1   109.8000471 387.438400
    352    364    366     1   109.8000471 387.438400
    353    352    364     1   109.5600471 388.275200
    353    352    354     1   108.4600466 328.025600
    354    352    364     1   109.5600471 388.275200
    355    358    359     1   109.8000471 387.438400
    355    358    360     1   109.8000471 387.438400
    356    355    358     1   109.5600471 388.275200
    356    355    357     1   108.4600466 328.025600
    357    355    358     1   109.5600471 388.275200
    358    367    368     1   109.5600471 388.275200
    358    367    369     1   109.5600471 388.275200
    359    358    367     1   109.8000471 387.438400
    359    358    360     1   107.5800459 329.699200
    360    358    367     1   109.8000471 387.438400
    361    373    374     1   109.5600471 388.275200
    361    373    375     1   109.5600471 388.275200
    362    361    373     1   109.8000471 387.438400
    362    361    363     1   107.5800459 329.699200
    363    361    373     1   109.8000471 387.438400
    364    370    371     1   109.5600471 388.275200
    364    370    372     1   109.5600471 388.275200
    365    364    370     1   109.8000471 387.438400
    365    364    366     1   107.5800459 329.699200
    366    364    370     1   109.8000471 387.438400
    368    367    376     1   109.7800468 425.094400
    368    367    369     1   108.4600466 328.025600
    369    367    376     1   109.7800468 425.094400
    371    370    808     1   109.7800468 425.094400
    371    370    372     1   108.4600466 328.025600
    372    370    808     1   109.7800468 425.094400
    374    373    839     1   109.7800468 425.094400
    374    373    375     1   108.4600466 328.025600
    375    373    839     1   109.7800468 425.094400
    377    378    379     1   109.8800469 414.216000
    377    378    380     1   109.8800469 414.216000
    377    381    382     1   109.8800469 414.216000
    377    381    383     1   109.8800469 414.216000
    377    384    385     1   109.8800469 414.216000
    377    384    386     1   109.8800469 414.216000
    378    390    391     1   109.8000471 387.438400
    378    390    392     1   109.8000471 387.438400
    379    378    390     1   109.5600471 388.275200
    379    378    380     1   108.4600466 328.025600
    380    378    390     1   109.5600471 388.275200
    381    393    394     1   109.8000471 387.438400
    381    393    395     1   109.8000471 387.438400
    382    381    393     1   109.5600471 388.275200
    382    381    383     1   108.4600466 328.025600
    383    381    393     1   109.5600471 388.275200
    384    387    388     1   109.8000471 387.438400
    384    387    389     1   109.8000471 387.438400
    385    384    387     1   109.5600471 388.275200
    385    384    386     1   108.4600466 328.025600
    386    384    387     1   109.5600471 388.275200
    387    396    397     1   109.5600471 388.275200
    387    396    398     1   109.5600471 388.275200
    388    387    396     1   109.8000471 387.438400
    388    387    389     1   107.5800459 329.699200
    389    387    396     1   109.8000471 387.438400
    390    402    403     1   109.5600471 388.275200
    390    402    404     1   109.5600471 388.275200
    391    390    402     1   109.8000471 387.438400
    391    390    392     1   107.5800459 329.699200
    392    390    402     1   109.8000471 387.438400
    393    399    400     1   109.5600471 388.275200
    393    399    401     1   109.5600471 388.275200
    394    393    399     1   109.8000471 387.438400
    394    393    395     1   107.5800459 329.699200
    395    393    399     1   109.8000471 387.438400
    397    396    405     1   109.7800468 425.094400
    397    396    398     1   108.4600466 328.025600
    398    396    405     1   109.7800468 425.094400
    400    399    870     1   109.7800468 425.094400
    400    399    401     1   108.4600466 328.025600
    401    399    870     1   109.7800468 425.094400
    403    402    901     1   109.7800468 425.094400
    403    402    404     1   108.4600466 328.025600
    404    402    901     1   109.7800468 425.094400
    406    409    410     1   109.8000471 387.438400
    406    409    411     1   109.8000471 387.438400
    407    406    409     1   109.5600471 388.275200
    407    406    436     1   109.7800468 425.094400
    407    406    408     1   108.4600466 328.025600
    408    406    409     1   109.5600471 388.275200
    408    406    436     1   109.7800468 425.094400
    409    412    413     1   109.5600471 388.275200
    409    412    414     1   109.5600471 388.275200
    410    409    412     1   109.8000471 387.438400
    410    409    411     1   107.5800459 329.699200
    411    409    412     1   109.8000471 387.438400
    413    412    415     1   109.8800469 414.216000
    413    412    414     1   108.4600466 328.025600
    414    412    415     1   109.8800469 414.216000
    415    416    417     1   109.8800469 414.216000
    415    416    418     1   109.8800469 414.216000
    415    426    427     1   109.8800469 414.216000
    415    426    428     1   109.8800469 414.216000
    416    419    420     1   109.8000471 387.438400
    416    419    421     1   109.8000471 387.438400
    417    416    419     1   109.5600471 388.275200
    417    416    418     1   108.4600466 328.025600
    418    416    419     1   109.5600471 388.275200
    420    419    422     1   108.7700466 392.459200
    420    419    421     1   107.5800459 329.699200
    421    419    422     1   108.7700466 392.459200
    422    424    425     1   106.5500460 417.563200
    426    429    430     1   109.8000471 387.438400
    426    429    431     1   109.8000471 387.438400
    427    426    429     1   109.5600471 388.275200
    427    426    428     1   108.4600466 328.025600
    428    426    429     1   109.5600471 388.275200
    430    429    432     1   108.7700466 392.459200
    430    429    431     1   107.5800459 329.699200
    431    429    432     1   108.7700466 392.459200
    432    434    435     1   106.5500460 417.563200
    437    440    441     1   109.8000471 387.438400
    437    440    442     1   109.8000471 387.438400
    438    437    440     1   109.5600471 388.275200
    438    437    467     1   109.7800468 425.094400
    438    437    439     1   108.4600466 328.025600
    439    437    440     1   109.5600471 388.275200
    439    437    467     1   109.7800468 425.094400
    440    443    444     1   109.5600471 388.275200
    440    443    445     1   109.5600471 388.275200
    441    440    443     1   109.8000471 387.438400
    441    440    442     1   107.5800459 329.699200
    442    440    443     1   109.8000471 387.438400
    444    443    446     1   109.8800469 414.216000
    444    443    445     1   108.4600466 328.025600
    445    443    446     1   109.8800469 414.216000
    446    447    448     1   109.8800469 414.216000
    446    447    449     1   109.8800469 414.216000
    446    457    458     1   109.8800469 414.216000
    446    457    459     1   109.8800469 414.216000
    447    450    451     1   109.8000471 387.438400
    447    450    452     1   109.8000471 387.438400
    448    447    450     1   109.5600471 388.275200
    448    447    449     1   108.4600466 328.025600
    449    447    450     1   109.5600471 388.275200
    451    450    453     1   108.7700466 392.459200
    451    450    452     1   107.5800459 329.699200
    452    450    453     1   108.7700466 392.459200
    453    455    456     1   106.5500460 417.563200
    457    460    461     1   109.8000471 387.438400
    457    460    462     1   109.8000471 387.438400
    458    457    460     1   109.5600471 388.275200
    458    457    459     1   108.4600466 328.025600
    459    457    460     1   109.5600471 388.275200
    461    460    463     1   108.7700466 392.459200
    461    460    462     1   107.5800459 329.699200
    462    460    463     1   108.7700466 392.459200
    463    465    466     1   106.5500460 417.563200
    468    471    472     1   109.8000471 387.438400
    468    471    473     1   109.8000471 387.438400
    469    468    471     1   109.5600471 388.275200
    469    468    498     1   109.7800468 425.094400
    469    468    470     1   108.4600466 328.025600
    470    468    471     1   109.5600471 388.275200
    470    468    498     1   109.7800468 425.094400
    471    474    475     1   109.5600471 388.275200
    471    474    476     1   109.5600471 388.275200
    472    471    474     1   109.8000471 387.438400
    472    471    473     1   107.5800459 329.699200
    473    471    474     1   109.8000471 387.438400
    475    474    477     1   109.8800469 414.216000
    475    474    476     1   108.4600466 328.025600
    476    474    477     1   109.8800469 414.216000
    477    478    479     1   109.8800469 414.216000
    477    478    480     1   109.8800469 414.216000
    477    488    489     1   109.8800469 414.216000
    477    488    490     1   109.8800469 414.216000
    478    481    482     1   109.8000471 387.438400
    478    481    483     1   109.8000471 387.438400
    479    478    481     1   109.5600471 388.275200
    479    478    480     1   108.4600466 328.025600
    480    478    481     1   109.5600471 388.275200
    482    481    484     1   108.7700466 392.459200
    482    481    483     1   107.5800459 329.699200
    483    481    484     1   108.7700466 392.459200
    484    486    487     1   106.5500460 417.563200
    488    491    492     1   109.8000471 387.438400
    488    491    493     1   109.8000471 387.438400
    489    488    491     1   109.5600471 388.275200
    489    488    490     1   108.4600466 328.025600
    490    488    491     1   109.5600471 388.275200
    492    491    494     1   108.7700466 392.459200
    492    491    493     1   107.5800459 329.699200
    493    491    494     1   108.7700466 392.459200
    494    496    497     1   106.5500460 417.563200
    499    502    503     1   109.8000471 387.438400
    499    502    504     1   109.8000471 387.438400
    500    499    502     1   109.5600471 388.275200
    500    499    529     1   109.7800468 425.094400
    500    499    501     1   108.4600466 328.025600
    501    499    502     1   109.5600471 388.275200
    501    499    529     1   109.7800468 425.094400
    502    505    506     1   109.5600471 388.275200
    502    505    507     1   109.5600471 388.275200
    503    502    505     1   109.8000471 387.438400
    503    502    504     1   107.5800459 329.699200
    504    502    505     1   109.8000471 387.438400
    506    505    508     1   109.8800469 414.216000
    506    505    507     1   108.4600466 328.025600
    507    505    508     1   109.8800469 414.216000
    508    509    510     1   109.8800469 414.216000
    508    509    511     1   109.8800469 414.216000
    508    519    520     1   109.8800469 414.216000
    508    519    521     1   109.8800469 414.216000
    509    512    513     1   109.8000471 387.438400
    509    512    514     1   109.8000471 387.438400
    510    509    512     1   109.5600471 388.275200
    510    509    511     1   108.4600466 328.025600
    511    509    512     1   109.5600471 388.275200
    513    512    515     1   108.7700466 392.459200
    513    512    514     1   107.5800459 329.699200
    514    512    515     1   108.7700466 392.459200
    515    517    518     1   106.5500460 417.563200
    519    522    523     1   109.8000471 387.438400
    519    522    524     1   109.8000471 387.438400
    520    519    522     1   109.5600471 388.275200
    520    519    521     1   108.4600466 328.025600
    521    519    522     1   109.5600471 388.275200
    523    522    525     1   108.7700466 392.459200
    523    522    524     1   107.5800459 329.699200
    524    522    525     1   108.7700466 392.459200
    525    527    528     1   106.5500460 417.563200
    530    533    534     1   109.8000471 387.438400
    530    533    535     1   109.8000471 387.438400
    531    530    533     1   109.5600471 388.275200
    531    530    560     1   109.7800468 425.094400
    531    530    532     1   108.4600466 328.025600
    532    530    533     1   109.5600471 388.275200
    532    530    560     1   109.7800468 425.094400
    533    536    537     1   109.5600471 388.275200
    533    536    538     1   109.5600471 388.275200
    534    533    536     1   109.8000471 387.438400
    534    533    535     1   107.5800459 329.699200
    535    533    536     1   109.8000471 387.438400
    537    536    539     1   109.8800469 414.216000
    537    536    538     1   108.4600466 328.025600
    538    536    539     1   109.8800469 414.216000
    539    540    541     1   109.8800469 414.216000
    539    540    542     1   109.8800469 414.216000
    539    550    551     1   109.8800469 414.216000
    539    550    552     1   109.8800469 414.216000
    540    543    544     1   109.8000471 387.438400
    540    543    545     1   109.8000471 387.438400
    541    540    543     1   109.5600471 388.275200
    541    540    542     1   108.4600466 328.025600
    542    540    543     1   109.5600471 388.275200
    544    543    546     1   108.7700466 392.459200
    544    543    545     1   107.5800459 329.699200
    545    543    546     1   108.7700466 392.459200
    546    548    549     1   106.5500460 417.563200
    550    553    554     1   109.8000471 387.438400
    550    553    555     1   109.8000471 387.438400
    551    550    553     1   109.5600471 388.275200
    551    550    552     1   108.4600466 328.025600
    552    550    553     1   109.5600471 388.275200
    554    553    556     1   108.7700466 392.459200
    554    553    555     1   107.5800459 329.699200
    555    553    556     1   108.7700466 392.459200
    556    558    559     1   106.5500460 417.563200
    561    564    565     1   109.8000471 387.438400
    561    564    566     1   109.8000471 387.438400
    562    561    564     1   109.5600471 388.275200
    562    561    591     1   109.7800468 425.094400
    562    561    563     1   108.4600466 328.025600
    563    561    564     1   109.5600471 388.275200
    563    561    591     1   109.7800468 425.094400
    564    567    568     1   109.5600471 388.275200
    564    567    569     1   109.5600471 388.275200
    565    564    567     1   109.8000471 387.438400
    565    564    566     1   107.5800459 329.699200
    566    564    567     1   109.8000471 387.438400
    568    567    570     1   109.8800469 414.216000
    568    567    569     1   108.4600466 328.025600
    569    567    570     1   109.8800469 414.216000
    570    571    572     1   109.8800469 414.216000
    570    571    573     1   109.8800469 414.216000
    570    581    582     1   109.8800469 414.216000
    570    581    583     1   109.8800469 414.216000
    571    574    575     1   109.8000471 387.438400
    571    574    576     1   109.8000471 387.438400
    572    571    574     1   109.5600471 388.275200
    572    571    573     1   108.4600466 328.025600
    573    571    574     1   109.5600471 388.275200
    575    574    577     1   108.7700466 392.459200
    575    574    576     1   107.5800459 329.699200
    576    574    577     1   108.7700466 392.459200
    577    579    580     1   106.5500460 417.563200
    581    584    585     1   109.8000471 387.438400
    581    584    586     1   109.8000471 387.438400
    582    581    584     1   109.5600471 388.275200
    582    581    583     1   108.4600466 328.025600
    583    581    584     1   109.5600471 388.275200
    585    584    587     1   108.7700466 392.459200
    585    584    586     1   107.5800459 329.699200
    586    584    587     1   108.7700466 392.459200
    587    589    590     1   106.5500460 417.563200
    592    595    596     1   109.8000471 387.438400
    592    595    597     1   109.8000471 387.438400
    593    592    595     1   109.5600471 388.275200
    593    592    622     1   109.7800468 425.094400
    593    592    594     1   108.4600466 328.025600
    594    592    595     1   109.5600471 388.275200
    594    592    622     1   109.7800468 425.094400
    595    598    599     1   109.5600471 388.275200
    595    598    600     1   109.5600471 388.275200
    596    595    598     1   109.8000471 387.438400
    596    595    597     1   107.5800459 329.699200
    597    595    598     1   109.8000471 387.438400
    599    598    601     1   109.8800469 414.216000
    599    598    600     1   108.4600466 328.025600
    600    598    601     1   109.8800469 414.216000
    601    602    603     1   109.8800469 414.216000
    601    602    604     1   109.8800469 414.216000
    601    612    613     1   109.8800469 414.216000
    601    612    614     1   109.8800469 414.216000
    602    605    606     1   109.8000471 387.438400
    602    605    607     1   109.8000471 387.438400
    603    602    605     1   109.5600471 388.275200
    603    602    604     1   108.4600466 328.025600
    604    602    605     1   109.5600471 388.275200
    606    605    608     1   108.7700466 392.459200
    606    605    607     1   107.5800459 329.699200
    607    605    608     1   108.7700466 392.459200
    608    610    611     1   106.5500460 417.563200
    612    615    616     1   109.8000471 387.438400
    612    615    617     1   109.8000471 387.438400
    613    612    615     1   109.5600471 388.275200
    613    612    614     1   108.4600466 328.025600
    614    612    615     1   109.5600471 388.275200
    616    615    618     1   108.7700466 392.459200
    616    615    617     1   107.5800459 329.699200
    617    615    618     1   108.7700466 392.459200
    618    620    621     1   106.5500460 417.563200
    623    626    627     1   109.8000471 387.438400
    623    626    628     1   109.8000471 387.438400
    624    623    626     1   109.5600471 388.275200
    624    623    653     1   109.7800468 425.094400
    624    623    625     1   108.4600466 328.025600
    625    623    626     1   109.5600471 388.275200
    625    623    653     1   109.7800468 425.094400
    626    629    630     1   109.5600471 388.275200
    626    629    631     1   109.5600471 388.275200
    627    626    629     1   109.8000471 387.438400
    627    626    628     1   107.5800459 329.699200
    628    626    629     1   109.8000471 387.438400
    630    629    632     1   109.8800469 414.216000
    630    629    631     1   108.4600466 328.025600
    631    629    632     1   109.8800469 414.216000
    632    633    634     1   109.8800469 414.216000
    632    633    635     1   109.8800469 414.216000
    632    643    644     1   109.8800469 414.216000
    632    643    645     1   109.8800469 414.216000
    633    636    637     1   109.8000471 387.438400
    633    636    638     1   109.8000471 387.438400
    634    633    636     1   109.5600471 388.275200
    634    633    635     1   108.4600466 328.025600
    635    633    636     1   109.5600471 388.275200
    637    636    639     1   108.7700466 392.459200
    637    636    638     1   107.5800459 329.699200
    638    636    639     1   108.7700466 392.459200
    639    641    642     1   106.5500460 417.563200
    643    646    647     1   109.8000471 387.438400
    643    646    648     1   109.8000471 387.438400
    644    643    646     1   109.5600471 388.275200
    644    643    645     1   108.4600466 328.025600
    645    643    646     1   109.5600471 388.275200
    647    646    649     1   108.7700466 392.459200
    647    646    648     1   107.5800459 329.699200
    648    646    649     1   108.7700466 392.459200
    649    651    652     1   106.5500460 417.563200
    654    657    658     1   109.8000471 387.438400
    654    657    659     1   109.8000471 387.438400
    655    654    657     1   109.5600471 388.275200
    655    654    684     1   109.7800468 425.094400
    655    654    656     1   108.4600466 328.025600
    656    654    657     1   109.5600471 388.275200
    656    654    684     1   109.7800468 425.094400
    657    660    661     1   109.5600471 388.275200
    657    660    662     1   109.5600471 388.275200
    658    657    660     1   109.8000471 387.438400
    658    657    659     1   107.5800459 329.699200
    659    657    660     1   109.8000471 387.438400
    661    660    663     1   109.8800469 414.216000
    661    660    662     1   108.4600466 328.025600
    662    660    663     1   109.8800469 414.216000
    663    664    665     1   109.8800469 414.216000
    663    664    666     1   109.8800469 414.216000
    663    674    675     1   109.8800469 414.216000
    663    674    676     1   109.8800469 414.216000
    664    667    668     1   109.8000471 387.438400
    664    667    669     1   109.8000471 387.438400
    665    664    667     1   109.5600471 388.275200
    665    664    666     1   108.4600466 328.025600
    666    664    667     1   109.5600471 388.275200
    668    667    670     1   108.7700466 392.459200
    668    667    669     1   107.5800459 329.699200
    669    667    670     1   108.7700466 392.459200
    670    672    673     1   106.5500460 417.563200
    674    677    678     1   109.8000471 387.438400
    674    677    679     1   109.8000471 387.438400
    675    674    677     1   109.5600471 388.275200
    675    674    676     1   108.4600466 328.025600
    676    674    677     1   109.5600471 388.275200
    678    677    680     1   108.7700466 392.459200
    678    677    679     1   107.5800459 329.699200
    679    677    680     1   108.7700466 392.459200
    680    682    683     1   106.5500460 417.563200
    685    688    689     1   109.8000471 387.438400
    685    688    690     1   109.8000471 387.438400
    686    685    688     1   109.5600471 388.275200
    686    685    715     1   109.7800468 425.094400
    686    685    687     1   108.4600466 328.025600
    687    685    688     1   109.5600471 388.275200
    687    685    715     1   109.7800468 425.094400
    688    691    692     1   109.5600471 388.275200
    688    691    693     1   109.5600471 388.275200
    689    688    691     1   109.8000471 387.438400
    689    688    690     1   107.5800459 329.699200
    690    688    691     1   109.8000471 387.438400
    692    691    694     1   109.8800469 414.216000
    692    691    693     1   108.4600466 328.025600
    693    691    694     1   109.8800469 414.216000
    694    695    696     1   109.8800469 414.216000
    694    695    697     1   109.8800469 414.216000
    694    705    706     1   109.8800469 414.216000
    694    705    707     1   109.8800469 414.216000
    695    698    699     1   109.8000471 387.438400
    695    698    700     1   109.8000471 387.438400
    696    695    698     1   109.5600471 388.275200
    696    695    697     1   108.4600466 328.025600
    697    695    698     1   109.5600471 388.275200
    699    698    701     1   108.7700466 392.459200
    699    698    700     1   107.5800459 329.699200
    700    698    701     1   108.7700466 392.459200
    701    703    704     1   106.5500460 417.563200
    705    708    709     1   109.8000471 387.438400
    705    708    710     1   109.8000471 387.438400
    706    705    708     1   109.5600471 388.275200
    706    705    707     1   108.4600466 328.025600
    707    705    708     1   109.5600471 388.275200
    709    708    711     1   108.7700466 392.459200
    709    708    710     1   107.5800459 329.699200
    710    708    711     1   108.7700466 392.459200
    711    713    714     1   106.5500460 417.563200
    716    719    720     1   109.8000471 387.438400
    716    719    721     1   109.8000471 387.438400
    717    716    719     1   109.5600471 388.275200
    717    716    746     1   109.7800468 425.094400
    717    716    718     1   108.4600466 328.025600
    718    716    719     1   109.5600471 388.275200
    718    716    746     1   109.7800468 425.094400
    719    722    723     1   109.5600471 388.275200
    719    722    724     1   109.5600471 388.275200
    720    719    722     1   109.8000471 387.438400
    720    719    721     1   107.5800459 329.699200
    721    719    722     1   109.8000471 387.438400
    723    722    725     1   109.8800469 414.216000
    723    722    724     1   108.4600466 328.025600
    724    722    725     1   109.8800469 414.216000
    725    726    727     1   109.8800469 414.216000
    725    726    728     1   109.8800469 414.216000
    725    736    737     1   109.8800469 414.216000
    725    736    738     1   109.8800469 414.216000
    726    729    730     1   109.8000471 387.438400
    726    729    731     1   109.8000471 387.438400
    727    726    729     1   109.5600471 388.275200
    727    726    728     1   108.4600466 328.025600
    728    726    729     1   109.5600471 388.275200
    730    729    732     1   108.7700466 392.459200
    730    729    731     1   107.5800459 329.699200
    731    729    732     1   108.7700466 392.459200
    732    734    735     1   106.5500460 417.563200
    736    739    740     1   109.8000471 387.438400
    736    739    741     1   109.8000471 387.438400
    737    736    739     1   109.5600471 388.275200
    737    736    738     1   108.4600466 328.025600
    738    736    739     1   109.5600471 388.275200
    740    739    742     1   108.7700466 392.459200
    740    739    741     1   107.5800459 329.699200
    741    739    742     1   108.7700466 392.459200
    742    744    745     1   106.5500460 417.563200
    747    750    751     1   109.8000471 387.438400
    747    750    752     1   109.8000471 387.438400
    748    747    750     1   109.5600471 388.275200
    748    747    777     1   109.7800468 425.094400
    748    747    749     1   108.4600466 328.025600
    749    747    750     1   109.5600471 388.275200
    749    747    777     1   109.7800468 425.094400
    750    753    754     1   109.5600471 388.275200
    750    753    755     1   109.5600471 388.275200
    751    750    753     1   109.8000471 387.438400
    751    750    752     1   107.5800459 329.699200
    752    750    753     1   109.8000471 387.438400
    754    753    756     1   109.8800469 414.216000
    754    753    755     1   108.4600466 328.025600
    755    753    756     1   109.8800469 414.216000
    756    757    758     1   109.8800469 414.216000
    756    757    759     1   109.8800469 414.216000
    756    767    768     1   109.8800469 414.216000
    756    767    769     1   109.8800469 414.216000
    757    760    761     1   109.8000471 387.438400
    757    760    762     1   109.8000471 387.438400
    758    757    760     1   109.5600471 388.275200
    758    757    759     1   108.4600466 328.025600
    759    757    760     1   109.5600471 388.275200
    761    760    763     1   108.7700466 392.459200
    761    760    762     1   107.5800459 329.699200
    762    760    763     1   108.7700466 392.459200
    763    765    766     1   106.5500460 417.563200
    767    770    771     1   109.8000471 387.438400
    767    770    772     1   109.8000471 387.438400
    768    767    770     1   109.5600471 388.275200
    768    767    769     1   108.4600466 328.025600
    769    767    770     1   109.5600471 388.275200
    771    770    773     1   108.7700466 392.459200
    771    770    772     1   107.5800459 329.699200
    772    770    773     1   108.7700466 392.459200
    773    775    776     1   106.5500460 417.563200
    778    781    782     1   109.8000471 387.438400
    778    781    783     1   109.8000471 387.438400
    779    778    781     1   109.5600471 388.275200
    779    778    808     1   109.7800468 425.094400
    779    778    780     1   108.4600466 328.025600
    780    778    781     1   109.5600471 388.275200
    780    778    808     1   109.7800468 425.094400
    781    784    785     1   109.5600471 388.275200
    781    784    786     1   109.5600471 388.275200
    782    781    784     1   109.8000471 387.438400
    782    781    783     1   107.5800459 329.699200
    783    781    784     1   109.8000471 387.438400
    785    784    787     1   109.8800469 414.216000
    785    784    786     1   108.4600466 328.025600
    786    784    787     1   109.8800469 414.216000
    787    788    789     1   109.8800469 414.216000
    787    788    790     1   109.8800469 414.216000
    787    798    799     1   109.8800469 414.216000
    787    798    800     1   109.8800469 414.216000
    788    791    792     1   109.8000471 387.438400
    788    791    793     1   109.8000471 387.438400
    789    788    791     1   109.5600471 388.275200
    789    788    790     1   108.4600466 328.025600
    790    788    791     1   109.5600471 388.275200
    792    791    794     1   108.7700466 392.459200
    792    791    793     1   107.5800459 329.699200
    793    791    794     1   108.7700466 392.459200
    794    796    797     1   106.5500460 417.563200
    798    801    802     1   109.8000471 387.438400
    798    801    803     1   109.8000471 387.438400
    799    798    801     1   109.5600471 388.275200
    799    798    800     1   108.4600466 328.025600
    800    798    801     1   109.5600471 388.275200
    802    801    804     1   108.7700466 392.459200
    802    801    803     1   107.5800459 329.699200
    803    801    804     1   108.7700466 392.459200
    804    806    807     1   106.5500460 417.563200
    809    812    813     1   109.8000471 387.438400
    809    812    814     1   109.8000471 387.438400
    810    809    812     1   109.5600471 388.275200
    810    809    839     1   109.7800468 425.094400
    810    809    811     1   108.4600466 328.025600
    811    809    812     1   109.5600471 388.275200
    811    809    839     1   109.7800468 425.094400
    812    815    816     1   109.5600471 388.275200
    812    815    817     1   109.5600471 388.275200
    813    812    815     1   109.8000471 387.438400
    813    812    814     1   107.5800459 329.699200
    814    812    815     1   109.8000471 387.438400
    816    815    818     1   109.8800469 414.216000
    816    815    817     1   108.4600466 328.025600
    817    815    818     1   109.8800469 414.216000
    818    819    820     1   109.8800469 414.216000
    818    819    821     1   109.8800469 414.216000
    818    829    830     1   109.8800469 414.216000
    818    829    831     1   109.8800469 414.216000
    819    822    823     1   109.8000471 387.438400
    819    822    824     1   109.8000471 387.438400
    820    819    822     1   109.5600471 388.275200
    820    819    821     1   108.4600466 328.025600
    821    819    822     1   109.5600471 388.275200
    823    822    825     1   108.7700466 392.459200
    823    822    824     1   107.5800459 329.699200
    824    822    825     1   108.7700466 392.459200
    825    827    828     1   106.5500460 417.563200
    829    832    833     1   109.8000471 387.438400
    829    832    834     1   109.8000471 387.438400
    830    829    832     1   109.5600471 388.275200
    830    829    831     1   108.4600466 328.025600
    831    829    832     1   109.5600471 388.275200
    833    832    835     1   108.7700466 392.459200
    833    832    834     1   107.5800459 329.699200
    834    832    835     1   108.7700466 392.459200
    835    837    838     1   106.5500460 417.563200
    840    843    844     1   109.8000471 387.438400
    840    843    845     1   109.8000471 387.438400
    841    840    843     1   109.5600471 388.275200
    841    840    870     1   109.7800468 425.094400
    841    840    842     1   108.4600466 328.025600
    842    840    843     1   109.5600471 388.275200
    842    840    870     1   109.7800468 425.094400
    843    846    847     1   109.5600471 388.275200
    843    846    848     1   109.5600471 388.275200
    844    843    846     1   109.8000471 387.438400
    844    843    845     1   107.5800459 329.699200
    845    843    846     1   109.8000471 387.438400
    847    846    849     1   109.8800469 414.216000
    847    846    848     1   108.4600466 328.025600
    848    846    849     1   109.8800469 414.216000
    849    850    851     1   109.8800469 414.216000
    849    850    852     1   109.8800469 414.216000
    849    860    861     1   109.8800469 414.216000
    849    860    862     1   109.8800469 414.216000
    850    853    854     1   109.8000471 387.438400
    850    853    855     1   109.8000471 387.438400
    851    850    853     1   109.5600471 388.275200
    851    850    852     1   108.4600466 328.025600
    852    850    853     1   109.5600471 388.275200
    854    853    856     1   108.7700466 392.459200
    854    853    855     1   107.5800459 329.699200
    855    853    856     1   108.7700466 392.459200
    856    858    859     1   106.5500460 417.563200
    860    863    864     1   109.8000471 387.438400
    860    863    865     1   109.8000471 387.438400
    861    860    863     1   109.5600471 388.275200
    861    860    862     1   108.4600466 328.025600
    862    860    863     1   109.5600471 388.275200
    864    863    866     1   108.7700466 392.459200
    864    863    865     1   107.5800459 329.699200
    865    863    866     1   108.7700466 392.459200
    866    868    869     1   106.5500460 417.563200
    871    874    875     1   109.8000471 387.438400
    871    874    876     1   109.8000471 387.438400
    872    871    874     1   109.5600471 388.275200
    872    871    901     1   109.7800468 425.094400
    872    871    873     1   108.4600466 328.025600
    873    871    874     1   109.5600471 388.275200
    873    871    901     1   109.7800468 425.094400
    874    877    878     1   109.5600471 388.275200
    874    877    879     1   109.5600471 388.275200
    875    874    877     1   109.8000471 387.438400
    875    874    876     1   107.5800459 329.699200
    876    874    877     1   109.8000471 387.438400
    878    877    880     1   109.8800469 414.216000
    878    877    879     1   108.4600466 328.025600
    879    877    880     1   109.8800469 414.216000
    880    881    882     1   109.8800469 414.216000
    880    881    883     1   109.8800469 414.216000
    880    891    892     1   109.8800469 414.216000
    880    891    893     1   109.8800469 414.216000
    881    884    885     1   109.8000471 387.438400
    881    884    886     1   109.8000471 387.438400
    882    881    884     1   109.5600471 388.275200
    882    881    883     1   108.4600466 328.025600
    883    881    884     1   109.5600471 388.275200
    885    884    887     1   108.7700466 392.459200
    885    884    886     1   107.5800459 329.699200
    886    884    887     1   108.7700466 392.459200
    887    889    890     1   106.5500460 417.563200
    891    894    895     1   109.8000471 387.438400
    891    894    896     1   109.8000471 387.438400
    892    891    894     1   109.5600471 388.275200
    892    891    893     1   108.4600466 328.025600
    893    891    894     1   109.5600471 388.275200
    895    894    897     1   108.7700466 392.459200
    895    894    896     1   107.5800459 329.699200
    896    894    897     1   108.7700466 392.459200
    897    899    900     1   106.5500460 417.563200

[ dihedrals ]
;    ai     aj     ak     al funct         c0         c1         c2         c3         c4         c5
      1      2      8     14     1  0.0000000  0.6508444  3
      1      5     11     17     1  0.0000000  0.6508444  3
      2      1      5     11     1  180.0000771  0.4184000  2
      2      1      5     11     1  0.0000000  1.6024720  3
      2      8     14     20     1  0.0000000  0.6508444  3
      5      1      2      8     1  180.0000771  0.4184000  2
      5      1      2      8     1  0.0000000  1.6024720  3
      5     11     17     21     1  0.0000000  0.6508444  3
      8     14     20     28     1  180.0000771  2.0083200  2
      8     14     20     28     1  0.0000000  1.2552000  3
      8     14     20     31     1  180.0000771  2.0083200  2
      8     14     20     31     1  0.0000000  1.2552000  3
     11     17     21     22     1  180.0000771  2.0083200  2
     11     17     21     22     1  0.0000000  1.2552000  3
     11     17     21     25     1  180.0000771  2.0083200  2
     11     17     21     25     1  0.0000000  1.2552000  3
     14     20     28     40     1  180.0000771  2.0083200  2
     14     20     28     40     1  0.0000000  1.2552000  3
     14     20     31     43     1  180.0000771  2.0083200  2
     14     20     31     43     1  0.0000000  1.2552000  3
     17     21     22     34     1  180.0000771  2.0083200  2
     17     21     22     34     1  0.0000000  1.2552000  3
     17     21     25     37     1  180.0000771  2.0083200  2
     17     21     25     37     1  0.0000000  1.2552000  3
     20     28     40     49     1  0.0000000  0.6508444  3
     20     31     43     46     1  0.0000000  0.6508444  3
     21     22     34     55     1  0.0000000  0.6508444  3
     21     25     37     52     1  0.0000000  0.6508444  3
     22     21     25     37     1  180.0000771  2.0083200  2
     22     21     25     37     1  0.0000000  1.2552000  3
     22     34     55    173     1  0.0000000  0.6508444  3
     25     21     22     34     1  180.0000771  2.0083200  2
     25     21     22     34     1  0.0000000  1.2552000  3
     25     37     52    144     1  0.0000000  0.6508444  3
     28     20     31     43     1  180.0000771  2.0083200  2
     28     20     31     43     1  0.0000000  1.2552000  3
     28     40     49    115     1  0.0000000  0.6508444  3
     31     20     28     40     1  180.0000771  2.0083200  2
     31     20     28     40     1  0.0000000  1.2552000  3
     31     43     46     86     1  0.0000000  0.6508444  3
     34     55    173    164     1  180.0000771  0.4184000  2
     34     55    173    164     1  0.0000000  1.6024720  3
     37     52    144    135     1  180.0000771  0.4184000  2
     37     52    144    135     1  0.0000000  1.6024720  3
     40     49    115    106     1  180.0000771  0.4184000  2
     40     49    115    106     1  0.0000000  1.6024720  3
     43     46     86     77     1  180.0000771  0.4184000  2
     43     46     86     77     1  0.0000000  1.6024720  3
     46     86     77     68     1  180.0000771  0.4184000  2
     46     86     77     68     1  0.0000000  1.6024720  3
     49    115    106     97     1  180.0000771  0.4184000  2
     49    115    106     97     1  0.0000000  1.6024720  3
     52    144    135    126     1  180.0000771  0.4184000  2
     52    144    135    126     1  0.0000000  1.6024720  3
     55    173    164    155     1  180.0000771  0.4184000  2
     55    173    164    155     1  0.0000000  1.6024720  3
     58     59     71     83     1  0.0000000  0.6508444  3
     58     62     74     80     1  0.0000000  0.6508444  3
     58     65     68     77     1  0.0000000  0.6508444  3
     59     58     62     74     1  180.0000771  2.0083200  2
     59     58     62     74     1  0.0000000  1.2552000  3
     59     58     65     68     1  180.0000771  2.0083200  2
     59     58     65     68     1  0.0000000  1.2552000  3
     59     71     83    231     1  0.0000000  0.6508444  3
     62     58     59     71     1  180.0000771  2.0083200  2
     62     58     59     71     1  0.0000000  1.2552000  3
     62     58     65     68     1  180.0000771  2.0083200  2
     62     58     65     68     1  0.0000000  1.2552000  3
     62     74     80    202     1  0.0000000  0.6508444  3
     65     58     59     71     1  180.0000771  2.0083200  2
     65     58     59     71     1  0.0000000  1.2552000  3
     65     58     62     74     1  180.0000771  2.0083200  2
     65     58     62     74     1  0.0000000  1.2552000  3
     65     68     77     86     1  0.0000000  0.6508444  3
     71     83    231    222     1  180.0000771  0.4184000  2
     71     83    231    222     1  0.0000000  1.6024720  3
     74     80    202    193     1  180.0000771  0.4184000  2
     74     80    202    193     1  0.0000000  1.6024720  3
     80    202    193    184     1  180.0000771  0.4184000  2
     80    202    193    184     1  0.0000000  1.6024720  3
     83    231    222    213     1  180.0000771  0.4184000  2
     83    231    222    213     1  0.0000000  1.6024720  3
     87     88    100    112     1  0.0000000  0.6508444  3
     87     91    103    109     1  0.0000000  0.6508444  3
     87     94     97    106     1  0.0000000  0.6508444  3
     88     87     91    103     1  180.0000771  2.0083200  2
     88     87     91    103     1  0.0000000  1.2552000  3
     88     87     94     97     1  180.0000771  2.0083200  2
     88     87     94     97     1  0.0000000  1.2552000  3
     88    100    112    289     1  0.0000000  0.6508444  3
     91     87     88    100     1  180.0000771  2.0083200  2
     91     87     88    100     1  0.0000000  1.2552000  3
     91     87     94     97     1  180.0000771  2.0083200  2
     91     87     94     97     1  0.0000000  1.2552000  3
     91    103    109    260     1  0.0000000  0.6508444  3
     94     87     88    100     1  180.0000771  2.0083200  2
     94     87     88    100     1  0.0000000  1.2552000  3
     94     87     91    103     1  180.0000771  2.0083200  2
     94     87     91    103     1  0.0000000  1.2552000  3
     94     97    106    115     1  0.0000000  0.6508444  3
    100    112    289    280     1  180.0000771  0.4184000  2
    100    112    289    280     1  0.0000000  1.6024720  3
    103    109    260    251     1  180.0000771  0.4184000  2
    103    109    260    251     1  0.0000000  1.6024720  3
    109    260    251    242     1  180.0000771  0.4184000  2
    109    260    251    242     1  0.0000000  1.6024720  3
    112    289    280    271     1  180.0000771  0.4184000  2
    112    289    280    271     1  0.0000000  1.6024720  3
    116    117    129    141     1  0.0000000  0.6508444  3
    116    120    132    138     1  0.0000000  0.6508444  3
    116    123    126    135     1  0.0000000  0.6508444  3
    117    116    120    132     1  180.0000771  2.0083200  2
    117    116    120    132     1  0.0000000  1.2552000  3
    117    116    123    126     1  180.0000771  2.0083200  2
    117    116    123    126     1  0.0000000  1.2552000  3
    117    129    141    347     1  0.0000000  0.6508444  3
    120    116    117    129     1  180.0000771  2.0083200  2
    120    116    117    129     1  0.0000000  1.2552000  3
    120    116    123    126     1  180.0000771  2.0083200  2
    120    116    123    126     1  0.0000000  1.2552000  3
    120    132    138    318     1  0.0000000  0.6508444  3
    123    116    117    129     1  180.0000771  2.0083200  2
    123    116    117    129     1  0.0000000  1.2552000  3
    123    116    120    132     1  180.0000771  2.0083200  2
    123    116    120    132     1  0.0000000  1.2552000  3
    123    126    135    144     1  0.0000000  0.6508444  3
    129    141    347    338     1  180.0000771  0.4184000  2
    129    141    347    338     1  0.0000000  1.6024720  3
    132    138    318    309     1  180.0000771  0.4184000  2
    132    138    318    309     1  0.0000000  1.6024720  3
    138    318    309    300     1  180.0000771  0.4184000  2
    138    318    309    300     1  0.0000000  1.6024720  3
    141    347    338    329     1  180.0000771  0.4184000  2
    141    347    338    329     1  0.0000000  1.6024720  3
    145    146    158    170     1  0.0000000  0.6508444  3
    145    149    161    167     1  0.0000000  0.6508444  3
    145    152    155    164     1  0.0000000  0.6508444  3
    146    145    149    161     1  180.0000771  2.0083200  2
    146    145    149    161     1  0.0000000  1.2552000  3
    146    145    152    155     1  180.0000771  2.0083200  2
    146    145    152    155     1  0.0000000  1.2552000  3
    146    158    170    405     1  0.0000000  0.6508444  3
    149    145    146    158     1  180.0000771  2.0083200  2
    149    145    146    158     1  0.0000000  1.2552000  3
    149    145    152    155     1  180.0000771  2.0083200  2
    149    145    152    155     1  0.0000000  1.2552000  3
    149    161    167    376     1  0.0000000  0.6508444  3
    152    145    146    158     1  180.0000771  2.0083200  2
    152    145    146    158     1  0.0000000  1.2552000  3
    152    145    149    161     1  180.0000771  2.0083200  2
    152    145    149    161     1  0.0000000  1.2552000  3
    152    155    164    173     1  0.0000000  0.6508444  3
    158    170    405    396     1  180.0000771  0.4184000  2
    158    170    405    396     1  0.0000000  1.6024720  3
    161    167    376    367     1  180.0000771  0.4184000  2
    161    167    376    367     1  0.0000000  1.6024720  3
    167    376    367    358     1  180.0000771  0.4184000  2
    167    376    367    358     1  0.0000000  1.6024720  3
    170    405    396    387     1  180.0000771  0.4184000  2
    170    405    396    387     1  0.0000000  1.6024720  3
    174    175    187    199     1  0.0000000  0.6508444  3
    174    178    190    196     1  0.0000000  0.6508444  3
    174    181    184    193     1  0.0000000  0.6508444  3
    175    174    178    190     1  180.0000771  2.0083200  2
    175    174    178    190     1  0.0000000  1.2552000  3
    175    174    181    184     1  180.0000771  2.0083200  2
    175    174    181    184     1  0.0000000  1.2552000  3
    175    187    199    467     1  0.0000000  0.6508444  3
    178    174    175    187     1  180.0000771  2.0083200  2
    178    174    175    187     1  0.0000000  1.2552000  3
    178    174    181    184     1  180.0000771  2.0083200  2
    178    174    181    184     1  0.0000000  1.2552000  3
    178    190    196    436     1  0.0000000  0.6508444  3
    181    174    175    187     1  180.0000771  2.0083200  2
    181    174    175    187     1  0.0000000  1.2552000  3
    181    174    178    190     1  180.0000771  2.0083200  2
    181    174    178    190     1  0.0000000  1.2552000  3
    181    184    193    202     1  0.0000000  0.6508444  3
    187    199    467    437     1  180.0000771  0.4184000  2
    187    199    467    437     1  0.0000000  1.6024720  3
    190    196    436    406     1  180.0000771  0.4184000  2
    190    196    436    406     1  0.0000000  1.6024720  3
    196    436    406    409     1  180.0000771  0.4184000  2
    196    436    406    409     1  0.0000000  1.6024720  3
    199    467    437    440     1  180.0000771  0.4184000  2
    199    467    437    440     1  0.0000000  1.6024720  3
    203    204    216    228     1  0.0000000  0.6508444  3
    203    207    219    225     1  0.0000000  0.6508444  3
    203    210    213    222     1  0.0000000  0.6508444  3
    204    203    207    219     1  180.0000771  2.0083200  2
    204    203    207    219     1  0.0000000  1.2552000  3
    204    203    210    213     1  180.0000771  2.0083200  2
    204    203    210    213     1  0.0000000  1.2552000  3
    204    216    228    529     1  0.0000000  0.6508444  3
    207    203    204    216     1  180.0000771  2.0083200  2
    207    203    204    216     1  0.0000000  1.2552000  3
    207    203    210    213     1  180.0000771  2.0083200  2
    207    203    210    213     1  0.0000000  1.2552000  3
    207    219    225    498     1  0.0000000  0.6508444  3
    210    203    204    216     1  180.0000771  2.0083200  2
    210    203    204    216     1  0.0000000  1.2552000  3
    210    203    207    219     1  180.0000771  2.0083200  2
    210    203    207    219     1  0.0000000  1.2552000  3
    210    213    222    231     1  0.0000000  0.6508444  3
    216    228    529    499     1  180.0000771  0.4184000  2
    216    228    529    499     1  0.0000000  1.6024720  3
    219    225    498    468     1  180.0000771  0.4184000  2
    219    225    498    468     1  0.0000000  1.6024720  3
    225    498    468    471     1  180.0000771  0.4184000  2
    225    498    468    471     1  0.0000000  1.6024720  3
    228    529    499    502     1  180.0000771  0.4184000  2
    228    529    499    502     1  0.0000000  1.6024720  3
    232    233    245    257     1  0.0000000  0.6508444  3
    232    236    248    254     1  0.0000000  0.6508444  3
    232    239    242    251     1  0.0000000  0.6508444  3
    233    232    236    248     1  180.0000771  2.0083200  2
    233    232    236    248     1  0.0000000  1.2552000  3
    233    232    239    242     1  180.0000771  2.0083200  2
    233    232    239    242     1  0.0000000  1.2552000  3
    233    245    257    591     1  0.0000000  0.6508444  3
    236    232    233    245     1  180.0000771  2.0083200  2
    236    232    233    245     1  0.0000000  1.2552000  3
    236    232    239    242     1  180.0000771  2.0083200  2
    236    232    239    242     1  0.0000000  1.2552000  3
    236    248    254    560     1  0.0000000  0.6508444  3
    239    232    233    245     1  180.0000771  2.0083200  2
    239    232    233    245     1  0.0000000  1.2552000  3
    239    232    236    248     1  180.0000771  2.0083200  2
    239    232    236    248     1  0.0000000  1.2552000  3
    239    242    251    260     1  0.0000000  0.6508444  3
    245    257    591    561     1  180.0000771  0.4184000  2
    245    257    591    561     1  0.0000000  1.6024720  3
    248    254    560    530     1  180.0000771  0.4184000  2
    248    254    560    530     1  0.0000000  1.6024720  3
    254    560    530    533     1  180.0000771  0.4184000  2
    254    560    530    533     1  0.0000000  1.6024720  3
    257    591    561    564     1  180.0000771  0.4184000  2
    257    591    561    564     1  0.0000000  1.6024720  3
    261    262    274    286     1  0.0000000  0.6508444  3
    261    265    277    283     1  0.0000000  0.6508444  3
    261    268    271    280     1  0.0000000  0.6508444  3
    262    261    265    277     1  180.0000771  2.0083200  2
    262    261    265    277     1  0.0000000  1.2552000  3
    262    261    268    271     1  180.0000771  2.0083200  2
    262    261    268    271     1  0.0000000  1.2552000  3
    262    274    286    653     1  0.0000000  0.6508444  3
    265    261    262    274     1  180.0000771  2.0083200  2
    265    261    262    274     1  0.0000000  1.2552000  3
    265    261    268    271     1  180.0000771  2.0083200  2
    265    261    268    271     1  0.0000000  1.2552000  3
    265    277    283    622     1  0.0000000  0.6508444  3
    268    261    262    274     1  180.0000771  2.0083200  2
    268    261    262    274     1  0.0000000  1.2552000  3
    268    261    265    277     1  180.0000771  2.0083200  2
    268    261    265    277     1  0.0000000  1.2552000  3
    268    271    280    289     1  0.0000000  0.6508444  3
    274    286    653    623     1  180.0000771  0.4184000  2
    274    286    653    623     1  0.0000000  1.6024720  3
    277    283    622    592     1  180.0000771  0.4184000  2
    277    283    622    592     1  0.0000000  1.6024720  3
    283    622    592    595     1  180.0000771  0.4184000  2
    283    622    592    595     1  0.0000000  1.6024720  3
    286    653    623    626     1  180.0000771  0.4184000  2
    286    653    623    626     1  0.0000000  1.6024720  3
    290    291    303    315     1  0.0000000  0.6508444  3
    290    294    306    312     1  0.0000000  0.6508444  3
    290    297    300    309     1  0.0000000  0.6508444  3
    291    290    294    306     1  180.0000771  2.0083200  2
    291    290    294    306     1  0.0000000  1.2552000  3
    291    290    297    300     1  180.0000771  2.0083200  2
    291    290    297    300     1  0.0000000  1.2552000  3
    291    303    315    715     1  0.0000000  0.6508444  3
    294    290    291    303     1  180.0000771  2.0083200  2
    294    290    291    303     1  0.0000000  1.2552000  3
    294    290    297    300     1  180.0000771  2.0083200  2
    294    290    297    300     1  0.0000000  1.2552000  3
    294    306    312    684     1  0.0000000  0.6508444  3
    297    290    291    303     1  180.0000771  2.0083200  2
    297    290    291    303     1  0.0000000  1.2552000  3
    297    290    294    306     1  180.0000771  2.0083200  2
    297    290    294    306     1  0.0000000  1.2552000  3
    297    300    309    318     1  0.0000000  0.6508444  3
    303    315    715    685     1  180.0000771  0.4184000  2
    303    315    715    685     1  0.0000000  1.6024720  3
    306    312    684    654     1  180.0000771  0.4184000  2
    306    312    684    654     1  0.0000000  1.6024720  3
    312    684    654    657     1  180.0000771  0.4184000  2
    312    684    654    657     1  0.0000000  1.6024720  3
    315    715    685    688     1  180.0000771  0.4184000  2
    315    715    685    688     1  0.0000000  1.6024720  3
    319    320    332    344     1  0.0000000  0.6508444  3
    319    323    335    341     1  0.0000000  0.6508444  3
    319    326    329    338     1  0.0000000  0.6508444  3
    320    319    323    335     1  180.0000771  2.0083200  2
    320    319    323    335     1  0.0000000  1.2552000  3
    320    319    326    329     1  180.0000771  2.0083200  2
    320    319    326    329     1  0.0000000  1.2552000  3
    320    332    344    777     1  0.0000000  0.6508444  3
    323    319    320    332     1  180.0000771  2.0083200  2
    323    319    320    332     1  0.0000000  1.2552000  3
    323    319    326    329     1  180.0000771  2.0083200  2
    323    319    326    329     1  0.0000000  1.2552000  3
    323    335    341    746     1  0.0000000  0.6508444  3
    326    319    320    332     1  180.0000771  2.0083200  2
    326    319    320    332     1  0.0000000  1.2552000  3
    326    319    323    335     1  180.0000771  2.0083200  2
    326    319    323    335     1  0.0000000  1.2552000  3
    326    329    338    347     1  0.0000000  0.6508444  3
    332    344    777    747     1  180.0000771  0.4184000  2
    332    344    777    747     1  0.0000000  1.6024720  3
    335    341    746    716     1  180.0000771  0.4184000  2
    335    341    746    716     1  0.0000000  1.6024720  3
    341    746    716    719     1  180.0000771  0.4184000  2
    341    746    716    719     1  0.0000000  1.6024720  3
    344    777    747    750     1  180.0000771  0.4184000  2
    344    777    747    750     1  0.0000000  1.6024720  3
    348    349    361    373     1  0.0000000  0.6508444  3
    348    352    364    370     1  0.0000000  0.6508444  3
    348    355    358    367     1  0.0000000  0.6508444  3
    349    348    352    364     1  180.0000771  2.0083200  2
    349    348    352    364     1  0.0000000  1.2552000  3
    349    348    355    358     1  180.0000771  2.0083200  2
    349    348    355    358     1  0.0000000  1.2552000  3
    349    361    373    839     1  0.0000000  0.6508444  3
    352    348    349    361     1  180.0000771  2.0083200  2
    352    348    349    361     1  0.0000000  1.2552000  3
    352    348    355    358     1  180.0000771  2.0083200  2
    352    348    355    358     1  0.0000000  1.2552000  3
    352    364    370    808     1  0.0000000  0.6508444  3
    355    348    349    361     1  180.0000771  2.0083200  2
    355    348    349    361     1  0.0000000  1.2552000  3
    355    348    352    364     1  180.0000771  2.0083200  2
    355    348    352    364     1  0.0000000  1.2552000  3
    355    358    367    376     1  0.0000000  0.6508444  3
    361    373    839    809     1  180.0000771  0.4184000  2
    361    373    839    809     1  0.0000000  1.6024720  3
    364    370    808    778     1  180.0000771  0.4184000  2
    364    370    808    778     1  0.0000000  1.6024720  3
    370    808    778    781     1  180.0000771  0.4184000  2
    370    808    778    781     1  0.0000000  1.6024720  3
    373    839    809    812     1  180.0000771  0.4184000  2
    373    839    809    812     1  0.0000000  1.6024720  3
    377    378    390    402     1  0.0000000  0.6508444  3
    377    381    393    399     1  0.0000000  0.6508444  3
    377    384    387    396     1  0.0000000  0.6508444  3
    378    377    381    393     1  180.0000771  2.0083200  2
    378    377    381    393     1  0.0000000  1.2552000  3
    378    377    384    387     1  180.0000771  2.0083200  2
    378    377    384    387     1  0.0000000  1.2552000  3
    378    390    402    901     1  0.0000000  0.6508444  3
    381    377    378    390     1  180.0000771  2.0083200  2
    381    377    378    390     1  0.0000000  1.2552000  3
    381    377    384    387     1  180.0000771  2.0083200  2
    381    377    384    387     1  0.0000000  1.2552000  3
    381    393    399    870     1  0.0000000  0.6508444  3
    384    377    378    390     1  180.0000771  2.0083200  2
    384    377    378    390     1  0.0000000  1.2552000  3
    384    377    381    393     1  180.0000771  2.0083200  2
    384    377    381    393     1  0.0000000  1.2552000  3
    384    387    396    405     1  0.0000000  0.6508444  3
    390    402    901    871     1  180.0000771  0.4184000  2
    390    402    901    871     1  0.0000000  1.6024720  3
    393    399    870    840     1  180.0000771  0.4184000  2
    393    399    870    840     1  0.0000000  1.6024720  3
    399    870    840    843     1  180.0000771  0.4184000  2
    399    870    840    843     1  0.0000000  1.6024720  3
    402    901    871    874     1  180.0000771  0.4184000  2
    402    901    871    874     1  0.0000000  1.6024720  3
    406    409    412    415     1  0.0000000  0.6508444  3
    409    412    415    416     1  180.0000771  2.0083200  2
    409    412    415    416     1  0.0000000  1.2552000  3
    409    412    415    426     1  180.0000771  2.0083200  2
    409    412    415    426     1  0.0000000  1.2552000  3
    412    409    406    436     1  0.0000000  0.6508444  3
    412    415    416    419     1  180.0000771  2.0083200  2
    412    415    416    419     1  0.0000000  1.2552000  3
    412    415    426    429     1  180.0000771  2.0083200  2
    412    415    426    429     1  0.0000000  1.2552000  3
    415    416    419    422     1  0.0000000  0.6508444  3
    415    426    429    432     1  0.0000000  0.6508444  3
    416    415    426    429     1  180.0000771  2.0083200  2
    416    415    426    429     1  0.0000000  1.2552000  3
    416    419    422    423     1  180.0000771  0.0000000  2
    416    419    422    424     1  180.0000771  0.0000000  2
    419    416    415    426     1  180.0000771  2.0083200  2
    419    416    415    426     1  0.0000000  1.2552000  3
    426    429    432    433     1  180.0000771  0.0000000  2
    426    429    432    434     1  180.0000771  0.0000000  2
    437    440    443    446     1  0.0000000  0.6508444  3
    440    443    446    447     1  180.0000771  2.0083200  2
    440    443    446    447     1  0.0000000  1.2552000  3
    440    443    446    457     1  180.0000771  2.0083200  2
    440    443    446    457     1  0.0000000  1.2552000  3
    443    446    447    450     1  180.0000771  2.0083200  2
    443    446    447    450     1  0.0000000  1.2552000  3
    443    446    457    460     1  180.0000771  2.0083200  2
    443    446    457    460     1  0.0000000  1.2552000  3
    443    440    437    467     1  0.0000000  0.6508444  3
    446    447    450    453     1  0.0000000  0.6508444  3
    446    457    460    463     1  0.0000000  0.6508444  3
    447    450    453    454     1  180.0000771  0.0000000  2
    447    450    453    455     1  180.0000771  0.0000000  2
    447    446    457    460     1  180.0000771  2.0083200  2
    447    446    457    460     1  0.0000000  1.2552000  3
    450    447    446    457     1  180.0000771  2.0083200  2
    450    447    446    457     1  0.0000000  1.2552000  3
    457    460    463    464     1  180.0000771  0.0000000  2
    457    460    463    465     1  180.0000771  0.0000000  2
    468    471    474    477     1  0.0000000  0.6508444  3
    471    474    477    478     1  180.0000771  2.0083200  2
    471    474    477    478     1  0.0000000  1.2552000  3
    471    474    477    488     1  180.0000771  2.0083200  2
    471    474    477    488     1  0.0000000  1.2552000  3
    474    471    468    498     1  0.0000000  0.6508444  3
    474    477    478    481     1  180.0000771  2.0083200  2
    474    477    478    481     1  0.0000000  1.2552000  3
    474    477    488    491     1  180.0000771  2.0083200  2
    474    477    488    491     1  0.0000000  1.2552000  3
    477    478    481    484     1  0.0000000  0.6508444  3
    477    488    491    494     1  0.0000000  0.6508444  3
    478    477    488    491     1  180.0000771  2.0083200  2
    478    477    488    491     1  0.0000000  1.2552000  3
    478    481    484    485     1  180.0000771  0.0000000  2
    478    481    484    486     1  180.0000771  0.0000000  2
    481    478    477    488     1  180.0000771  2.0083200  2
    481    478    477    488     1  0.0000000  1.2552000  3
    488    491    494    495     1  180.0000771  0.0000000  2
    488    491    494    496     1  180.0000771  0.0000000  2
    499    502    505    508     1  0.0000000  0.6508444  3
    502    505    508    509     1  180.0000771  2.0083200  2
    502    505    508    509     1  0.0000000  1.2552000  3
    502    505    508    519     1  180.0000771  2.0083200  2
    502    505    508    519     1  0.0000000  1.2552000  3
    505    508    509    512     1  180.0000771  2.0083200  2
    505    508    509    512     1  0.0000000  1.2552000  3
    505    508    519    522     1  180.0000771  2.0083200  2
    505    508    519    522     1  0.0000000  1.2552000  3
    505    502    499    529     1  0.0000000  0.6508444  3
    508    509    512    515     1  0.0000000  0.6508444  3
    508    519    522    525     1  0.0000000  0.6508444  3
    509    512    515    516     1  180.0000771  0.0000000  2
    509    512    515    517     1  180.0000771  0.0000000  2
    509    508    519    522     1  180.0000771  2.0083200  2
    509    508    519    522     1  0.0000000  1.2552000  3
    512    509    508    519     1  180.0000771  2.0083200  2
    512    509    508    519     1  0.0000000  1.2552000  3
    519    522    525    526     1  180.0000771  0.0000000  2
    519    522    525    527     1  180.0000771  0.0000000  2
    530    533    536    539     1  0.0000000  0.6508444  3
    533    536    539    540     1  180.0000771  2.0083200  2
    533    536    539    540     1  0.0000000  1.2552000  3
    533    536    539    550     1  180.0000771  2.0083200  2
    533    536    539    550     1  0.0000000  1.2552000  3
    536    533    530    560     1  0.0000000  0.6508444  3
    536    539    540    543     1  180.0000771  2.0083200  2
    536    539    540    543     1  0.0000000  1.2552000  3
    536    539    550    553     1  180.0000771  2.0083200  2
    536    539    550    553     1  0.0000000  1.2552000  3
    539    540    543    546     1  0.0000000  0.6508444  3
    539    550    553    556     1  0.0000000  0.6508444  3
    540    539    550    553     1  180.0000771  2.0083200  2
    540    539    550    553     1  0.0000000  1.2552000  3
    540    543    546    547     1  180.0000771  0.0000000  2
    540    543    546    548     1  180.0000771  0.0000000  2
    543    540    539    550     1  180.0000771  2.0083200  2
    543    540    539    550     1  0.0000000  1.2552000  3
    550    553    556    557     1  180.0000771  0.0000000  2
    550    553    556    558     1  180.0000771  0.0000000  2
    561    564    567    570     1  0.0000000  0.6508444  3
    564    567    570    571     1  180.0000771  2.0083200  2
    564    567    570    571     1  0.0000000  1.2552000  3
    564    567    570    581     1  180.0000771  2.0083200  2
    564    567    570    581     1  0.0000000  1.2552000  3
    567    570    571    574     1  180.0000771  2.0083200  2
    567    570    571    574     1  0.0000000  1.2552000  3
    567    570    581    584     1  180.0000771  2.0083200  2
    567    570    581    584     1  0.0000000  1.2552000  3
    567    564    561    591     1  0.0000000  0.6508444  3
    570    571    574    577     1  0.0000000  0.6508444  3
    570    581    584    587     1  0.0000000  0.6508444  3
    571    574    577    578     1  180.0000771  0.0000000  2
    571    574    577    579     1  180.0000771  0.0000000  2
    571    570    581    584     1  180.0000771  2.0083200  2
    571    570    581    584     1  0.0000000  1.2552000  3
    574    571    570    581     1  180.0000771  2.0083200  2
    574    571    570    581     1  0.0000000  1.2552000  3
    581    584    587    588     1  180.0000771  0.0000000  2
    581    584    587    589     1  180.0000771  0.0000000  2
    592    595    598    601     1  0.0000000  0.6508444  3
    595    598    601    602     1  180.0000771  2.0083200  2
    595    598    601    602     1  0.0000000  1.2552000  3
    595    598    601    612     1  180.0000771  2.0083200  2
    595    598    601    612     1  0.0000000  1.2552000  3
    598    595    592    622     1  0.0000000  0.6508444  3
    598    601    602    605     1  180.0000771  2.0083200  2
    598    601    602    605     1  0.0000000  1.2552000  3
    598    601    612    615     1  180.0000771  2.0083200  2
    598    601    612    615     1  0.0000000  1.2552000  3
    601    602    605    608     1  0.0000000  0.6508444  3
    601    612    615    618     1  0.0000000  0.6508444  3
    602    601    612    615     1  180.0000771  2.0083200  2
    602    601    612    615     1  0.0000000  1.2552000  3
    602    605    608    609     1  180.0000771  0.0000000  2
    602    605    608    610     1  180.0000771  0.0000000  2
    605    602    601    612     1  180.0000771  2.0083200  2
    605    602    601    612     1  0.0000000  1.2552000  3
    612    615    618    619     1  180.0000771  0.0000000  2
    612    615    618    620     1  180.0000771  0.0000000  2
    623    626    629    632     1  0.0000000  0.6508444  3
    626    629    632    633     1  180.0000771  2.0083200  2
    626    629    632    633     1  0.0000000  1.2552000  3
    626    629    632    643     1  180.0000771  2.0083200  2
    626    629    632    643     1  0.0000000  1.2552000  3
    629    632    633    636     1  180.0000771  2.0083200  2
    629    632    633    636     1  0.0000000  1.2552000  3
    629    632    643    646     1  180.0000771  2.0083200  2
    629    632    643    646     1  0.0000000  1.2552000  3
    629    626    623    653     1  0.0000000  0.6508444  3
    632    633    636    639     1  0.0000000  0.6508444  3
    632    643    646    649     1  0.0000000  0.6508444  3
    633    636    639    640     1  180.0000771  0.0000000  2
    633    636    639    641     1  180.0000771  0.0000000  2
    633    632    643    646     1  180.0000771  2.0083200  2
    633    632    643    646     1  0.0000000  1.2552000  3
    636    633    632    643     1  180.0000771  2.0083200  2
    636    633    632    643     1  0.0000000  1.2552000  3
    643    646    649    650     1  180.0000771  0.0000000  2
    643    646    649    651     1  180.0000771  0.0000000  2
    654    657    660    663     1  0.0000000  0.6508444  3
    657    660    663    664     1  180.0000771  2.0083200  2
    657    660    663    664     1  0.0000000  1.2552000  3
    657    660    663    674     1  180.0000771  2.0083200  2
    657    660    663    674     1  0.0000000  1.2552000  3
    660    657    654    684     1  0.0000000  0.6508444  3
    660    663    664    667     1  180.0000771  2.0083200  2
    660    663    664    667     1  0.0000000  1.2552000  3
    660    663    674    677     1  180.0000771  2.0083200  2
    660    663    674    677     1  0.0000000  1.2552000  3
    663    664    667    670     1  0.0000000  0.6508444  3
    663    674    677    680     1  0.0000000  0.6508444  3
    664    663    674    677     1  180.0000771  2.0083200  2
    664    663    674    677     1  0.0000000  1.2552000  3
    664    667    670    671     1  180.0000771  0.0000000  2
    664    667    670    672     1  180.0000771  0.0000000  2
    667    664    663    674     1  180.0000771  2.0083200  2
    667    664    663    674     1  0.0000000  1.2552000  3
    674    677    680    681     1  180.0000771  0.0000000  2
    674    677    680    682     1  180.0000771  0.0000000  2
    685    688    691    694     1  0.0000000  0.6508444  3
    688    691    694    695     1  180.0000771  2.0083200  2
    688    691    694    695     1  0.0000000  1.2552000  3
    688    691    694    705     1  180.0000771  2.0083200  2
    688    691    694    705     1  0.0000000  1.2552000  3
    691    694    695    698     1  180.0000771  2.0083200  2
    691    694    695    698     1  0.0000000  1.2552000  3
    691    694    705    708     1  180.0000771  2.0083200  2
    691    694    705    708     1  0.0000000  1.2552000  3
    691    688    685    715     1  0.0000000  0.6508444  3
    694    695    698    701     1  0.0000000  0.6508444  3
    694    705    708    711     1  0.0000000  0.6508444  3
    695    698    701    702     1  180.0000771  0.0000000  2
    695    698    701    703     1  180.0000771  0.0000000  2
    695    694    705    708     1  180.0000771  2.0083200  2
    695    694    705    708     1  0.0000000  1.2552000  3
    698    695    694    705     1  180.0000771  2.0083200  2
    698    695    694    705     1  0.0000000  1.2552000  3
    705    708    711    712     1  180.0000771  0.0000000  2
    705    708    711    713     1  180.0000771  0.0000000  2
    716    719    722    725     1  0.0000000  0.6508444  3
    719    722    725    726     1  180.0000771  2.0083200  2
    719    722    725    726     1  0.0000000  1.2552000  3
    719    722    725    736     1  180.0000771  2.0083200  2
    719    722    725    736     1  0.0000000  1.2552000  3
    722    719    716    746     1  0.0000000  0.6508444  3
    722    725    726    729     1  180.0000771  2.0083200  2
    722    725    726    729     1  0.0000000  1.2552000  3
    722    725    736    739     1  180.0000771  2.0083200  2
    722    725    736    739     1  0.0000000  1.2552000  3
    725    726    729    732     1  0.0000000  0.6508444  3
    725    736    739    742     1  0.0000000  0.6508444  3
    726    725    736    739     1  180.0000771  2.0083200  2
    726    725    736    739     1  0.0000000  1.2552000  3
    726    729    732    733     1  180.0000771  0.0000000  2
    726    729    732    734     1  180.0000771  0.0000000  2
    729    726    725    736     1  180.0000771  2.0083200  2
    729    726    725    736     1  0.0000000  1.2552000  3
    736    739    742    743     1  180.0000771  0.0000000  2
    736    739    742    744     1  180.0000771  0.0000000  2
    747    750    753    756     1  0.0000000  0.6508444  3
    750    753    756    757     1  180.0000771  2.0083200  2
    750    753    756    757     1  0.0000000  1.2552000  3
    750    753    756    767     1  180.0000771  2.0083200  2
    750    753    756    767     1  0.0000000  1.2552000  3
    753    756    757    760     1  180.0000771  2.0083200  2
    753    756    757    760     1  0.0000000  1.2552000  3
    753    756    767    770     1  180.0000771  2.0083200  2
    753    756    767    770     1  0.0000000  1.2552000  3
    753    750    747    777     1  0.0000000  0.6508444  3
    756    757    760    763     1  0.0000000  0.6508444  3
    756    767    770    773     1  0.0000000  0.6508444  3
    757    760    763    764     1  180.0000771  0.0000000  2
    757    760    763    765     1  180.0000771  0.0000000  2
    757    756    767    770     1  180.0000771  2.0083200  2
    757    756    767    770     1  0.0000000  1.2552000  3
    760    757    756    767     1  180.0000771  2.0083200  2
    760    757    756    767     1  0.0000000  1.2552000  3
    767    770    773    774     1  180.0000771  0.0000000  2
    767    770    773    775     1  180.0000771  0.0000000  2
    778    781    784    787     1  0.0000000  0.6508444  3
    781    784    787    788     1  180.0000771  2.0083200  2
    781    784    787    788     1  0.0000000  1.2552000  3
    781    784    787    798     1  180.0000771  2.0083200  2
    781    784    787    798     1  0.0000000  1.2552000  3
    784    781    778    808     1  0.0000000  0.6508444  3
    784    787    788    791     1  180.0000771  2.0083200  2
    784    787    788    791     1  0.0000000  1.2552000  3
    784    787    798    801     1  180.0000771  2.0083200  2
    784    787    798    801     1  0.0000000  1.2552000  3
    787    788    791    794     1  0.0000000  0.6508444  3
    787    798    801    804     1  0.0000000  0.6508444  3
    788    787    798    801     1  180.0000771  2.0083200  2
    788    787    798    801     1  0.0000000  1.2552000  3
    788    791    794    795     1  180.0000771  0.0000000  2
    788    791    794    796     1  180.0000771  0.0000000  2
    791    788    787    798     1  180.0000771  2.0083200  2
    791    788    787    798     1  0.0000000  1.2552000  3
    798    801    804    805     1  180.0000771  0.0000000  2
    798    801    804    806     1  180.0000771  0.0000000  2
    809    812    815    818     1  0.0000000  0.6508444  3
    812    815    818    819     1  180.0000771  2.0083200  2
    812    815    818    819     1  0.0000000  1.2552000  3
    812    815    818    829     1  180.0000771  2.0083200  2
    812    815    818    829     1  0.0000000  1.2552000  3
    815    818    819    822     1  180.0000771  2.0083200  2
    815    818    819    822     1  0.0000000  1.2552000  3
    815    818    829    832     1  180.0000771  2.0083200  2
    815    818    829    832     1  0.0000000  1.2552000  3
    815    812    809    839     1  0.0000000  0.6508444  3
    818    819    822    825     1  0.0000000  0.6508444  3
    818    829    832    835     1  0.0000000  0.6508444  3
    819    822    825    826     1  180.0000771  0.0000000  2
    819    822    825    827     1  180.0000771  0.0000000  2
    819    818    829    832     1  180.0000771  2.0083200  2
    819    818    829    832     1  0.0000000  1.2552000  3
    822    819    818    829     1  180.0000771  2.0083200  2
    822    819    818    829     1  0.0000000  1.2552000  3
    829    832    835    836     1  180.0000771  0.0000000  2
    829    832    835    837     1  180.0000771  0.0000000  2
    840    843    846    849     1  0.0000000  0.6508444  3
    843    846    849    850     1  180.0000771  2.0083200  2
    843    846    849    850     1  0.0000000  1.2552000  3
    843    846    849    860     1  180.0000771  2.0083200  2
    843    846    849    860     1  0.0000000  1.2552000  3
    846    843    840    870     1  0.0000000  0.6508444  3
    846    849    850    853     1  180.0000771  2.0083200  2
    846    849    850    853     1  0.0000000  1.2552000  3
    846    849    860    863     1  180.0000771  2.0083200  2
    846    849    860    863     1  0.0000000  1.2552000  3
    849    850    853    856     1  0.0000000  0.6508444  3
    849    860    863    866     1  0.0000000  0.6508444  3
    850    849    860    863     1  180.0000771  2.0083200  2
    850    849    860    863     1  0.0000000  1.2552000  3
    850    853    856    857     1  180.0000771  0.0000000  2
    850    853    856    858     1  180.0000771  0.0000000  2
    853    850    849    860     1  180.0000771  2.0083200  2
    853    850    849    860     1  0.0000000  1.2552000  3
    860    863    866    867     1  180.0000771  0.0000000  2
    860    863    866    868     1  180.0000771  0.0000000  2
    871    874    877    880     1  0.0000000  0.6508444  3
    874    877    880    881     1  180.0000771  2.0083200  2
    874    877    880    881     1  0.0000000  1.2552000  3
    874    877    880    891     1  180.0000771  2.0083200  2
    874    877    880    891     1  0.0000000  1.2552000  3
    877    880    881    884     1  180.0000771  2.0083200  2
    877    880    881    884     1  0.0000000  1.2552000  3
    877    880    891    894     1  180.0000771  2.0083200  2
    877    880    891    894     1  0.0000000  1.2552000  3
    877    874    871    901     1  0.0000000  0.6508444  3
    880    881    884    887     1  0.0000000  0.6508444  3
    880    891    894    897     1  0.0000000  0.6508444  3
    881    884    887    888     1  180.0000771  0.0000000  2
    881    884    887    889     1  180.0000771  0.0000000  2
    881    880    891    894     1  180.0000771  2.0083200  2
    881    880    891    894     1  0.0000000  1.2552000  3
    884    881    880    891     1  180.0000771  2.0083200  2
    884    881    880    891     1  0.0000000  1.2552000  3
    891    894    897    898     1  180.0000771  0.0000000  2
    891    894    897    899     1  180.0000771  0.0000000  2
    419    423    422    424     4  180.0000771  4.6024000  2
    429    433    432    434     4  180.0000771  4.6024000  2
    450    454    453    455     4  180.0000771  4.6024000  2
    460    464    463    465     4  180.0000771  4.6024000  2
    481    485    484    486     4  180.0000771  4.6024000  2
    491    495    494    496     4  180.0000771  4.6024000  2
    512    516    515    517     4  180.0000771  4.6024000  2
    522    526    525    527     4  180.0000771  4.6024000  2
    543    547    546    548     4  180.0000771  4.6024000  2
    553    557    556    558     4  180.0000771  4.6024000  2
    574    578    577    579     4  180.0000771  4.6024000  2
    584    588    587    589     4  180.0000771  4.6024000  2
    605    609    608    610     4  180.0000771  4.6024000  2
    615    619    618    620     4  180.0000771  4.6024000  2
    636    640    639    641     4  180.0000771  4.6024000  2
    646    650    649    651     4  180.0000771  4.6024000  2
    667    671    670    672     4  180.0000771  4.6024000  2
    677    681    680    682     4  180.0000771  4.6024000  2
    698    702    701    703     4  180.0000771  4.6024000  2
    708    712    711    713     4  180.0000771  4.6024000  2
    729    733    732    734     4  180.0000771  4.6024000  2
    739    743    742    744     4  180.0000771  4.6024000  2
    760    764    763    765     4  180.0000771  4.6024000  2
    770    774    773    775     4  180.0000771  4.6024000  2
    791    795    794    796     4  180.0000771  4.6024000  2
    801    805    804    806     4  180.0000771  4.6024000  2
    822    826    825    827     4  180.0000771  4.6024000  2
    832    836    835    837     4  180.0000771  4.6024000  2
    853    857    856    858     4  180.0000771  4.6024000  2
    863    867    866    868     4  180.0000771  4.6024000  2
    884    888    887    889     4  180.0000771  4.6024000  2
    894    898    897    899     4  180.0000771  4.6024000  2
      1      2      8      9     1  0.0000000  1.0460000  1
      1      2      8      9     1  0.0000000  0.0000000  3
      1      2      8     10     1  0.0000000  1.0460000  1
      1      2      8     10     1  0.0000000  0.0000000  3
      1      5     11     12     1  0.0000000  1.0460000  1
      1      5     11     12     1  0.0000000  0.0000000  3
      1      5     11     13     1  0.0000000  1.0460000  1
      1      5     11     13     1  0.0000000  0.0000000  3
      2      1      5      6     1  0.0000000  1.6038667  3
      2      1      5      7     1  0.0000000  1.6038667  3
      2      8     14     15     1  0.0000000  0.6508444  3
      2      8     14     16     1  0.0000000  0.6508444  3
      5      1      2      3     1  0.0000000  1.6038667  3
      3      2      8     14     1  0.0000000  0.6508444  3
      3      2      8      9     1  0.0000000  0.6508444  3
      3      2      8     10     1  0.0000000  0.6508444  3
      5      1      2      4     1  0.0000000  1.6038667  3
      4      2      8     14     1  0.0000000  0.6508444  3
      4      2      8      9     1  0.0000000  0.6508444  3
      4      2      8     10     1  0.0000000  0.6508444  3
      5     11     17     18     1  0.0000000  0.6508444  3
      5     11     17     19     1  0.0000000  0.6508444  3
      6      5     11     17     1  0.0000000  0.6508444  3
      6      5     11     12     1  0.0000000  0.6508444  3
      6      5     11     13     1  0.0000000  0.6508444  3
      7      5     11     17     1  0.0000000  0.6508444  3
      7      5     11     12     1  0.0000000  0.6508444  3
      7      5     11     13     1  0.0000000  0.6508444  3
      9      8     14     20     1  0.0000000  0.6508444  3
      9      8     14     15     1  0.0000000  0.6508444  3
      9      8     14     16     1  0.0000000  0.6508444  3
     10      8     14     20     1  0.0000000  0.6508444  3
     10      8     14     15     1  0.0000000  0.6508444  3
     10      8     14     16     1  0.0000000  0.6508444  3
     12     11     17     21     1  0.0000000  0.6508444  3
     12     11     17     18     1  0.0000000  0.6508444  3
     12     11     17     19     1  0.0000000  0.6508444  3
     13     11     17     21     1  0.0000000  0.6508444  3
     13     11     17     18     1  0.0000000  0.6508444  3
     13     11     17     19     1  0.0000000  0.6508444  3
     14     20     28     29     1  0.0000000  1.2552000  3
     14     20     28     30     1  0.0000000  1.2552000  3
     14     20     31     32     1  0.0000000  1.2552000  3
     14     20     31     33     1  0.0000000  1.2552000  3
     15     14     20     28     1  0.0000000  1.2552000  3
     15     14     20     31     1  0.0000000  1.2552000  3
     16     14     20     28     1  0.0000000  1.2552000  3
     16     14     20     31     1  0.0000000  1.2552000  3
     17     21     22     23     1  0.0000000  1.2552000  3
     17     21     22     24     1  0.0000000  1.2552000  3
     17     21     25     26     1  0.0000000  1.2552000  3
     17     21     25     27     1  0.0000000  1.2552000  3
     18     17     21     22     1  0.0000000  1.2552000  3
     18     17     21     25     1  0.0000000  1.2552000  3
     19     17     21     22     1  0.0000000  1.2552000  3
     19     17     21     25     1  0.0000000  1.2552000  3
     20     28     40     41     1  0.0000000  0.6508444  3
     20     28     40     42     1  0.0000000  0.6508444  3
     20     31     43     44     1  0.0000000  0.6508444  3
     20     31     43     45     1  0.0000000  0.6508444  3
     21     22     34     35     1  0.0000000  0.6508444  3
     21     22     34     36     1  0.0000000  0.6508444  3
     21     25     37     38     1  0.0000000  0.6508444  3
     21     25     37     39     1  0.0000000  0.6508444  3
     22     21     25     26     1  0.0000000  1.2552000  3
     22     21     25     27     1  0.0000000  1.2552000  3
     22     34     55     56     1  0.0000000  0.6508444  3
     22     34     55     57     1  0.0000000  0.6508444  3
     23     22     21     25     1  0.0000000  1.2552000  3
     23     22     34     55     1  0.0000000  0.6508444  3
     23     22     34     35     1  0.0000000  0.6508444  3
     23     22     34     36     1  0.0000000  0.6508444  3
     24     22     21     25     1  0.0000000  1.2552000  3
     24     22     34     55     1  0.0000000  0.6508444  3
     24     22     34     35     1  0.0000000  0.6508444  3
     24     22     34     36     1  0.0000000  0.6508444  3
     25     37     52     53     1  0.0000000  0.6508444  3
     25     37     52     54     1  0.0000000  0.6508444  3
     26     25     37     52     1  0.0000000  0.6508444  3
     26     25     37     38     1  0.0000000  0.6508444  3
     26     25     37     39     1  0.0000000  0.6508444  3
     27     25     37     52     1  0.0000000  0.6508444  3
     27     25     37     38     1  0.0000000  0.6508444  3
     27     25     37     39     1  0.0000000  0.6508444  3
     28     20     31     32     1  0.0000000  1.2552000  3
     28     20     31     33     1  0.0000000  1.2552000  3
     28     40     49     50     1  0.0000000  0.6508444  3
     28     40     49     51     1  0.0000000  0.6508444  3
     29     28     20     31     1  0.0000000  1.2552000  3
     29     28     40     49     1  0.0000000  0.6508444  3
     29     28     40     41     1  0.0000000  0.6508444  3
     29     28     40     42     1  0.0000000  0.6508444  3
     30     28     20     31     1  0.0000000  1.2552000  3
     30     28     40     49     1  0.0000000  0.6508444  3
     30     28     40     41     1  0.0000000  0.6508444  3
     30     28     40     42     1  0.0000000  0.6508444  3
     31     43     46     47     1  0.0000000  0.6508444  3
     31     43     46     48     1  0.0000000  0.6508444  3
     32     31     43     46     1  0.0000000  0.6508444  3
     32     31     43     44     1  0.0000000  0.6508444  3
     32     31     43     45     1  0.0000000  0.6508444  3
     33     31     43     46     1  0.0000000  0.6508444  3
     33     31     43     44     1  0.0000000  0.6508444  3
     33     31     43     45     1  0.0000000  0.6508444  3
     35     34     55    173     1  0.0000000  1.0460000  1
     35     34     55    173     1  0.0000000  0.0000000  3
     35     34     55     56     1  0.0000000  0.6508444  3
     35     34     55     57     1  0.0000000  0.6508444  3
     36     34     55    173     1  0.0000000  1.0460000  1
     36     34     55    173     1  0.0000000  0.0000000  3
     36     34     55     56     1  0.0000000  0.6508444  3
     36     34     55     57     1  0.0000000  0.6508444  3
     38     37     52    144     1  0.0000000  1.0460000  1
     38     37     52    144     1  0.0000000  0.0000000  3
     38     37     52     53     1  0.0000000  0.6508444  3
     38     37     52     54     1  0.0000000  0.6508444  3
     39     37     52    144     1  0.0000000  1.0460000  1
     39     37     52    144     1  0.0000000  0.0000000  3
     39     37     52     53     1  0.0000000  0.6508444  3
     39     37     52     54     1  0.0000000  0.6508444  3
     41     40     49    115     1  0.0000000  1.0460000  1
     41     40     49    115     1  0.0000000  0.0000000  3
     41     40     49     50     1  0.0000000  0.6508444  3
     41     40     49     51     1  0.0000000  0.6508444  3
     42     40     49    115     1  0.0000000  1.0460000  1
     42     40     49    115     1  0.0000000  0.0000000  3
     42     40     49     50     1  0.0000000  0.6508444  3
     42     40     49     51     1  0.0000000  0.6508444  3
     44     43     46     86     1  0.0000000  1.0460000  1
     44     43     46     86     1  0.0000000  0.0000000  3
     44     43     46     47     1  0.0000000  0.6508444  3
     44     43     46     48     1  0.0000000  0.6508444  3
     45     43     46     86     1  0.0000000  1.0460000  1
     45     43     46     86     1  0.0000000  0.0000000  3
     45     43     46     47     1  0.0000000  0.6508444  3
     45     43     46     48     1  0.0000000  0.6508444  3
     46     86     77     78     1  0.0000000  1.6038667  3
     46     86     77     79     1  0.0000000  1.6038667  3
     47     46     86     77     1  0.0000000  1.6038667  3
     48     46     86     77     1  0.0000000  1.6038667  3
     49    115    106    107     1  0.0000000  1.6038667  3
     49    115    106    108     1  0.0000000  1.6038667  3
     50     49    115    106     1  0.0000000  1.6038667  3
     51     49    115    106     1  0.0000000  1.6038667  3
     52    144    135    136     1  0.0000000  1.6038667  3
     52    144    135    137     1  0.0000000  1.6038667  3
     53     52    144    135     1  0.0000000  1.6038667  3
     54     52    144    135     1  0.0000000  1.6038667  3
     55    173    164    165     1  0.0000000  1.6038667  3
     55    173    164    166     1  0.0000000  1.6038667  3
     56     55    173    164     1  0.0000000  1.6038667  3
     57     55    173    164     1  0.0000000  1.6038667  3
     58     59     71     72     1  0.0000000  0.6508444  3
     58     59     71     73     1  0.0000000  0.6508444  3
     58     62     74     75     1  0.0000000  0.6508444  3
     58     62     74     76     1  0.0000000  0.6508444  3
     58     65     68     69     1  0.0000000  0.6508444  3
     58     65     68     70     1  0.0000000  0.6508444  3
     59     58     62     63     1  0.0000000  1.2552000  3
     59     58     62     64     1  0.0000000  1.2552000  3
     59     58     65     66     1  0.0000000  1.2552000  3
     59     58     65     67     1  0.0000000  1.2552000  3
     59     71     83     84     1  0.0000000  0.6508444  3
     59     71     83     85     1  0.0000000  0.6508444  3
     60     59     58     62     1  0.0000000  1.2552000  3
     60     59     58     65     1  0.0000000  1.2552000  3
     60     59     71     83     1  0.0000000  0.6508444  3
     60     59     71     72     1  0.0000000  0.6508444  3
     60     59     71     73     1  0.0000000  0.6508444  3
     61     59     58     62     1  0.0000000  1.2552000  3
     61     59     58     65     1  0.0000000  1.2552000  3
     61     59     71     83     1  0.0000000  0.6508444  3
     61     59     71     72     1  0.0000000  0.6508444  3
     61     59     71     73     1  0.0000000  0.6508444  3
     62     58     65     66     1  0.0000000  1.2552000  3
     62     58     65     67     1  0.0000000  1.2552000  3
     62     74     80     81     1  0.0000000  0.6508444  3
     62     74     80     82     1  0.0000000  0.6508444  3
     63     62     58     65     1  0.0000000  1.2552000  3
     63     62     74     80     1  0.0000000  0.6508444  3
     63     62     74     75     1  0.0000000  0.6508444  3
     63     62     74     76     1  0.0000000  0.6508444  3
     64     62     58     65     1  0.0000000  1.2552000  3
     64     62     74     80     1  0.0000000  0.6508444  3
     64     62     74     75     1  0.0000000  0.6508444  3
     64     62     74     76     1  0.0000000  0.6508444  3
     65     68     77     78     1  0.0000000  0.6508444  3
     65     68     77     79     1  0.0000000  0.6508444  3
     66     65     68     77     1  0.0000000  0.6508444  3
     66     65     68     69     1  0.0000000  0.6508444  3
     66     65     68     70     1  0.0000000  0.6508444  3
     67     65     68     77     1  0.0000000  0.6508444  3
     67     65     68     69     1  0.0000000  0.6508444  3
     67     65     68     70     1  0.0000000  0.6508444  3
     69     68     77     86     1  0.0000000  1.0460000  1
     69     68     77     86     1  0.0000000  0.0000000  3
     69     68     77     78     1  0.0000000  0.6508444  3
     69     68     77     79     1  0.0000000  0.6508444  3
     70     68     77     86     1  0.0000000  1.0460000  1
     70     68     77     86     1  0.0000000  0.0000000  3
     70     68     77     78     1  0.0000000  0.6508444  3
     70     68     77     79     1  0.0000000  0.6508444  3
     72     71     83    231     1  0.0000000  1.0460000  1
     72     71     83    231     1  0.0000000  0.0000000  3
     72     71     83     84     1  0.0000000  0.6508444  3
     72     71     83     85     1  0.0000000  0.6508444  3
     73     71     83    231     1  0.0000000  1.0460000  1
     73     71     83    231     1  0.0000000  0.0000000  3
     73     71     83     84     1  0.0000000  0.6508444  3
     73     71     83     85     1  0.0000000  0.6508444  3
     75     74     80    202     1  0.0000000  1.0460000  1
     75     74     80    202     1  0.0000000  0.0000000  3
     75     74     80     81     1  0.0000000  0.6508444  3
     75     74     80     82     1  0.0000000  0.6508444  3
     76     74     80    202     1  0.0000000  1.0460000  1
     76     74     80    202     1  0.0000000  0.0000000  3
     76     74     80     81     1  0.0000000  0.6508444  3
     76     74     80     82     1  0.0000000  0.6508444  3
     80    202    193    194     1  0.0000000  1.6038667  3
     80    202    193    195     1  0.0000000  1.6038667  3
     81     80    202    193     1  0.0000000  1.6038667  3
     82     80    202    193     1  0.0000000  1.6038667  3
     83    231    222    223     1  0.0000000  1.6038667  3
     83    231    222    224     1  0.0000000  1.6038667  3
     84     83    231    222     1  0.0000000  1.6038667  3
     85     83    231    222     1  0.0000000  1.6038667  3
     87     88    100    101     1  0.0000000  0.6508444  3
     87     88    100    102     1  0.0000000  0.6508444  3
     87     91    103    104     1  0.0000000  0.6508444  3
     87     91    103    105     1  0.0000000  0.6508444  3
     87     94     97     98     1  0.0000000  0.6508444  3
     87     94     97     99     1  0.0000000  0.6508444  3
     88     87     91     92     1  0.0000000  1.2552000  3
     88     87     91     93     1  0.0000000  1.2552000  3
     88     87     94     95     1  0.0000000  1.2552000  3
     88     87     94     96     1  0.0000000  1.2552000  3
     88    100    112    113     1  0.0000000  0.6508444  3
     88    100    112    114     1  0.0000000  0.6508444  3
     89     88     87     91     1  0.0000000  1.2552000  3
     89     88     87     94     1  0.0000000  1.2552000  3
     89     88    100    112     1  0.0000000  0.6508444  3
     89     88    100    101     1  0.0000000  0.6508444  3
     89     88    100    102     1  0.0000000  0.6508444  3
     90     88     87     91     1  0.0000000  1.2552000  3
     90     88     87     94     1  0.0000000  1.2552000  3
     90     88    100    112     1  0.0000000  0.6508444  3
     90     88    100    101     1  0.0000000  0.6508444  3
     90     88    100    102     1  0.0000000  0.6508444  3
     91     87     94     95     1  0.0000000  1.2552000  3
     91     87     94     96     1  0.0000000  1.2552000  3
     91    103    109    110     1  0.0000000  0.6508444  3
     91    103    109    111     1  0.0000000  0.6508444  3
     92     91     87     94     1  0.0000000  1.2552000  3
     92     91    103    109     1  0.0000000  0.6508444  3
     92     91    103    104     1  0.0000000  0.6508444  3
     92     91    103    105     1  0.0000000  0.6508444  3
     93     91     87     94     1  0.0000000  1.2552000  3
     93     91    103    109     1  0.0000000  0.6508444  3
     93     91    103    104     1  0.0000000  0.6508444  3
     93     91    103    105     1  0.0000000  0.6508444  3
     94     97    106    107     1  0.0000000  0.6508444  3
     94     97    106    108     1  0.0000000  0.6508444  3
     95     94     97    106     1  0.0000000  0.6508444  3
     95     94     97     98     1  0.0000000  0.6508444  3
     95     94     97     99     1  0.0000000  0.6508444  3
     96     94     97    106     1  0.0000000  0.6508444  3
     96     94     97     98     1  0.0000000  0.6508444  3
     96     94     97     99     1  0.0000000  0.6508444  3
     98     97    106    115     1  0.0000000  1.0460000  1
     98     97    106    115     1  0.0000000  0.0000000  3
     98     97    106    107     1  0.0000000  0.6508444  3
     98     97    106    108     1  0.0000000  0.6508444  3
     99     97    106    115     1  0.0000000  1.0460000  1
     99     97    106    115     1  0.0000000  0.0000000  3
     99     97    106    107     1  0.0000000  0.6508444  3
     99     97    106    108     1  0.0000000  0.6508444  3
    101    100    112    289     1  0.0000000  1.0460000  1
    101    100    112    289     1  0.0000000  0.0000000  3
    101    100    112    113     1  0.0000000  0.6508444  3
    101    100    112    114     1  0.0000000  0.6508444  3
    102    100    112    289     1  0.0000000  1.0460000  1
    102    100    112    289     1  0.0000000  0.0000000  3
    102    100    112    113     1  0.0000000  0.6508444  3
    102    100    112    114     1  0.0000000  0.6508444  3
    104    103    109    260     1  0.0000000  1.0460000  1
    104    103    109    260     1  0.0000000  0.0000000  3
    104    103    109    110     1  0.0000000  0.6508444  3
    104    103    109    111     1  0.0000000  0.6508444  3
    105    103    109    260     1  0.0000000  1.0460000  1
    105    103    109    260     1  0.0000000  0.0000000  3
    105    103    109    110     1  0.0000000  0.6508444  3
    105    103    109    111     1  0.0000000  0.6508444  3
    109    260    251    252     1  0.0000000  1.6038667  3
    109    260    251    253     1  0.0000000  1.6038667  3
    110    109    260    251     1  0.0000000  1.6038667  3
    111    109    260    251     1  0.0000000  1.6038667  3
    112    289    280    281     1  0.0000000  1.6038667  3
    112    289    280    282     1  0.0000000  1.6038667  3
    113    112    289    280     1  0.0000000  1.6038667  3
    114    112    289    280     1  0.0000000  1.6038667  3
    116    117    129    130     1  0.0000000  0.6508444  3
    116    117    129    131     1  0.0000000  0.6508444  3
    116    120    132    133     1  0.0000000  0.6508444  3
    116    120    132    134     1  0.0000000  0.6508444  3
    116    123    126    127     1  0.0000000  0.6508444  3
    116    123    126    128     1  0.0000000  0.6508444  3
    117    116    120    121     1  0.0000000  1.2552000  3
    117    116    120    122     1  0.0000000  1.2552000  3
    117    116    123    124     1  0.0000000  1.2552000  3
    117    116    123    125     1  0.0000000  1.2552000  3
    117    129    141    142     1  0.0000000  0.6508444  3
    117    129    141    143     1  0.0000000  0.6508444  3
    118    117    116    120     1  0.0000000  1.2552000  3
    118    117    116    123     1  0.0000000  1.2552000  3
    118    117    129    141     1  0.0000000  0.6508444  3
    118    117    129    130     1  0.0000000  0.6508444  3
    118    117    129    131     1  0.0000000  0.6508444  3
    119    117    116    120     1  0.0000000  1.2552000  3
    119    117    116    123     1  0.0000000  1.2552000  3
    119    117    129    141     1  0.0000000  0.6508444  3
    119    117    129    130     1  0.0000000  0.6508444  3
    119    117    129    131     1  0.0000000  0.6508444  3
    120    116    123    124     1  0.0000000  1.2552000  3
    120    116    123    125     1  0.0000000  1.2552000  3
    120    132    138    139     1  0.0000000  0.6508444  3
    120    132    138    140     1  0.0000000  0.6508444  3
    121    120    116    123     1  0.0000000  1.2552000  3
    121    120    132    138     1  0.0000000  0.6508444  3
    121    120    132    133     1  0.0000000  0.6508444  3
    121    120    132    134     1  0.0000000  0.6508444  3
    122    120    116    123     1  0.0000000  1.2552000  3
    122    120    132    138     1  0.0000000  0.6508444  3
    122    120    132    133     1  0.0000000  0.6508444  3
    122    120    132    134     1  0.0000000  0.6508444  3
    123    126    135    136     1  0.0000000  0.6508444  3
    123    126    135    137     1  0.0000000  0.6508444  3
    124    123    126    135     1  0.0000000  0.6508444  3
    124    123    126    127     1  0.0000000  0.6508444  3
    124    123    126    128     1  0.0000000  0.6508444  3
    125    123    126    135     1  0.0000000  0.6508444  3
    125    123    126    127     1  0.0000000  0.6508444  3
    125    123    126    128     1  0.0000000  0.6508444  3
    127    126    135    144     1  0.0000000  1.0460000  1
    127    126    135    144     1  0.0000000  0.0000000  3
    127    126    135    136     1  0.0000000  0.6508444  3
    127    126    135    137     1  0.0000000  0.6508444  3
    128    126    135    144     1  0.0000000  1.0460000  1
    128    126    135    144     1  0.0000000  0.0000000  3
    128    126    135    136     1  0.0000000  0.6508444  3
    128    126    135    137     1  0.0000000  0.6508444  3
    130    129    141    347     1  0.0000000  1.0460000  1
    130    129    141    347     1  0.0000000  0.0000000  3
    130    129    141    142     1  0.0000000  0.6508444  3
    130    129    141    143     1  0.0000000  0.6508444  3
    131    129    141    347     1  0.0000000  1.0460000  1
    131    129    141    347     1  0.0000000  0.0000000  3
    131    129    141    142     1  0.0000000  0.6508444  3
    131    129    141    143     1  0.0000000  0.6508444  3
    133    132    138    318     1  0.0000000  1.0460000  1
    133    132    138    318     1  0.0000000  0.0000000  3
    133    132    138    139     1  0.0000000  0.6508444  3
    133    132    138    140     1  0.0000000  0.6508444  3
    134    132    138    318     1  0.0000000  1.0460000  1
    134    132    138    318     1  0.0000000  0.0000000  3
    134    132    138    139     1  0.0000000  0.6508444  3
    134    132    138    140     1  0.0000000  0.6508444  3
    138    318    309    310     1  0.0000000  1.6038667  3
    138    318    309    311     1  0.0000000  1.6038667  3
    139    138    318    309     1  0.0000000  1.6038667  3
    140    138    318    309     1  0.0000000  1.6038667  3
    141    347    338    339     1  0.0000000  1.6038667  3
    141    347    338    340     1  0.0000000  1.6038667  3
    142    141    347    338     1  0.0000000  1.6038667  3
    143    141    347    338     1  0.0000000  1.6038667  3
    145    146    158    159     1  0.0000000  0.6508444  3
    145    146    158    160     1  0.0000000  0.6508444  3
    145    149    161    162     1  0.0000000  0.6508444  3
    145    149    161    163     1  0.0000000  0.6508444  3
    145    152    155    156     1  0.0000000  0.6508444  3
    145    152    155    157     1  0.0000000  0.6508444  3
    146    145    149    150     1  0.0000000  1.2552000  3
    146    145    149    151     1  0.0000000  1.2552000  3
    146    145    152    153     1  0.0000000  1.2552000  3
    146    145    152    154     1  0.0000000  1.2552000  3
    146    158    170    171     1  0.0000000  0.6508444  3
    146    158    170    172     1  0.0000000  0.6508444  3
    147    146    145    149     1  0.0000000  1.2552000  3
    147    146    145    152     1  0.0000000  1.2552000  3
    147    146    158    170     1  0.0000000  0.6508444  3
    147    146    158    159     1  0.0000000  0.6508444  3
    147    146    158    160     1  0.0000000  0.6508444  3
    148    146    145    149     1  0.0000000  1.2552000  3
    148    146    145    152     1  0.0000000  1.2552000  3
    148    146    158    170     1  0.0000000  0.6508444  3
    148    146    158    159     1  0.0000000  0.6508444  3
    148    146    158    160     1  0.0000000  0.6508444  3
    149    145    152    153     1  0.0000000  1.2552000  3
    149    145    152    154     1  0.0000000  1.2552000  3
    149    161    167    168     1  0.0000000  0.6508444  3
    149    161    167    169     1  0.0000000  0.6508444  3
    150    149    145    152     1  0.0000000  1.2552000  3
    150    149    161    167     1  0.0000000  0.6508444  3
    150    149    161    162     1  0.0000000  0.6508444  3
    150    149    161    163     1  0.0000000  0.6508444  3
    151    149    145    152     1  0.0000000  1.2552000  3
    151    149    161    167     1  0.0000000  0.6508444  3
    151    149    161    162     1  0.0000000  0.6508444  3
    151    149    161    163     1  0.0000000  0.6508444  3
    152    155    164    165     1  0.0000000  0.6508444  3
    152    155    164    166     1  0.0000000  0.6508444  3
    153    152    155    164     1  0.0000000  0.6508444  3
    153    152    155    156     1  0.0000000  0.6508444  3
    153    152    155    157     1  0.0000000  0.6508444  3
    154    152    155    164     1  0.0000000  0.6508444  3
    154    152    155    156     1  0.0000000  0.6508444  3
    154    152    155    157     1  0.0000000  0.6508444  3
    156    155    164    173     1  0.0000000  1.0460000  1
    156    155    164    173     1  0.0000000  0.0000000  3
    156    155    164    165     1  0.0000000  0.6508444  3
    156    155    164    166     1  0.0000000  0.6508444  3
    157    155    164    173     1  0.0000000  1.0460000  1
    157    155    164    173     1  0.0000000  0.0000000  3
    157    155    164    165     1  0.0000000  0.6508444  3
    157    155    164    166     1  0.0000000  0.6508444  3
    159    158    170    405     1  0.0000000  1.0460000  1
    159    158    170    405     1  0.0000000  0.0000000  3
    159    158    170    171     1  0.0000000  0.6508444  3
    159    158    170    172     1  0.0000000  0.6508444  3
    160    158    170    405     1  0.0000000  1.0460000  1
    160    158    170    405     1  0.0000000  0.0000000  3
    160    158    170    171     1  0.0000000  0.6508444  3
    160    158    170    172     1  0.0000000  0.6508444  3
    162    161    167    376     1  0.0000000  1.0460000  1
    162    161    167    376     1  0.0000000  0.0000000  3
    162    161    167    168     1  0.0000000  0.6508444  3
    162    161    167    169     1  0.0000000  0.6508444  3
    163    161    167    376     1  0.0000000  1.0460000  1
    163    161    167    376     1  0.0000000  0.0000000  3
    163    161    167    168     1  0.0000000  0.6508444  3
    163    161    167    169     1  0.0000000  0.6508444  3
    167    376    367    368     1  0.0000000  1.6038667  3
    167    376    367    369     1  0.0000000  1.6038667  3
    168    167    376    367     1  0.0000000  1.6038667  3
    169    167    376    367     1  0.0000000  1.6038667  3
    170    405    396    397     1  0.0000000  1.6038667  3
    170    405    396    398     1  0.0000000  1.6038667  3
    171    170    405    396     1  0.0000000  1.6038667  3
    172    170    405    396     1  0.0000000  1.6038667  3
    174    175    187    188     1  0.0000000  0.6508444  3
    174    175    187    189     1  0.0000000  0.6508444  3
    174    178    190    191     1  0.0000000  0.6508444  3
    174    178    190    192     1  0.0000000  0.6508444  3
    174    181    184    185     1  0.0000000  0.6508444  3
    174    181    184    186     1  0.0000000  0.6508444  3
    175    174    178    179     1  0.0000000  1.2552000  3
    175    174    178    180     1  0.0000000  1.2552000  3
    175    174    181    182     1  0.0000000  1.2552000  3
    175    174    181    183     1  0.0000000  1.2552000  3
    175    187    199    200     1  0.0000000  0.6508444  3
    175    187    199    201     1  0.0000000  0.6508444  3
    176    175    174    178     1  0.0000000  1.2552000  3
    176    175    174    181     1  0.0000000  1.2552000  3
    176    175    187    199     1  0.0000000  0.6508444  3
    176    175    187    188     1  0.0000000  0.6508444  3
    176    175    187    189     1  0.0000000  0.6508444  3
    177    175    174    178     1  0.0000000  1.2552000  3
    177    175    174    181     1  0.0000000  1.2552000  3
    177    175    187    199     1  0.0000000  0.6508444  3
    177    175    187    188     1  0.0000000  0.6508444  3
    177    175    187    189     1  0.0000000  0.6508444  3
    178    174    181    182     1  0.0000000  1.2552000  3
    178    174    181    183     1  0.0000000  1.2552000  3
    178    190    196    197     1  0.0000000  0.6508444  3
    178    190    196    198     1  0.0000000  0.6508444  3
    179    178    174    181     1  0.0000000  1.2552000  3
    179    178    190    196     1  0.0000000  0.6508444  3
    179    178    190    191     1  0.0000000  0.6508444  3
    179    178    190    192     1  0.0000000  0.6508444  3
    180    178    174    181     1  0.0000000  1.2552000  3
    180    178    190    196     1  0.0000000  0.6508444  3
    180    178    190    191     1  0.0000000  0.6508444  3
    180    178    190    192     1  0.0000000  0.6508444  3
    181    184    193    194     1  0.0000000  0.6508444  3
    181    184    193    195     1  0.0000000  0.6508444  3
    182    181    184    193     1  0.0000000  0.6508444  3
    182    181    184    185     1  0.0000000  0.6508444  3
    182    181    184    186     1  0.0000000  0.6508444  3
    183    181    184    193     1  0.0000000  0.6508444  3
    183    181    184    185     1  0.0000000  0.6508444  3
    183    181    184    186     1  0.0000000  0.6508444  3
    185    184    193    202     1  0.0000000  1.0460000  1
    185    184    193    202     1  0.0000000  0.0000000  3
    185    184    193    194     1  0.0000000  0.6508444  3
    185    184    193    195     1  0.0000000  0.6508444  3
    186    184    193    202     1  0.0000000  1.0460000  1
    186    184    193    202     1  0.0000000  0.0000000  3
    186    184    193    194     1  0.0000000  0.6508444  3
    186    184    193    195     1  0.0000000  0.6508444  3
    188    187    199    467     1  0.0000000  1.0460000  1
    188    187    199    467     1  0.0000000  0.0000000  3
    188    187    199    200     1  0.0000000  0.6508444  3
    188    187    199    201     1  0.0000000  0.6508444  3
    189    187    199    467     1  0.0000000  1.0460000  1
    189    187    199    467     1  0.0000000  0.0000000  3
    189    187    199    200     1  0.0000000  0.6508444  3
    189    187    199    201     1  0.0000000  0.6508444  3
    191    190    196    436     1  0.0000000  1.0460000  1
    191    190    196    436     1  0.0000000  0.0000000  3
    191    190    196    197     1  0.0000000  0.6508444  3
    191    190    196    198     1  0.0000000  0.6508444  3
    192    190    196    436     1  0.0000000  1.0460000  1
    192    190    196    436     1  0.0000000  0.0000000  3
    192    190    196    197     1  0.0000000  0.6508444  3
    192    190    196    198     1  0.0000000  0.6508444  3
    196    436    406    407     1  0.0000000  1.6038667  3
    196    436    406    408     1  0.0000000  1.6038667  3
    197    196    436    406     1  0.0000000  1.6038667  3
    198    196    436    406     1  0.0000000  1.6038667  3
    199    467    437    438     1  0.0000000  1.6038667  3
    199    467    437    439     1  0.0000000  1.6038667  3
    200    199    467    437     1  0.0000000  1.6038667  3
    201    199    467    437     1  0.0000000  1.6038667  3
    203    204    216    217     1  0.0000000  0.6508444  3
    203    204    216    218     1  0.0000000  0.6508444  3
    203    207    219    220     1  0.0000000  0.6508444  3
    203    207    219    221     1  0.0000000  0.6508444  3
    203    210    213    214     1  0.0000000  0.6508444  3
    203    210    213    215     1  0.0000000  0.6508444  3
    204    203    207    208     1  0.0000000  1.2552000  3
    204    203    207    209     1  0.0000000  1.2552000  3
    204    203    210    211     1  0.0000000  1.2552000  3
    204    203    210    212     1  0.0000000  1.2552000  3
    204    216    228    229     1  0.0000000  0.6508444  3
    204    216    228    230     1  0.0000000  0.6508444  3
    205    204    203    207     1  0.0000000  1.2552000  3
    205    204    203    210     1  0.0000000  1.2552000  3
    205    204    216    228     1  0.0000000  0.6508444  3
    205    204    216    217     1  0.0000000  0.6508444  3
    205    204    216    218     1  0.0000000  0.6508444  3
    206    204    203    207     1  0.0000000  1.2552000  3
    206    204    203    210     1  0.0000000  1.2552000  3
    206    204    216    228     1  0.0000000  0.6508444  3
    206    204    216    217     1  0.0000000  0.6508444  3
    206    204    216    218     1  0.0000000  0.6508444  3
    207    203    210    211     1  0.0000000  1.2552000  3
    207    203    210    212     1  0.0000000  1.2552000  3
    207    219    225    226     1  0.0000000  0.6508444  3
    207    219    225    227     1  0.0000000  0.6508444  3
    208    207    203    210     1  0.0000000  1.2552000  3
    208    207    219    225     1  0.0000000  0.6508444  3
    208    207    219    220     1  0.0000000  0.6508444  3
    208    207    219    221     1  0.0000000  0.6508444  3
    209    207    203    210     1  0.0000000  1.2552000  3
    209    207    219    225     1  0.0000000  0.6508444  3
    209    207    219    220     1  0.0000000  0.6508444  3
    209    207    219    221     1  0.0000000  0.6508444  3
    210    213    222    223     1  0.0000000  0.6508444  3
    210    213    222    224     1  0.0000000  0.6508444  3
    211    210    213    222     1  0.0000000  0.6508444  3
    211    210    213    214     1  0.0000000  0.6508444  3
    211    210    213    215     1  0.0000000  0.6508444  3
    212    210    213    222     1  0.0000000  0.6508444  3
    212    210    213    214     1  0.0000000  0.6508444  3
    212    210    213    215     1  0.0000000  0.6508444  3
    214    213    222    231     1  0.0000000  1.0460000  1
    214    213    222    231     1  0.0000000  0.0000000  3
    214    213    222    223     1  0.0000000  0.6508444  3
    214    213    222    224     1  0.0000000  0.6508444  3
    215    213    222    231     1  0.0000000  1.0460000  1
    215    213    222    231     1  0.0000000  0.0000000  3
    215    213    222    223     1  0.0000000  0.6508444  3
    215    213    222    224     1  0.0000000  0.6508444  3
    217    216    228    529     1  0.0000000  1.0460000  1
    217    216    228    529     1  0.0000000  0.0000000  3
    217    216    228    229     1  0.0000000  0.6508444  3
    217    216    228    230     1  0.0000000  0.6508444  3
    218    216    228    529     1  0.0000000  1.0460000  1
    218    216    228    529     1  0.0000000  0.0000000  3
    218    216    228    229     1  0.0000000  0.6508444  3
    218    216    228    230     1  0.0000000  0.6508444  3
    220    219    225    498     1  0.0000000  1.0460000  1
    220    219    225    498     1  0.0000000  0.0000000  3
    220    219    225    226     1  0.0000000  0.6508444  3
    220    219    225    227     1  0.0000000  0.6508444  3
    221    219    225    498     1  0.0000000  1.0460000  1
    221    219    225    498     1  0.0000000  0.0000000  3
    221    219    225    226     1  0.0000000  0.6508444  3
    221    219    225    227     1  0.0000000  0.6508444  3
    225    498    468    469     1  0.0000000  1.6038667  3
    225    498    468    470     1  0.0000000  1.6038667  3
    226    225    498    468     1  0.0000000  1.6038667  3
    227    225    498    468     1  0.0000000  1.6038667  3
    228    529    499    500     1  0.0000000  1.6038667  3
    228    529    499    501     1  0.0000000  1.6038667  3
    229    228    529    499     1  0.0000000  1.6038667  3
    230    228    529    499     1  0.0000000  1.6038667  3
    232    233    245    246     1  0.0000000  0.6508444  3
    232    233    245    247     1  0.0000000  0.6508444  3
    232    236    248    249     1  0.0000000  0.6508444  3
    232    236    248    250     1  0.0000000  0.6508444  3
    232    239    242    243     1  0.0000000  0.6508444  3
    232    239    242    244     1  0.0000000  0.6508444  3
    233    232    236    237     1  0.0000000  1.2552000  3
    233    232    236    238     1  0.0000000  1.2552000  3
    233    232    239    240     1  0.0000000  1.2552000  3
    233    232    239    241     1  0.0000000  1.2552000  3
    233    245    257    258     1  0.0000000  0.6508444  3
    233    245    257    259     1  0.0000000  0.6508444  3
    234    233    232    236     1  0.0000000  1.2552000  3
    234    233    232    239     1  0.0000000  1.2552000  3
    234    233    245    257     1  0.0000000  0.6508444  3
    234    233    245    246     1  0.0000000  0.6508444  3
    234    233    245    247     1  0.0000000  0.6508444  3
    235    233    232    236     1  0.0000000  1.2552000  3
    235    233    232    239     1  0.0000000  1.2552000  3
    235    233    245    257     1  0.0000000  0.6508444  3
    235    233    245    246     1  0.0000000  0.6508444  3
    235    233    245    247     1  0.0000000  0.6508444  3
    236    232    239    240     1  0.0000000  1.2552000  3
    236    232    239    241     1  0.0000000  1.2552000  3
    236    248    254    255     1  0.0000000  0.6508444  3
    236    248    254    256     1  0.0000000  0.6508444  3
    237    236    232    239     1  0.0000000  1.2552000  3
    237    236    248    254     1  0.0000000  0.6508444  3
    237    236    248    249     1  0.0000000  0.6508444  3
    237    236    248    250     1  0.0000000  0.6508444  3
    238    236    232    239     1  0.0000000  1.2552000  3
    238    236    248    254     1  0.0000000  0.6508444  3
    238    236    248    249     1  0.0000000  0.6508444  3
    238    236    248    250     1  0.0000000  0.6508444  3
    239    242    251    252     1  0.0000000  0.6508444  3
    239    242    251    253     1  0.0000000  0.6508444  3
    240    239    242    251     1  0.0000000  0.6508444  3
    240    239    242    243     1  0.0000000  0.6508444  3
    240    239    242    244     1  0.0000000  0.6508444  3
    241    239    242    251     1  0.0000000  0.6508444  3
    241    239    242    243     1  0.0000000  0.6508444  3
    241    239    242    244     1  0.0000000  0.6508444  3
    243    242    251    260     1  0.0000000  1.0460000  1
    243    242    251    260     1  0.0000000  0.0000000  3
    243    242    251    252     1  0.0000000  0.6508444  3
    243    242    251    253     1  0.0000000  0.6508444  3
    244    242    251    260     1  0.0000000  1.0460000  1
    244    242    251    260     1  0.0000000  0.0000000  3
    244    242    251    252     1  0.0000000  0.6508444  3
    244    242    251    253     1  0.0000000  0.6508444  3
    246    245    257    591     1  0.0000000  1.0460000  1
    246    245    257    591     1  0.0000000  0.0000000  3
    246    245    257    258     1  0.0000000  0.6508444  3
    246    245    257    259     1  0.0000000  0.6508444  3
    247    245    257    591     1  0.0000000  1.0460000  1
    247    245    257    591     1  0.0000000  0.0000000  3
    247    245    257    258     1  0.0000000  0.6508444  3
    247    245    257    259     1  0.0000000  0.6508444  3
    249    248    254    560     1  0.0000000  1.0460000  1
    249    248    254    560     1  0.0000000  0.0000000  3
    249    248    254    255     1  0.0000000  0.6508444  3
    249    248    254    256     1  0.0000000  0.6508444  3
    250    248    254    560     1  0.0000000  1.0460000  1
    250    248    254    560     1  0.0000000  0.0000000  3
    250    248    254    255     1  0.0000000  0.6508444  3
    250    248    254    256     1  0.0000000  0.6508444  3
    254    560    530    531     1  0.0000000  1.6038667  3
    254    560    530    532     1  0.0000000  1.6038667  3
    255    254    560    530     1  0.0000000  1.6038667  3
    256    254    560    530     1  0.0000000  1.6038667  3
    257    591    561    562     1  0.0000000  1.6038667  3
    257    591    561    563     1  0.0000000  1.6038667  3
    258    257    591    561     1  0.0000000  1.6038667  3
    259    257    591    561     1  0.0000000  1.6038667  3
    261    262    274    275     1  0.0000000  0.6508444  3
    261    262    274    276     1  0.0000000  0.6508444  3
    261    265    277    278     1  0.0000000  0.6508444  3
    261    265    277    279     1  0.0000000  0.6508444  3
    261    268    271    272     1  0.0000000  0.6508444  3
    261    268    271    273     1  0.0000000  0.6508444  3
    262    261    265    266     1  0.0000000  1.2552000  3
    262    261    265    267     1  0.0000000  1.2552000  3
    262    261    268    269     1  0.0000000  1.2552000  3
    262    261    268    270     1  0.0000000  1.2552000  3
    262    274    286    287     1  0.0000000  0.6508444  3
    262    274    286    288     1  0.0000000  0.6508444  3
    263    262    261    265     1  0.0000000  1.2552000  3
    263    262    261    268     1  0.0000000  1.2552000  3
    263    262    274    286     1  0.0000000  0.6508444  3
    263    262    274    275     1  0.0000000  0.6508444  3
    263    262    274    276     1  0.0000000  0.6508444  3
    264    262    261    265     1  0.0000000  1.2552000  3
    264    262    261    268     1  0.0000000  1.2552000  3
    264    262    274    286     1  0.0000000  0.6508444  3
    264    262    274    275     1  0.0000000  0.6508444  3
    264    262    274    276     1  0.0000000  0.6508444  3
    265    261    268    269     1  0.0000000  1.2552000  3
    265    261    268    270     1  0.0000000  1.2552000  3
    265    277    283    284     1  0.0000000  0.6508444  3
    265    277    283    285     1  0.0000000  0.6508444  3
    266    265    261    268     1  0.0000000  1.2552000  3
    266    265    277    283     1  0.0000000  0.6508444  3
    266    265    277    278     1  0.0000000  0.6508444  3
    266    265    277    279     1  0.0000000  0.6508444  3
    267    265    261    268     1  0.0000000  1.2552000  3
    267    265    277    283     1  0.0000000  0.6508444  3
    267    265    277    278     1  0.0000000  0.6508444  3
    267    265    277    279     1  0.0000000  0.6508444  3
    268    271    280    281     1  0.0000000  0.6508444  3
    268    271    280    282     1  0.0000000  0.6508444  3
    269    268    271    280     1  0.0000000  0.6508444  3
    269    268    271    272     1  0.0000000  0.6508444  3
    269    268    271    273     1  0.0000000  0.6508444  3
    270    268    271    280     1  0.0000000  0.6508444  3
    270    268    271    272     1  0.0000000  0.6508444  3
    270    268    271    273     1  0.0000000  0.6508444  3
    272    271    280    289     1  0.0000000  1.0460000  1
    272    271    280    289     1  0.0000000  0.0000000  3
    272    271    280    281     1  0.0000000  0.6508444  3
    272    271    280    282     1  0.0000000  0.6508444  3
    273    271    280    289     1  0.0000000  1.0460000  1
    273    271    280    289     1  0.0000000  0.0000000  3
    273    271    280    281     1  0.0000000  0.6508444  3
    273    271    280    282     1  0.0000000  0.6508444  3
    275    274    286    653     1  0.0000000  1.0460000  1
    275    274    286    653     1  0.0000000  0.0000000  3
    275    274    286    287     1  0.0000000  0.6508444  3
    275    274    286    288     1  0.0000000  0.6508444  3
    276    274    286    653     1  0.0000000  1.0460000  1
    276    274    286    653     1  0.0000000  0.0000000  3
    276    274    286    287     1  0.0000000  0.6508444  3
    276    274    286    288     1  0.0000000  0.6508444  3
    278    277    283    622     1  0.0000000  1.0460000  1
    278    277    283    622     1  0.0000000  0.0000000  3
    278    277    283    284     1  0.0000000  0.6508444  3
    278    277    283    285     1  0.0000000  0.6508444  3
    279    277    283    622     1  0.0000000  1.0460000  1
    279    277    283    622     1  0.0000000  0.0000000  3
    279    277    283    284     1  0.0000000  0.6508444  3
    279    277    283    285     1  0.0000000  0.6508444  3
    283    622    592    593     1  0.0000000  1.6038667  3
    283    622    592    594     1  0.0000000  1.6038667  3
    284    283    622    592     1  0.0000000  1.6038667  3
    285    283    622    592     1  0.0000000  1.6038667  3
    286    653    623    624     1  0.0000000  1.6038667  3
    286    653    623    625     1  0.0000000  1.6038667  3
    287    286    653    623     1  0.0000000  1.6038667  3
    288    286    653    623     1  0.0000000  1.6038667  3
    290    291    303    304     1  0.0000000  0.6508444  3
    290    291    303    305     1  0.0000000  0.6508444  3
    290    294    306    307     1  0.0000000  0.6508444  3
    290    294    306    308     1  0.0000000  0.6508444  3
    290    297    300    301     1  0.0000000  0.6508444  3
    290    297    300    302     1  0.0000000  0.6508444  3
    291    290    294    295     1  0.0000000  1.2552000  3
    291    290    294    296     1  0.0000000  1.2552000  3
    291    290    297    298     1  0.0000000  1.2552000  3
    291    290    297    299     1  0.0000000  1.2552000  3
    291    303    315    316     1  0.0000000  0.6508444  3
    291    303    315    317     1  0.0000000  0.6508444  3
    292    291    290    294     1  0.0000000  1.2552000  3
    292    291    290    297     1  0.0000000  1.2552000  3
    292    291    303    315     1  0.0000000  0.6508444  3
    292    291    303    304     1  0.0000000  0.6508444  3
    292    291    303    305     1  0.0000000  0.6508444  3
    293    291    290    294     1  0.0000000  1.2552000  3
    293    291    290    297     1  0.0000000  1.2552000  3
    293    291    303    315     1  0.0000000  0.6508444  3
    293    291    303    304     1  0.0000000  0.6508444  3
    293    291    303    305     1  0.0000000  0.6508444  3
    294    290    297    298     1  0.0000000  1.2552000  3
    294    290    297    299     1  0.0000000  1.2552000  3
    294    306    312    313     1  0.0000000  0.6508444  3
    294    306    312    314     1  0.0000000  0.6508444  3
    295    294    290    297     1  0.0000000  1.2552000  3
    295    294    306    312     1  0.0000000  0.6508444  3
    295    294    306    307     1  0.0000000  0.6508444  3
    295    294    306    308     1  0.0000000  0.6508444  3
    296    294    290    297     1  0.0000000  1.2552000  3
    296    294    306    312     1  0.0000000  0.6508444  3
    296    294    306    307     1  0.0000000  0.6508444  3
    296    294    306    308     1  0.0000000  0.6508444  3
    297    300    309    310     1  0.0000000  0.6508444  3
    297    300    309    311     1  0.0000000  0.6508444  3
    298    297    300    309     1  0.0000000  0.6508444  3
    298    297    300    301     1  0.0000000  0.6508444  3
    298    297    300    302     1  0.0000000  0.6508444  3
    299    297    300    309     1  0.0000000  0.6508444  3
    299    297    300    301     1  0.0000000  0.6508444  3
    299    297    300    302     1  0.0000000  0.6508444  3
    301    300    309    318     1  0.0000000  1.0460000  1
    301    300    309    318     1  0.0000000  0.0000000  3
    301    300    309    310     1  0.0000000  0.6508444  3
    301    300    309    311     1  0.0000000  0.6508444  3
    302    300    309    318     1  0.0000000  1.0460000  1
    302    300    309    318     1  0.0000000  0.0000000  3
    302    300    309    310     1  0.0000000  0.6508444  3
    302    300    309    311     1  0.0000000  0.6508444  3
    304    303    315    715     1  0.0000000  1.0460000  1
    304    303    315    715     1  0.0000000  0.0000000  3
    304    303    315    316     1  0.0000000  0.6508444  3
    304    303    315    317     1  0.0000000  0.6508444  3
    305    303    315    715     1  0.0000000  1.0460000  1
    305    303    315    715     1  0.0000000  0.0000000  3
    305    303    315    316     1  0.0000000  0.6508444  3
    305    303    315    317     1  0.0000000  0.6508444  3
    307    306    312    684     1  0.0000000  1.0460000  1
    307    306    312    684     1  0.0000000  0.0000000  3
    307    306    312    313     1  0.0000000  0.6508444  3
    307    306    312    314     1  0.0000000  0.6508444  3
    308    306    312    684     1  0.0000000  1.0460000  1
    308    306    312    684     1  0.0000000  0.0000000  3
    308    306    312    313     1  0.0000000  0.6508444  3
    308    306    312    314     1  0.0000000  0.6508444  3
    312    684    654    655     1  0.0000000  1.6038667  3
    312    684    654    656     1  0.0000000  1.6038667  3
    313    312    684    654     1  0.0000000  1.6038667  3
    314    312    684    654     1  0.0000000  1.6038667  3
    315    715    685    686     1  0.0000000  1.6038667  3
    315    715    685    687     1  0.0000000  1.6038667  3
    316    315    715    685     1  0.0000000  1.6038667  3
    317    315    715    685     1  0.0000000  1.6038667  3
    319    320    332    333     1  0.0000000  0.6508444  3
    319    320    332    334     1  0.0000000  0.6508444  3
    319    323    335    336     1  0.0000000  0.6508444  3
    319    323    335    337     1  0.0000000  0.6508444  3
    319    326    329    330     1  0.0000000  0.6508444  3
    319    326    329    331     1  0.0000000  0.6508444  3
    320    319    323    324     1  0.0000000  1.2552000  3
    320    319    323    325     1  0.0000000  1.2552000  3
    320    319    326    327     1  0.0000000  1.2552000  3
    320    319    326    328     1  0.0000000  1.2552000  3
    320    332    344    345     1  0.0000000  0.6508444  3
    320    332    344    346     1  0.0000000  0.6508444  3
    321    320    319    323     1  0.0000000  1.2552000  3
    321    320    319    326     1  0.0000000  1.2552000  3
    321    320    332    344     1  0.0000000  0.6508444  3
    321    320    332    333     1  0.0000000  0.6508444  3
    321    320    332    334     1  0.0000000  0.6508444  3
    322    320    319    323     1  0.0000000  1.2552000  3
    322    320    319    326     1  0.0000000  1.2552000  3
    322    320    332    344     1  0.0000000  0.6508444  3
    322    320    332    333     1  0.0000000  0.6508444  3
    322    320    332    334     1  0.0000000  0.6508444  3
    323    319    326    327     1  0.0000000  1.2552000  3
    323    319    326    328     1  0.0000000  1.2552000  3
    323    335    341    342     1  0.0000000  0.6508444  3
    323    335    341    343     1  0.0000000  0.6508444  3
    324    323    319    326     1  0.0000000  1.2552000  3
    324    323    335    341     1  0.0000000  0.6508444  3
    324    323    335    336     1  0.0000000  0.6508444  3
    324    323    335    337     1  0.0000000  0.6508444  3
    325    323    319    326     1  0.0000000  1.2552000  3
    325    323    335    341     1  0.0000000  0.6508444  3
    325    323    335    336     1  0.0000000  0.6508444  3
    325    323    335    337     1  0.0000000  0.6508444  3
    326    329    338    339     1  0.0000000  0.6508444  3
    326    329    338    340     1  0.0000000  0.6508444  3
    327    326    329    338     1  0.0000000  0.6508444  3
    327    326    329    330     1  0.0000000  0.6508444  3
    327    326    329    331     1  0.0000000  0.6508444  3
    328    326    329    338     1  0.0000000  0.6508444  3
    328    326    329    330     1  0.0000000  0.6508444  3
    328    326    329    331     1  0.0000000  0.6508444  3
    330    329    338    347     1  0.0000000  1.0460000  1
    330    329    338    347     1  0.0000000  0.0000000  3
    330    329    338    339     1  0.0000000  0.6508444  3
    330    329    338    340     1  0.0000000  0.6508444  3
    331    329    338    347     1  0.0000000  1.0460000  1
    331    329    338    347     1  0.0000000  0.0000000  3
    331    329    338    339     1  0.0000000  0.6508444  3
    331    329    338    340     1  0.0000000  0.6508444  3
    333    332    344    777     1  0.0000000  1.0460000  1
    333    332    344    777     1  0.0000000  0.0000000  3
    333    332    344    345     1  0.0000000  0.6508444  3
    333    332    344    346     1  0.0000000  0.6508444  3
    334    332    344    777     1  0.0000000  1.0460000  1
    334    332    344    777     1  0.0000000  0.0000000  3
    334    332    344    345     1  0.0000000  0.6508444  3
    334    332    344    346     1  0.0000000  0.6508444  3
    336    335    341    746     1  0.0000000  1.0460000  1
    336    335    341    746     1  0.0000000  0.0000000  3
    336    335    341    342     1  0.0000000  0.6508444  3
    336    335    341    343     1  0.0000000  0.6508444  3
    337    335    341    746     1  0.0000000  1.0460000  1
    337    335    341    746     1  0.0000000  0.0000000  3
    337    335    341    342     1  0.0000000  0.6508444  3
    337    335    341    343     1  0.0000000  0.6508444  3
    341    746    716    717     1  0.0000000  1.6038667  3
    341    746    716    718     1  0.0000000  1.6038667  3
    342    341    746    716     1  0.0000000  1.6038667  3
    343    341    746    716     1  0.0000000  1.6038667  3
    344    777    747    748     1  0.0000000  1.6038667  3
    344    777    747    749     1  0.0000000  1.6038667  3
    345    344    777    747     1  0.0000000  1.6038667  3
    346    344    777    747     1  0.0000000  1.6038667  3
    348    349    361    362     1  0.0000000  0.6508444  3
    348    349    361    363     1  0.0000000  0.6508444  3
    348    352    364    365     1  0.0000000  0.6508444  3
    348    352    364    366     1  0.0000000  0.6508444  3
    348    355    358    359     1  0.0000000  0.6508444  3
    348    355    358    360     1  0.0000000  0.6508444  3
    349    348    352    353     1  0.0000000  1.2552000  3
    349    348    352    354     1  0.0000000  1.2552000  3
    349    348    355    356     1  0.0000000  1.2552000  3
    349    348    355    357     1  0.0000000  1.2552000  3
    349    361    373    374     1  0.0000000  0.6508444  3
    349    361    373    375     1  0.0000000  0.6508444  3
    350    349    348    352     1  0.0000000  1.2552000  3
    350    349    348    355     1  0.0000000  1.2552000  3
    350    349    361    373     1  0.0000000  0.6508444  3
    350    349    361    362     1  0.0000000  0.6508444  3
    350    349    361    363     1  0.0000000  0.6508444  3
    351    349    348    352     1  0.0000000  1.2552000  3
    351    349    348    355     1  0.0000000  1.2552000  3
    351    349    361    373     1  0.0000000  0.6508444  3
    351    349    361    362     1  0.0000000  0.6508444  3
    351    349    361    363     1  0.0000000  0.6508444  3
    352    348    355    356     1  0.0000000  1.2552000  3
    352    348    355    357     1  0.0000000  1.2552000  3
    352    364    370    371     1  0.0000000  0.6508444  3
    352    364    370    372     1  0.0000000  0.6508444  3
    353    352    348    355     1  0.0000000  1.2552000  3
    353    352    364    370     1  0.0000000  0.6508444  3
    353    352    364    365     1  0.0000000  0.6508444  3
    353    352    364    366     1  0.0000000  0.6508444  3
    354    352    348    355     1  0.0000000  1.2552000  3
    354    352    364    370     1  0.0000000  0.6508444  3
    354    352    364    365     1  0.0000000  0.6508444  3
    354    352    364    366     1  0.0000000  0.6508444  3
    355    358    367    368     1  0.0000000  0.6508444  3
    355    358    367    369     1  0.0000000  0.6508444  3
    356    355    358    367     1  0.0000000  0.6508444  3
    356    355    358    359     1  0.0000000  0.6508444  3
    356    355    358    360     1  0.0000000  0.6508444  3
    357    355    358    367     1  0.0000000  0.6508444  3
    357    355    358    359     1  0.0000000  0.6508444  3
    357    355    358    360     1  0.0000000  0.6508444  3
    359    358    367    376     1  0.0000000  1.0460000  1
    359    358    367    376     1  0.0000000  0.0000000  3
    359    358    367    368     1  0.0000000  0.6508444  3
    359    358    367    369     1  0.0000000  0.6508444  3
    360    358    367    376     1  0.0000000  1.0460000  1
    360    358    367    376     1  0.0000000  0.0000000  3
    360    358    367    368     1  0.0000000  0.6508444  3
    360    358    367    369     1  0.0000000  0.6508444  3
    362    361    373    839     1  0.0000000  1.0460000  1
    362    361    373    839     1  0.0000000  0.0000000  3
    362    361    373    374     1  0.0000000  0.6508444  3
    362    361    373    375     1  0.0000000  0.6508444  3
    363    361    373    839     1  0.0000000  1.0460000  1
    363    361    373    839     1  0.0000000  0.0000000  3
    363    361    373    374     1  0.0000000  0.6508444  3
    363    361    373    375     1  0.0000000  0.6508444  3
    365    364    370    808     1  0.0000000  1.0460000  1
    365    364    370    808     1  0.0000000  0.0000000  3
    365    364    370    371     1  0.0000000  0.6508444  3
    365    364    370    372     1  0.0000000  0.6508444  3
    366    364    370    808     1  0.0000000  1.0460000  1
    366    364    370    808     1  0.0000000  0.0000000  3
    366    364    370    371     1  0.0000000  0.6508444  3
    366    364    370    372     1  0.0000000  0.6508444  3
    370    808    778    779     1  0.0000000  1.6038667  3
    370    808    778    780     1  0.0000000  1.6038667  3
    371    370    808    778     1  0.0000000  1.6038667  3
    372    370    808    778     1  0.0000000  1.6038667  3
    373    839    809    810     1  0.0000000  1.6038667  3
    373    839    809    811     1  0.0000000  1.6038667  3
    374    373    839    809     1  0.0000000  1.6038667  3
    375    373    839    809     1  0.0000000  1.6038667  3
    377    378    390    391     1  0.0000000  0.6508444  3
    377    378    390    392     1  0.0000000  0.6508444  3
    377    381    393    394     1  0.0000000  0.6508444  3
    377    381    393    395     1  0.0000000  0.6508444  3
    377    384    387    388     1  0.0000000  0.6508444  3
    377    384    387    389     1  0.0000000  0.6508444  3
    378    377    381    382     1  0.0000000  1.2552000  3
    378    377    381    383     1  0.0000000  1.2552000  3
    378    377    384    385     1  0.0000000  1.2552000  3
    378    377    384    386     1  0.0000000  1.2552000  3
    378    390    402    403     1  0.0000000  0.6508444  3
    378    390    402    404     1  0.0000000  0.6508444  3
    379    378    377    381     1  0.0000000  1.2552000  3
    379    378    377    384     1  0.0000000  1.2552000  3
    379    378    390    402     1  0.0000000  0.6508444  3
    379    378    390    391     1  0.0000000  0.6508444  3
    379    378    390    392     1  0.0000000  0.6508444  3
    380    378    377    381     1  0.0000000  1.2552000  3
    380    378    377    384     1  0.0000000  1.2552000  3
    380    378    390    402     1  0.0000000  0.6508444  3
    380    378    390    391     1  0.0000000  0.6508444  3
    380    378    390    392     1  0.0000000  0.6508444  3
    381    377    384    385     1  0.0000000  1.2552000  3
    381    377    384    386     1  0.0000000  1.2552000  3
    381    393    399    400     1  0.0000000  0.6508444  3
    381    393    399    401     1  0.0000000  0.6508444  3
    382    381    377    384     1  0.0000000  1.2552000  3
    382    381    393    399     1  0.0000000  0.6508444  3
    382    381    393    394     1  0.0000000  0.6508444  3
    382    381    393    395     1  0.0000000  0.6508444  3
    383    381    377    384     1  0.0000000  1.2552000  3
    383    381    393    399     1  0.0000000  0.6508444  3
    383    381    393    394     1  0.0000000  0.6508444  3
    383    381    393    395     1  0.0000000  0.6508444  3
    384    387    396    397     1  0.0000000  0.6508444  3
    384    387    396    398     1  0.0000000  0.6508444  3
    385    384    387    396     1  0.0000000  0.6508444  3
    385    384    387    388     1  0.0000000  0.6508444  3
    385    384    387    389     1  0.0000000  0.6508444  3
    386    384    387    396     1  0.0000000  0.6508444  3
    386    384    387    388     1  0.0000000  0.6508444  3
    386    384    387    389     1  0.0000000  0.6508444  3
    388    387    396    405     1  0.0000000  1.0460000  1
    388    387    396    405     1  0.0000000  0.0000000  3
    388    387    396    397     1  0.0000000  0.6508444  3
    388    387    396    398     1  0.0000000  0.6508444  3
    389    387    396    405     1  0.0000000  1.0460000  1
    389    387    396    405     1  0.0000000  0.0000000  3
    389    387    396    397     1  0.0000000  0.6508444  3
    389    387    396    398     1  0.0000000  0.6508444  3
    391    390    402    901     1  0.0000000  1.0460000  1
    391    390    402    901     1  0.0000000  0.0000000  3
    391    390    402    403     1  0.0000000  0.6508444  3
    391    390    402    404     1  0.0000000  0.6508444  3
    392    390    402    901     1  0.0000000  1.0460000  1
    392    390    402    901     1  0.0000000  0.0000000  3
    392    390    402    403     1  0.0000000  0.6508444  3
    392    390    402    404     1  0.0000000  0.6508444  3
    394    393    399    870     1  0.0000000  1.0460000  1
    394    393    399    870     1  0.0000000  0.0000000  3
    394    393    399    400     1  0.0000000  0.6508444  3
    394    393    399    401     1  0.0000000  0.6508444  3
    395    393    399    870     1  0.0000000  1.0460000  1
    395    393    399    870     1  0.0000000  0.0000000  3
    395    393    399    400     1  0.0000000  0.6508444  3
    395    393    399    401     1  0.0000000  0.6508444  3
    399    870    840    841     1  0.0000000  1.6038667  3
    399    870    840    842     1  0.0000000  1.6038667  3
    400    399    870    840     1  0.0000000  1.6038667  3
    401    399    870    840     1  0.0000000  1.6038667  3
    402    901    871    872     1  0.0000000  1.6038667  3
    402    901    871    873     1  0.0000000  1.6038667  3
    403    402    901    871     1  0.0000000  1.6038667  3
    404    402    901    871     1  0.0000000  1.6038667  3
    406    409    412    413     1  0.0000000  0.6508444  3
    406    409    412    414     1  0.0000000  0.6508444  3
    407    406    409    412     1  0.0000000  0.6508444  3
    407    406    409    410     1  0.0000000  0.6508444  3
    407    406    409    411     1  0.0000000  0.6508444  3
    408    406    409    412     1  0.0000000  0.6508444  3
    408    406    409    410     1  0.0000000  0.6508444  3
    408    406    409    411     1  0.0000000  0.6508444  3
    410    409    406    436     1  0.0000000  1.0460000  1
    410    409    406    436     1  0.0000000  0.0000000  3
    410    409    412    415     1  0.0000000  0.6508444  3
    410    409    412    413     1  0.0000000  0.6508444  3
    410    409    412    414     1  0.0000000  0.6508444  3
    411    409    406    436     1  0.0000000  1.0460000  1
    411    409    406    436     1  0.0000000  0.0000000  3
    411    409    412    415     1  0.0000000  0.6508444  3
    411    409    412    413     1  0.0000000  0.6508444  3
    411    409    412    414     1  0.0000000  0.6508444  3
    412    415    416    417     1  0.0000000  1.2552000  3
    412    415    416    418     1  0.0000000  1.2552000  3
    412    415    426    427     1  0.0000000  1.2552000  3
    412    415    426    428     1  0.0000000  1.2552000  3
    413    412    415    416     1  0.0000000  1.2552000  3
    413    412    415    426     1  0.0000000  1.2552000  3
    414    412    415    416     1  0.0000000  1.2552000  3
    414    412    415    426     1  0.0000000  1.2552000  3
    415    416    419    420     1  0.0000000  0.6508444  3
    415    416    419    421     1  0.0000000  0.6508444  3
    415    426    429    430     1  0.0000000  0.6508444  3
    415    426    429    431     1  0.0000000  0.6508444  3
    416    415    426    427     1  0.0000000  1.2552000  3
    416    415    426    428     1  0.0000000  1.2552000  3
    417    416    415    426     1  0.0000000  1.2552000  3
    417    416    419    422     1  0.0000000  0.6508444  3
    417    416    419    420     1  0.0000000  0.6508444  3
    417    416    419    421     1  0.0000000  0.6508444  3
    418    416    415    426     1  0.0000000  1.2552000  3
    418    416    419    422     1  0.0000000  0.6508444  3
    418    416    419    420     1  0.0000000  0.6508444  3
    418    416    419    421     1  0.0000000  0.6508444  3
    419    422    424    425     1  180.0000771  9.6232000  2
    420    419    422    423     1  0.0000000  3.3472000  1
    420    419    422    423     1  0.0000000  0.0000000  2
    420    419    422    423     1  180.0000771  0.3347200  3
    420    419    422    424     1  180.0000771  0.0000000  2
    421    419    422    423     1  0.0000000  3.3472000  1
    421    419    422    423     1  0.0000000  0.0000000  2
    421    419    422    423     1  180.0000771  0.3347200  3
    421    419    422    424     1  180.0000771  0.0000000  2
    423    422    424    425     1  0.0000000  7.9496000  1
    423    422    424    425     1  180.0000771  9.6232000  2
    427    426    429    432     1  0.0000000  0.6508444  3
    427    426    429    430     1  0.0000000  0.6508444  3
    427    426    429    431     1  0.0000000  0.6508444  3
    428    426    429    432     1  0.0000000  0.6508444  3
    428    426    429    430     1  0.0000000  0.6508444  3
    428    426    429    431     1  0.0000000  0.6508444  3
    429    432    434    435     1  180.0000771  9.6232000  2
    430    429    432    433     1  0.0000000  3.3472000  1
    430    429    432    433     1  0.0000000  0.0000000  2
    430    429    432    433     1  180.0000771  0.3347200  3
    430    429    432    434     1  180.0000771  0.0000000  2
    431    429    432    433     1  0.0000000  3.3472000  1
    431    429    432    433     1  0.0000000  0.0000000  2
    431    429    432    433     1  180.0000771  0.3347200  3
    431    429    432    434     1  180.0000771  0.0000000  2
    433    432    434    435     1  0.0000000  7.9496000  1
    433    432    434    435     1  180.0000771  9.6232000  2
    437    440    443    444     1  0.0000000  0.6508444  3
    437    440    443    445     1  0.0000000  0.6508444  3
    438    437    440    443     1  0.0000000  0.6508444  3
    438    437    440    441     1  0.0000000  0.6508444  3
    438    437    440    442     1  0.0000000  0.6508444  3
    439    437    440    443     1  0.0000000  0.6508444  3
    439    437    440    441     1  0.0000000  0.6508444  3
    439    437    440    442     1  0.0000000  0.6508444  3
    441    440    443    446     1  0.0000000  0.6508444  3
    441    440    443    444     1  0.0000000  0.6508444  3
    441    440    443    445     1  0.0000000  0.6508444  3
    441    440    437    467     1  0.0000000  1.0460000  1
    441    440    437    467     1  0.0000000  0.0000000  3
    442    440    443    446     1  0.0000000  0.6508444  3
    442    440    443    444     1  0.0000000  0.6508444  3
    442    440    443    445     1  0.0000000  0.6508444  3
    442    440    437    467     1  0.0000000  1.0460000  1
    442    440    437    467     1  0.0000000  0.0000000  3
    443    446    447    448     1  0.0000000  1.2552000  3
    443    446    447    449     1  0.0000000  1.2552000  3
    443    446    457    458     1  0.0000000  1.2552000  3
    443    446    457    459     1  0.0000000  1.2552000  3
    444    443    446    447     1  0.0000000  1.2552000  3
    444    443    446    457     1  0.0000000  1.2552000  3
    445    443    446    447     1  0.0000000  1.2552000  3
    445    443    446    457     1  0.0000000  1.2552000  3
    446    447    450    451     1  0.0000000  0.6508444  3
    446    447    450    452     1  0.0000000  0.6508444  3
    446    457    460    461     1  0.0000000  0.6508444  3
    446    457    460    462     1  0.0000000  0.6508444  3
    447    446    457    458     1  0.0000000  1.2552000  3
    447    446    457    459     1  0.0000000  1.2552000  3
    448    447    450    453     1  0.0000000  0.6508444  3
    448    447    450    451     1  0.0000000  0.6508444  3
    448    447    450    452     1  0.0000000  0.6508444  3
    448    447    446    457     1  0.0000000  1.2552000  3
    449    447    450    453     1  0.0000000  0.6508444  3
    449    447    450    451     1  0.0000000  0.6508444  3
    449    447    450    452     1  0.0000000  0.6508444  3
    449    447    446    457     1  0.0000000  1.2552000  3
    450    453    455    456     1  180.0000771  9.6232000  2
    451    450    453    454     1  0.0000000  3.3472000  1
    451    450    453    454     1  0.0000000  0.0000000  2
    451    450    453    454     1  180.0000771  0.3347200  3
    451    450    453    455     1  180.0000771  0.0000000  2
    452    450    453    454     1  0.0000000  3.3472000  1
    452    450    453    454     1  0.0000000  0.0000000  2
    452    450    453    454     1  180.0000771  0.3347200  3
    452    450    453    455     1  180.0000771  0.0000000  2
    454    453    455    456     1  0.0000000  7.9496000  1
    454    453    455    456     1  180.0000771  9.6232000  2
    458    457    460    463     1  0.0000000  0.6508444  3
    458    457    460    461     1  0.0000000  0.6508444  3
    458    457    460    462     1  0.0000000  0.6508444  3
    459    457    460    463     1  0.0000000  0.6508444  3
    459    457    460    461     1  0.0000000  0.6508444  3
    459    457    460    462     1  0.0000000  0.6508444  3
    460    463    465    466     1  180.0000771  9.6232000  2
    461    460    463    464     1  0.0000000  3.3472000  1
    461    460    463    464     1  0.0000000  0.0000000  2
    461    460    463    464     1  180.0000771  0.3347200  3
    461    460    463    465     1  180.0000771  0.0000000  2
    462    460    463    464     1  0.0000000  3.3472000  1
    462    460    463    464     1  0.0000000  0.0000000  2
    462    460    463    464     1  180.0000771  0.3347200  3
    462    460    463    465     1  180.0000771  0.0000000  2
    464    463    465    466     1  0.0000000  7.9496000  1
    464    463    465    466     1  180.0000771  9.6232000  2
    468    471    474    475     1  0.0000000  0.6508444  3
    468    471    474    476     1  0.0000000  0.6508444  3
    469    468    471    474     1  0.0000000  0.6508444  3
    469    468    471    472     1  0.0000000  0.6508444  3
    469    468    471    473     1  0.0000000  0.6508444  3
    470    468    471    474     1  0.0000000  0.6508444  3
    470    468    471    472     1  0.0000000  0.6508444  3
    470    468    471    473     1  0.0000000  0.6508444  3
    472    471    468    498     1  0.0000000  1.0460000  1
    472    471    468    498     1  0.0000000  0.0000000  3
    472    471    474    477     1  0.0000000  0.6508444  3
    472    471    474    475     1  0.0000000  0.6508444  3
    472    471    474    476     1  0.0000000  0.6508444  3
    473    471    468    498     1  0.0000000  1.0460000  1
    473    471    468    498     1  0.0000000  0.0000000  3
    473    471    474    477     1  0.0000000  0.6508444  3
    473    471    474    475     1  0.0000000  0.6508444  3
    473    471    474    476     1  0.0000000  0.6508444  3
    474    477    478    479     1  0.0000000  1.2552000  3
    474    477    478    480     1  0.0000000  1.2552000  3
    474    477    488    489     1  0.0000000  1.2552000  3
    474    477    488    490     1  0.0000000  1.2552000  3
    475    474    477    478     1  0.0000000  1.2552000  3
    475    474    477    488     1  0.0000000  1.2552000  3
    476    474    477    478     1  0.0000000  1.2552000  3
    476    474    477    488     1  0.0000000  1.2552000  3
    477    478    481    482     1  0.0000000  0.6508444  3
    477    478    481    483     1  0.0000000  0.6508444  3
    477    488    491    492     1  0.0000000  0.6508444  3
    477    488    491    493     1  0.0000000  0.6508444  3
    478    477    488    489     1  0.0000000  1.2552000  3
    478    477    488    490     1  0.0000000  1.2552000  3
    479    478    477    488     1  0.0000000  1.2552000  3
    479    478    481    484     1  0.0000000  0.6508444  3
    479    478    481    482     1  0.0000000  0.6508444  3
    479    478    481    483     1  0.0000000  0.6508444  3
    480    478    477    488     1  0.0000000  1.2552000  3
    480    478    481    484     1  0.0000000  0.6508444  3
    480    478    481    482     1  0.0000000  0.6508444  3
    480    478    481    483     1  0.0000000  0.6508444  3
    481    484    486    487     1  180.0000771  9.6232000  2
    482    481    484    485     1  0.0000000  3.3472000  1
    482    481    484    485     1  0.0000000  0.0000000  2
    482    481    484    485     1  180.0000771  0.3347200  3
    482    481    484    486     1  180.0000771  0.0000000  2
    483    481    484    485     1  0.0000000  3.3472000  1
    483    481    484    485     1  0.0000000  0.0000000  2
    483    481    484    485     1  180.0000771  0.3347200  3
    483    481    484    486     1  180.0000771  0.0000000  2
    485    484    486    487     1  0.0000000  7.9496000  1
    485    484    486    487     1  180.0000771  9.6232000  2
    489    488    491    494     1  0.0000000  0.6508444  3
    489    488    491    492     1  0.0000000  0.6508444  3
    489    488    491    493     1  0.0000000  0.6508444  3
    490    488    491    494     1  0.0000000  0.6508444  3
    490    488    491    492     1  0.0000000  0.6508444  3
    490    488    491    493     1  0.0000000  0.6508444  3
    491    494    496    497     1  180.0000771  9.6232000  2
    492    491    494    495     1  0.0000000  3.3472000  1
    492    491    494    495     1  0.0000000  0.0000000  2
    492    491    494    495     1  180.0000771  0.3347200  3
    492    491    494    496     1  180.0000771  0.0000000  2
    493    491    494    495     1  0.0000000  3.3472000  1
    493    491    494    495     1  0.0000000  0.0000000  2
    493    491    494    495     1  180.0000771  0.3347200  3
    493    491    494    496     1  180.0000771  0.0000000  2
    495    494    496    497     1  0.0000000  7.9496000  1
    495    494    496    497     1  180.0000771  9.6232000  2
    499    502    505    506     1  0.0000000  0.6508444  3
    499    502    505    507     1  0.0000000  0.6508444  3
    500    499    502    505     1  0.0000000  0.6508444  3
    500    499    502    503     1  0.0000000  0.6508444  3
    500    499    502    504     1  0.0000000  0.6508444  3
    501    499    502    505     1  0.0000000  0.6508444  3
    501    499    502    503     1  0.0000000  0.6508444  3
    501    499    502    504     1  0.0000000  0.6508444  3
    503    502    505    508     1  0.0000000  0.6508444  3
    503    502    505    506     1  0.0000000  0.6508444  3
    503    502    505    507     1  0.0000000  0.6508444  3
    503    502    499    529     1  0.0000000  1.0460000  1
    503    502    499    529     1  0.0000000  0.0000000  3
    504    502    505    508     1  0.0000000  0.6508444  3
    504    502    505    506     1  0.0000000  0.6508444  3
    504    502    505    507     1  0.0000000  0.6508444  3
    504    502    499    529     1  0.0000000  1.0460000  1
    504    502    499    529     1  0.0000000  0.0000000  3
    505    508    509    510     1  0.0000000  1.2552000  3
    505    508    509    511     1  0.0000000  1.2552000  3
    505    508    519    520     1  0.0000000  1.2552000  3
    505    508    519    521     1  0.0000000  1.2552000  3
    506    505    508    509     1  0.0000000  1.2552000  3
    506    505    508    519     1  0.0000000  1.2552000  3
    507    505    508    509     1  0.0000000  1.2552000  3
    507    505    508    519     1  0.0000000  1.2552000  3
    508    509    512    513     1  0.0000000  0.6508444  3
    508    509    512    514     1  0.0000000  0.6508444  3
    508    519    522    523     1  0.0000000  0.6508444  3
    508    519    522    524     1  0.0000000  0.6508444  3
    509    508    519    520     1  0.0000000  1.2552000  3
    509    508    519    521     1  0.0000000  1.2552000  3
    510    509    512    515     1  0.0000000  0.6508444  3
    510    509    512    513     1  0.0000000  0.6508444  3
    510    509    512    514     1  0.0000000  0.6508444  3
    510    509    508    519     1  0.0000000  1.2552000  3
    511    509    512    515     1  0.0000000  0.6508444  3
    511    509    512    513     1  0.0000000  0.6508444  3
    511    509    512    514     1  0.0000000  0.6508444  3
    511    509    508    519     1  0.0000000  1.2552000  3
    512    515    517    518     1  180.0000771  9.6232000  2
    513    512    515    516     1  0.0000000  3.3472000  1
    513    512    515    516     1  0.0000000  0.0000000  2
    513    512    515    516     1  180.0000771  0.3347200  3
    513    512    515    517     1  180.0000771  0.0000000  2
    514    512    515    516     1  0.0000000  3.3472000  1
    514    512    515    516     1  0.0000000  0.0000000  2
    514    512    515    516     1  180.0000771  0.3347200  3
    514    512    515    517     1  180.0000771  0.0000000  2
    516    515    517    518     1  0.0000000  7.9496000  1
    516    515    517    518     1  180.0000771  9.6232000  2
    520    519    522    525     1  0.0000000  0.6508444  3
    520    519    522    523     1  0.0000000  0.6508444  3
    520    519    522    524     1  0.0000000  0.6508444  3
    521    519    522    525     1  0.0000000  0.6508444  3
    521    519    522    523     1  0.0000000  0.6508444  3
    521    519    522    524     1  0.0000000  0.6508444  3
    522    525    527    528     1  180.0000771  9.6232000  2
    523    522    525    526     1  0.0000000  3.3472000  1
    523    522    525    526     1  0.0000000  0.0000000  2
    523    522    525    526     1  180.0000771  0.3347200  3
    523    522    525    527     1  180.0000771  0.0000000  2
    524    522    525    526     1  0.0000000  3.3472000  1
    524    522    525    526     1  0.0000000  0.0000000  2
    524    522    525    526     1  180.0000771  0.3347200  3
    524    522    525    527     1  180.0000771  0.0000000  2
    526    525    527    528     1  0.0000000  7.9496000  1
    526    525    527    528     1  180.0000771  9.6232000  2
    530    533    536    537     1  0.0000000  0.6508444  3
    530    533    536    538     1  0.0000000  0.6508444  3
    531    530    533    536     1  0.0000000  0.6508444  3
    531    530    533    534     1  0.0000000  0.6508444  3
    531    530    533    535     1  0.0000000  0.6508444  3
    532    530    533    536     1  0.0000000  0.6508444  3
    532    530    533    534     1  0.0000000  0.6508444  3
    532    530    533    535     1  0.0000000  0.6508444  3
    534    533    530    560     1  0.0000000  1.0460000  1
    534    533    530    560     1  0.0000000  0.0000000  3
    534    533    536    539     1  0.0000000  0.6508444  3
    534    533    536    537     1  0.0000000  0.6508444  3
    534    533    536    538     1  0.0000000  0.6508444  3
    535    533    530    560     1  0.0000000  1.0460000  1
    535    533    530    560     1  0.0000000  0.0000000  3
    535    533    536    539     1  0.0000000  0.6508444  3
    535    533    536    537     1  0.0000000  0.6508444  3
    535    533    536    538     1  0.0000000  0.6508444  3
    536    539    540    541     1  0.0000000  1.2552000  3
    536    539    540    542     1  0.0000000  1.2552000  3
    536    539    550    551     1  0.0000000  1.2552000  3
    536    539    550    552     1  0.0000000  1.2552000  3
    537    536    539    540     1  0.0000000  1.2552000  3
    537    536    539    550     1  0.0000000  1.2552000  3
    538    536    539    540     1  0.0000000  1.2552000  3
    538    536    539    550     1  0.0000000  1.2552000  3
    539    540    543    544     1  0.0000000  0.6508444  3
    539    540    543    545     1  0.0000000  0.6508444  3
    539    550    553    554     1  0.0000000  0.6508444  3
    539    550    553    555     1  0.0000000  0.6508444  3
    540    539    550    551     1  0.0000000  1.2552000  3
    540    539    550    552     1  0.0000000  1.2552000  3
    541    540    539    550     1  0.0000000  1.2552000  3
    541    540    543    546     1  0.0000000  0.6508444  3
    541    540    543    544     1  0.0000000  0.6508444  3
    541    540    543    545     1  0.0000000  0.6508444  3
    542    540    539    550     1  0.0000000  1.2552000  3
    542    540    543    546     1  0.0000000  0.6508444  3
    542    540    543    544     1  0.0000000  0.6508444  3
    542    540    543    545     1  0.0000000  0.6508444  3
    543    546    548    549     1  180.0000771  9.6232000  2
    544    543    546    547     1  0.0000000  3.3472000  1
    544    543    546    547     1  0.0000000  0.0000000  2
    544    543    546    547     1  180.0000771  0.3347200  3
    544    543    546    548     1  180.0000771  0.0000000  2
    545    543    546    547     1  0.0000000  3.3472000  1
    545    543    546    547     1  0.0000000  0.0000000  2
    545    543    546    547     1  180.0000771  0.3347200  3
    545    543    546    548     1  180.0000771  0.0000000  2
    547    546    548    549     1  0.0000000  7.9496000  1
    547    546    548    549     1  180.0000771  9.6232000  2
    551    550    553    556     1  0.0000000  0.6508444  3
    551    550    553    554     1  0.0000000  0.6508444  3
    551    550    553    555     1  0.0000000  0.6508444  3
    552    550    553    556     1  0.0000000  0.6508444  3
    552    550    553    554     1  0.0000000  0.6508444  3
    552    550    553    555     1  0.0000000  0.6508444  3
    553    556    558    559     1  180.0000771  9.6232000  2
    554    553    556    557     1  0.0000000  3.3472000  1
    554    553    556    557     1  0.0000000  0.0000000  2
    554    553    556    557     1  180.0000771  0.3347200  3
    554    553    556    558     1  180.0000771  0.0000000  2
    555    553    556    557     1  0.0000000  3.3472000  1
    555    553    556    557     1  0.0000000  0.0000000  2
    555    553    556    557     1  180.0000771  0.3347200  3
    555    553    556    558     1  180.0000771  0.0000000  2
    557    556    558    559     1  0.0000000  7.9496000  1
    557    556    558    559     1  180.0000771  9.6232000  2
    561    564    567    568     1  0.0000000  0.6508444  3
    561    564    567    569     1  0.0000000  0.6508444  3
    562    561    564    567     1  0.0000000  0.6508444  3
    562    561    564    565     1  0.0000000  0.6508444  3
    562    561    564    566     1  0.0000000  0.6508444  3
    563    561    564    567     1  0.0000000  0.6508444  3
    563    561    564    565     1  0.0000000  0.6508444  3
    563    561    564    566     1  0.0000000  0.6508444  3
    565    564    567    570     1  0.0000000  0.6508444  3
    565    564    567    568     1  0.0000000  0.6508444  3
    565    564    567    569     1  0.0000000  0.6508444  3
    565    564    561    591     1  0.0000000  1.0460000  1
    565    564    561    591     1  0.0000000  0.0000000  3
    566    564    567    570     1  0.0000000  0.6508444  3
    566    564    567    568     1  0.0000000  0.6508444  3
    566    564    567    569     1  0.0000000  0.6508444  3
    566    564    561    591     1  0.0000000  1.0460000  1
    566    564    561    591     1  0.0000000  0.0000000  3
    567    570    571    572     1  0.0000000  1.2552000  3
    567    570    571    573     1  0.0000000  1.2552000  3
    567    570    581    582     1  0.0000000  1.2552000  3
    567    570    581    583     1  0.0000000  1.2552000  3
    568    567    570    571     1  0.0000000  1.2552000  3
    568    567    570    581     1  0.0000000  1.2552000  3
    569    567    570    571     1  0.0000000  1.2552000  3
    569    567    570    581     1  0.0000000  1.2552000  3
    570    571    574    575     1  0.0000000  0.6508444  3
    570    571    574    576     1  0.0000000  0.6508444  3
    570    581    584    585     1  0.0000000  0.6508444  3
    570    581    584    586     1  0.0000000  0.6508444  3
    571    570    581    582     1  0.0000000  1.2552000  3
    571    570    581    583     1  0.0000000  1.2552000  3
    572    571    574    577     1  0.0000000  0.6508444  3
    572    571    574    575     1  0.0000000  0.6508444  3
    572    571    574    576     1  0.0000000  0.6508444  3
    572    571    570    581     1  0.0000000  1.2552000  3
    573    571    574    577     1  0.0000000  0.6508444  3
    573    571    574    575     1  0.0000000  0.6508444  3
    573    571    574    576     1  0.0000000  0.6508444  3
    573    571    570    581     1  0.0000000  1.2552000  3
    574    577    579    580     1  180.0000771  9.6232000  2
    575    574    577    578     1  0.0000000  3.3472000  1
    575    574    577    578     1  0.0000000  0.0000000  2
    575    574    577    578     1  180.0000771  0.3347200  3
    575    574    577    579     1  180.0000771  0.0000000  2
    576    574    577    578     1  0.0000000  3.3472000  1
    576    574    577    578     1  0.0000000  0.0000000  2
    576    574    577    578     1  180.0000771  0.3347200  3
    576    574    577    579     1  180.0000771  0.0000000  2
    578    577    579    580     1  0.0000000  7.9496000  1
    578    577    579    580     1  180.0000771  9.6232000  2
    582    581    584    587     1  0.0000000  0.6508444  3
    582    581    584    585     1  0.0000000  0.6508444  3
    582    581    584    586     1  0.0000000  0.6508444  3
    583    581    584    587     1  0.0000000  0.6508444  3
    583    581    584    585     1  0.0000000  0.6508444  3
    583    581    584    586     1  0.0000000  0.6508444  3
    584    587    589    590     1  180.0000771  9.6232000  2
    585    584    587    588     1  0.0000000  3.3472000  1
    585    584    587    588     1  0.0000000  0.0000000  2
    585    584    587    588     1  180.0000771  0.3347200  3
    585    584    587    589     1  180.0000771  0.0000000  2
    586    584    587    588     1  0.0000000  3.3472000  1
    586    584    587    588     1  0.0000000  0.0000000  2
    586    584    587    588     1  180.0000771  0.3347200  3
    586    584    587    589     1  180.0000771  0.0000000  2
    588    587    589    590     1  0.0000000  7.9496000  1
    588    587    589    590     1  180.0000771  9.6232000  2
    592    595    598    599     1  0.0000000  0.6508444  3
    592    595    598    600     1  0.0000000  0.6508444  3
    593    592    595    598     1  0.0000000  0.6508444  3
    593    592    595    596     1  0.0000000  0.6508444  3
    593    592    595    597     1  0.0000000  0.6508444  3
    594    592    595    598     1  0.0000000  0.6508444  3
    594    592    595    596     1  0.0000000  0.6508444  3
    594    592    595    597     1  0.0000000  0.6508444  3
    596    595    592    622     1  0.0000000  1.0460000  1
    596    595    592    622     1  0.0000000  0.0000000  3
    596    595    598    601     1  0.0000000  0.6508444  3
    596    595    598    599     1  0.0000000  0.6508444  3
    596    595    598    600     1  0.0000000  0.6508444  3
    597    595    592    622     1  0.0000000  1.0460000  1
    597    595    592    622     1  0.0000000  0.0000000  3
    597    595    598    601     1  0.0000000  0.6508444  3
    597    595    598    599     1  0.0000000  0.6508444  3
    597    595    598    600     1  0.0000000  0.6508444  3
    598    601    602    603     1  0.0000000  1.2552000  3
    598    601    602    604     1  0.0000000  1.2552000  3
    598    601    612    613     1  0.0000000  1.2552000  3
    598    601    612    614     1  0.0000000  1.2552000  3
    599    598    601    602     1  0.0000000  1.2552000  3
    599    598    601    612     1  0.0000000  1.2552000  3
    600    598    601    602     1  0.0000000  1.2552000  3
    600    598    601    612     1  0.0000000  1.2552000  3
    601    602    605    606     1  0.0000000  0.6508444  3
    601    602    605    607     1  0.0000000  0.6508444  3
    601    612    615    616     1  0.0000000  0.6508444  3
    601    612    615    617     1  0.0000000  0.6508444  3
    602    601    612    613     1  0.0000000  1.2552000  3
    602    601    612    614     1  0.0000000  1.2552000  3
    603    602    601    612     1  0.0000000  1.2552000  3
    603    602    605    608     1  0.0000000  0.6508444  3
    603    602    605    606     1  0.0000000  0.6508444  3
    603    602    605    607     1  0.0000000  0.6508444  3
    604    602    601    612     1  0.0000000  1.2552000  3
    604    602    605    608     1  0.0000000  0.6508444  3
    604    602    605    606     1  0.0000000  0.6508444  3
    604    602    605    607     1  0.0000000  0.6508444  3
    605    608    610    611     1  180.0000771  9.6232000  2
    606    605    608    609     1  0.0000000  3.3472000  1
    606    605    608    609     1  0.0000000  0.0000000  2
    606    605    608    609     1  180.0000771  0.3347200  3
    606    605    608    610     1  180.0000771  0.0000000  2
    607    605    608    609     1  0.0000000  3.3472000  1
    607    605    608    609     1  0.0000000  0.0000000  2
    607    605    608    609     1  180.0000771  0.3347200  3
    607    605    608    610     1  180.0000771  0.0000000  2
    609    608    610    611     1  0.0000000  7.9496000  1
    609    608    610    611     1  180.0000771  9.6232000  2
    613    612    615    618     1  0.0000000  0.6508444  3
    613    612    615    616     1  0.0000000  0.6508444  3
    613    612    615    617     1  0.0000000  0.6508444  3
    614    612    615    618     1  0.0000000  0.6508444  3
    614    612    615    616     1  0.0000000  0.6508444  3
    614    612    615    617     1  0.0000000  0.6508444  3
    615    618    620    621     1  180.0000771  9.6232000  2
    616    615    618    619     1  0.0000000  3.3472000  1
    616    615    618    619     1  0.0000000  0.0000000  2
    616    615    618    619     1  180.0000771  0.3347200  3
    616    615    618    620     1  180.0000771  0.0000000  2
    617    615    618    619     1  0.0000000  3.3472000  1
    617    615    618    619     1  0.0000000  0.0000000  2
    617    615    618    619     1  180.0000771  0.3347200  3
    617    615    618    620     1  180.0000771  0.0000000  2
    619    618    620    621     1  0.0000000  7.9496000  1
    619    618    620    621     1  180.0000771  9.6232000  2
    623    626    629    630     1  0.0000000  0.6508444  3
    623    626    629    631     1  0.0000000  0.6508444  3
    624    623    626    629     1  0.0000000  0.6508444  3
    624    623    626    627     1  0.0000000  0.6508444  3
    624    623    626    628     1  0.0000000  0.6508444  3
    625    623    626    629     1  0.0000000  0.6508444  3
    625    623    626    627     1  0.0000000  0.6508444  3
    625    623    626    628     1  0.0000000  0.6508444  3
    627    626    629    632     1  0.0000000  0.6508444  3
    627    626    629    630     1  0.0000000  0.6508444  3
    627    626    629    631     1  0.0000000  0.6508444  3
    627    626    623    653     1  0.0000000  1.0460000  1
    627    626    623    653     1  0.0000000  0.0000000  3
    628    626    629    632     1  0.0000000  0.6508444  3
    628    626    629    630     1  0.0000000  0.6508444  3
    628    626    629    631     1  0.0000000  0.6508444  3
    628    626    623    653     1  0.0000000  1.0460000  1
    628    626    623    653     1  0.0000000  0.0000000  3
    629    632    633    634     1  0.0000000  1.2552000  3
    629    632    633    635     1  0.0000000  1.2552000  3
    629    632    643    644     1  0.0000000  1.2552000  3
    629    632    643    645     1  0.0000000  1.2552000  3
    630    629    632    633     1  0.0000000  1.2552000  3
    630    629    632    643     1  0.0000000  1.2552000  3
    631    629    632    633     1  0.0000000  1.2552000  3
    631    629    632    643     1  0.0000000  1.2552000  3
    632    633    636    637     1  0.0000000  0.6508444  3
    632    633    636    638     1  0.0000000  0.6508444  3
    632    643    646    647     1  0.0000000  0.6508444  3
    632    643    646    648     1  0.0000000  0.6508444  3
    633    632    643    644     1  0.0000000  1.2552000  3
    633    632    643    645     1  0.0000000  1.2552000  3
    634    633    636    639     1  0.0000000  0.6508444  3
    634    633    636    637     1  0.0000000  0.6508444  3
    634    633    636    638     1  0.0000000  0.6508444  3
    634    633    632    643     1  0.0000000  1.2552000  3
    635    633    636    639     1  0.0000000  0.6508444  3
    635    633    636    637     1  0.0000000  0.6508444  3
    635    633    636    638     1  0.0000000  0.6508444  3
    635    633    632    643     1  0.0000000  1.2552000  3
    636    639    641    642     1  180.0000771  9.6232000  2
    637    636    639    640     1  0.0000000  3.3472000  1
    637    636    639    640     1  0.0000000  0.0000000  2
    637    636    639    640     1  180.0000771  0.3347200  3
    637    636    639    641     1  180.0000771  0.0000000  2
    638    636    639    640     1  0.0000000  3.3472000  1
    638    636    639    640     1  0.0000000  0.0000000  2
    638    636    639    640     1  180.0000771  0.3347200  3
    638    636    639    641     1  180.0000771  0.0000000  2
    640    639    641    642     1  0.0000000  7.9496000  1
    640    639    641    642     1  180.0000771  9.6232000  2
    644    643    646    649     1  0.0000000  0.6508444  3
    644    643    646    647     1  0.0000000  0.6508444  3
    644    643    646    648     1  0.0000000  0.6508444  3
    645    643    646    649     1  0.0000000  0.6508444  3
    645    643    646    647     1  0.0000000  0.6508444  3
    645    643    646    648     1  0.0000000  0.6508444  3
    646    649    651    652     1  180.0000771  9.6232000  2
    647    646    649    650     1  0.0000000  3.3472000  1
    647    646    649    650     1  0.0000000  0.0000000  2
    647    646    649    650     1  180.0000771  0.3347200  3
    647    646    649    651     1  180.0000771  0.0000000  2
    648    646    649    650     1  0.0000000  3.3472000  1
    648    646    649    650     1  0.0000000  0.0000000  2
    648    646    649    650     1  180.0000771  0.3347200  3
    648    646    649    651     1  180.0000771  0.0000000  2
    650    649    651    652     1  0.0000000  7.9496000  1
    650    649    651    652     1  180.0000771  9.6232000  2
    654    657    660    661     1  0.0000000  0.6508444  3
    654    657    660    662     1  0.0000000  0.6508444  3
    655    654    657    660     1  0.0000000  0.6508444  3
    655    654    657    658     1  0.0000000  0.6508444  3
    655    654    657    659     1  0.0000000  0.6508444  3
    656    654    657    660     1  0.0000000  0.6508444  3
    656    654    657    658     1  0.0000000  0.6508444  3
    656    654    657    659     1  0.0000000  0.6508444  3
    658    657    654    684     1  0.0000000  1.0460000  1
    658    657    654    684     1  0.0000000  0.0000000  3
    658    657    660    663     1  0.0000000  0.6508444  3
    658    657    660    661     1  0.0000000  0.6508444  3
    658    657    660    662     1  0.0000000  0.6508444  3
    659    657    654    684     1  0.0000000  1.0460000  1
    659    657    654    684     1  0.0000000  0.0000000  3
    659    657    660    663     1  0.0000000  0.6508444  3
    659    657    660    661     1  0.0000000  0.6508444  3
    659    657    660    662     1  0.0000000  0.6508444  3
    660    663    664    665     1  0.0000000  1.2552000  3
    660    663    664    666     1  0.0000000  1.2552000  3
    660    663    674    675     1  0.0000000  1.2552000  3
    660    663    674    676     1  0.0000000  1.2552000  3
    661    660    663    664     1  0.0000000  1.2552000  3
    661    660    663    674     1  0.0000000  1.2552000  3
    662    660    663    664     1  0.0000000  1.2552000  3
    662    660    663    674     1  0.0000000  1.2552000  3
    663    664    667    668     1  0.0000000  0.6508444  3
    663    664    667    669     1  0.0000000  0.6508444  3
    663    674    677    678     1  0.0000000  0.6508444  3
    663    674    677    679     1  0.0000000  0.6508444  3
    664    663    674    675     1  0.0000000  1.2552000  3
    664    663    674    676     1  0.0000000  1.2552000  3
    665    664    663    674     1  0.0000000  1.2552000  3
    665    664    667    670     1  0.0000000  0.6508444  3
    665    664    667    668     1  0.0000000  0.6508444  3
    665    664    667    669     1  0.0000000  0.6508444  3
    666    664    663    674     1  0.0000000  1.2552000  3
    666    664    667    670     1  0.0000000  0.6508444  3
    666    664    667    668     1  0.0000000  0.6508444  3
    666    664    667    669     1  0.0000000  0.6508444  3
    667    670    672    673     1  180.0000771  9.6232000  2
    668    667    670    671     1  0.0000000  3.3472000  1
    668    667    670    671     1  0.0000000  0.0000000  2
    668    667    670    671     1  180.0000771  0.3347200  3
    668    667    670    672     1  180.0000771  0.0000000  2
    669    667    670    671     1  0.0000000  3.3472000  1
    669    667    670    671     1  0.0000000  0.0000000  2
    669    667    670    671     1  180.0000771  0.3347200  3
    669    667    670    672     1  180.0000771  0.0000000  2
    671    670    672    673     1  0.0000000  7.9496000  1
    671    670    672    673     1  180.0000771  9.6232000  2
    675    674    677    680     1  0.0000000  0.6508444  3
    675    674    677    678     1  0.0000000  0.6508444  3
    675    674    677    679     1  0.0000000  0.6508444  3
    676    674    677    680     1  0.0000000  0.6508444  3
    676    674    677    678     1  0.0000000  0.6508444  3
    676    674    677    679     1  0.0000000  0.6508444  3
    677    680    682    683     1  180.0000771  9.6232000  2
    678    677    680    681     1  0.0000000  3.3472000  1
    678    677    680    681     1  0.0000000  0.0000000  2
    678    677    680    681     1  180.0000771  0.3347200  3
    678    677    680    682     1  180.0000771  0.0000000  2
    679    677    680    681     1  0.0000000  3.3472000  1
    679    677    680    681     1  0.0000000  0.0000000  2
    679    677    680    681     1  180.0000771  0.3347200  3
    679    677    680    682     1  180.0000771  0.0000000  2
    681    680    682    683     1  0.0000000  7.9496000  1
    681    680    682    683     1  180.0000771  9.6232000  2
    685    688    691    692     1  0.0000000  0.6508444  3
    685    688    691    693     1  0.0000000  0.6508444  3
    686    685    688    691     1  0.0000000  0.6508444  3
    686    685    688    689     1  0.0000000  0.6508444  3
    686    685    688    690     1  0.0000000  0.6508444  3
    687    685    688    691     1  0.0000000  0.6508444  3
    687    685    688    689     1  0.0000000  0.6508444  3
    687    685    688    690     1  0.0000000  0.6508444  3
    689    688    691    694     1  0.0000000  0.6508444  3
    689    688    691    692     1  0.0000000  0.6508444  3
    689    688    691    693     1  0.0000000  0.6508444  3
    689    688    685    715     1  0.0000000  1.0460000  1
    689    688    685    715     1  0.0000000  0.0000000  3
    690    688    691    694     1  0.0000000  0.6508444  3
    690    688    691    692     1  0.0000000  0.6508444  3
    690    688    691    693     1  0.0000000  0.6508444  3
    690    688    685    715     1  0.0000000  1.0460000  1
    690    688    685    715     1  0.0000000  0.0000000  3
    691    694    695    696     1  0.0000000  1.2552000  3
    691    694    695    697     1  0.0000000  1.2552000  3
    691    694    705    706     1  0.0000000  1.2552000  3
    691    694    705    707     1  0.0000000  1.2552000  3
    692    691    694    695     1  0.0000000  1.2552000  3
    692    691    694    705     1  0.0000000  1.2552000  3
    693    691    694    695     1  0.0000000  1.2552000  3
    693    691    694    705     1  0.0000000  1.2552000  3
    694    695    698    699     1  0.0000000  0.6508444  3
    694    695    698    700     1  0.0000000  0.6508444  3
    694    705    708    709     1  0.0000000  0.6508444  3
    694    705    708    710     1  0.0000000  0.6508444  3
    695    694    705    706     1  0.0000000  1.2552000  3
    695    694    705    707     1  0.0000000  1.2552000  3
    696    695    698    701     1  0.0000000  0.6508444  3
    696    695    698    699     1  0.0000000  0.6508444  3
    696    695    698    700     1  0.0000000  0.6508444  3
    696    695    694    705     1  0.0000000  1.2552000  3
    697    695    698    701     1  0.0000000  0.6508444  3
    697    695    698    699     1  0.0000000  0.6508444  3
    697    695    698    700     1  0.0000000  0.6508444  3
    697    695    694    705     1  0.0000000  1.2552000  3
    698    701    703    704     1  180.0000771  9.6232000  2
    699    698    701    702     1  0.0000000  3.3472000  1
    699    698    701    702     1  0.0000000  0.0000000  2
    699    698    701    702     1  180.0000771  0.3347200  3
    699    698    701    703     1  180.0000771  0.0000000  2
    700    698    701    702     1  0.0000000  3.3472000  1
    700    698    701    702     1  0.0000000  0.0000000  2
    700    698    701    702     1  180.0000771  0.3347200  3
    700    698    701    703     1  180.0000771  0.0000000  2
    702    701    703    704     1  0.0000000  7.9496000  1
    702    701    703    704     1  180.0000771  9.6232000  2
    706    705    708    711     1  0.0000000  0.6508444  3
    706    705    708    709     1  0.0000000  0.6508444  3
    706    705    708    710     1  0.0000000  0.6508444  3
    707    705    708    711     1  0.0000000  0.6508444  3
    707    705    708    709     1  0.0000000  0.6508444  3
    707    705    708    710     1  0.0000000  0.6508444  3
    708    711    713    714     1  180.0000771  9.6232000  2
    709    708    711    712     1  0.0000000  3.3472000  1
    709    708    711    712     1  0.0000000  0.0000000  2
    709    708    711    712     1  180.0000771  0.3347200  3
    709    708    711    713     1  180.0000771  0.0000000  2
    710    708    711    712     1  0.0000000  3.3472000  1
    710    708    711    712     1  0.0000000  0.0000000  2
    710    708    711    712     1  180.0000771  0.3347200  3
    710    708    711    713     1  180.0000771  0.0000000  2
    712    711    713    714     1  0.0000000  7.9496000  1
    712    711    713    714     1  180.0000771  9.6232000  2
    716    719    722    723     1  0.0000000  0.6508444  3
    716    719    722    724     1  0.0000000  0.6508444  3
    717    716    719    722     1  0.0000000  0.6508444  3
    717    716    719    720     1  0.0000000  0.6508444  3
    717    716    719    721     1  0.0000000  0.6508444  3
    718    716    719    722     1  0.0000000  0.6508444  3
    718    716    719    720     1  0.0000000  0.6508444  3
    718    716    719    721     1  0.0000000  0.6508444  3
    720    719    716    746     1  0.0000000  1.0460000  1
    720    719    716    746     1  0.0000000  0.0000000  3
    720    719    722    725     1  0.0000000  0.6508444  3
    720    719    722    723     1  0.0000000  0.6508444  3
    720    719    722    724     1  0.0000000  0.6508444  3
    721    719    716    746     1  0.0000000  1.0460000  1
    721    719    716    746     1  0.0000000  0.0000000  3
    721    719    722    725     1  0.0000000  0.6508444  3
    721    719    722    723     1  0.0000000  0.6508444  3
    721    719    722    724     1  0.0000000  0.6508444  3
    722    725    726    727     1  0.0000000  1.2552000  3
    722    725    726    728     1  0.0000000  1.2552000  3
    722    725    736    737     1  0.0000000  1.2552000  3
    722    725    736    738     1  0.0000000  1.2552000  3
    723    722    725    726     1  0.0000000  1.2552000  3
    723    722    725    736     1  0.0000000  1.2552000  3
    724    722    725    726     1  0.0000000  1.2552000  3
    724    722    725    736     1  0.0000000  1.2552000  3
    725    726    729    730     1  0.0000000  0.6508444  3
    725    726    729    731     1  0.0000000  0.6508444  3
    725    736    739    740     1  0.0000000  0.6508444  3
    725    736    739    741     1  0.0000000  0.6508444  3
    726    725    736    737     1  0.0000000  1.2552000  3
    726    725    736    738     1  0.0000000  1.2552000  3
    727    726    725    736     1  0.0000000  1.2552000  3
    727    726    729    732     1  0.0000000  0.6508444  3
    727    726    729    730     1  0.0000000  0.6508444  3
    727    726    729    731     1  0.0000000  0.6508444  3
    728    726    725    736     1  0.0000000  1.2552000  3
    728    726    729    732     1  0.0000000  0.6508444  3
    728    726    729    730     1  0.0000000  0.6508444  3
    728    726    729    731     1  0.0000000  0.6508444  3
    729    732    734    735     1  180.0000771  9.6232000  2
    730    729    732    733     1  0.0000000  3.3472000  1
    730    729    732    733     1  0.0000000  0.0000000  2
    730    729    732    733     1  180.0000771  0.3347200  3
    730    729    732    734     1  180.0000771  0.0000000  2
    731    729    732    733     1  0.0000000  3.3472000  1
    731    729    732    733     1  0.0000000  0.0000000  2
    731    729    732    733     1  180.0000771  0.3347200  3
    731    729    732    734     1  180.0000771  0.0000000  2
    733    732    734    735     1  0.0000000  7.9496000  1
    733    732    734    735     1  180.0000771  9.6232000  2
    737    736    739    742     1  0.0000000  0.6508444  3
    737    736    739    740     1  0.0000000  0.6508444  3
    737    736    739    741     1  0.0000000  0.6508444  3
    738    736    739    742     1  0.0000000  0.6508444  3
    738    736    739    740     1  0.0000000  0.6508444  3
    738    736    739    741     1  0.0000000  0.6508444  3
    739    742    744    745     1  180.0000771  9.6232000  2
    740    739    742    743     1  0.0000000  3.3472000  1
    740    739    742    743     1  0.0000000  0.0000000  2
    740    739    742    743     1  180.0000771  0.3347200  3
    740    739    742    744     1  180.0000771  0.0000000  2
    741    739    742    743     1  0.0000000  3.3472000  1
    741    739    742    743     1  0.0000000  0.0000000  2
    741    739    742    743     1  180.0000771  0.3347200  3
    741    739    742    744     1  180.0000771  0.0000000  2
    743    742    744    745     1  0.0000000  7.9496000  1
    743    742    744    745     1  180.0000771  9.6232000  2
    747    750    753    754     1  0.0000000  0.6508444  3
    747    750    753    755     1  0.0000000  0.6508444  3
    748    747    750    753     1  0.0000000  0.6508444  3
    748    747    750    751     1  0.0000000  0.6508444  3
    748    747    750    752     1  0.0000000  0.6508444  3
    749    747    750    753     1  0.0000000  0.6508444  3
    749    747    750    751     1  0.0000000  0.6508444  3
    749    747    750    752     1  0.0000000  0.6508444  3
    751    750    753    756     1  0.0000000  0.6508444  3
    751    750    753    754     1  0.0000000  0.6508444  3
    751    750    753    755     1  0.0000000  0.6508444  3
    751    750    747    777     1  0.0000000  1.0460000  1
    751    750    747    777     1  0.0000000  0.0000000  3
    752    750    753    756     1  0.0000000  0.6508444  3
    752    750    753    754     1  0.0000000  0.6508444  3
    752    750    753    755     1  0.0000000  0.6508444  3
    752    750    747    777     1  0.0000000  1.0460000  1
    752    750    747    777     1  0.0000000  0.0000000  3
    753    756    757    758     1  0.0000000  1.2552000  3
    753    756    757    759     1  0.0000000  1.2552000  3
    753    756    767    768     1  0.0000000  1.2552000  3
    753    756    767    769     1  0.0000000  1.2552000  3
    754    753    756    757     1  0.0000000  1.2552000  3
    754    753    756    767     1  0.0000000  1.2552000  3
    755    753    756    757     1  0.0000000  1.2552000  3
    755    753    756    767     1  0.0000000  1.2552000  3
    756    757    760    761     1  0.0000000  0.6508444  3
    756    757    760    762     1  0.0000000  0.6508444  3
    756    767    770    771     1  0.0000000  0.6508444  3
    756    767    770    772     1  0.0000000  0.6508444  3
    757    756    767    768     1  0.0000000  1.2552000  3
    757    756    767    769     1  0.0000000  1.2552000  3
    758    757    760    763     1  0.0000000  0.6508444  3
    758    757    760    761     1  0.0000000  0.6508444  3
    758    757    760    762     1  0.0000000  0.6508444  3
    758    757    756    767     1  0.0000000  1.2552000  3
    759    757    760    763     1  0.0000000  0.6508444  3
    759    757    760    761     1  0.0000000  0.6508444  3
    759    757    760    762     1  0.0000000  0.6508444  3
    759    757    756    767     1  0.0000000  1.2552000  3
    760    763    765    766     1  180.0000771  9.6232000  2
    761    760    763    764     1  0.0000000  3.3472000  1
    761    760    763    764     1  0.0000000  0.0000000  2
    761    760    763    764     1  180.0000771  0.3347200  3
    761    760    763    765     1  180.0000771  0.0000000  2
    762    760    763    764     1  0.0000000  3.3472000  1
    762    760    763    764     1  0.0000000  0.0000000  2
    762    760    763    764     1  180.0000771  0.3347200  3
    762    760    763    765     1  180.0000771  0.0000000  2
    764    763    765    766     1  0.0000000  7.9496000  1
    764    763    765    766     1  180.0000771  9.6232000  2
    768    767    770    773     1  0.0000000  0.6508444  3
    768    767    770    771     1  0.0000000  0.6508444  3
    768    767    770    772     1  0.0000000  0.6508444  3
    769    767    770    773     1  0.0000000  0.6508444  3
    769    767    770    771     1  0.0000000  0.6508444  3
    769    767    770    772     1  0.0000000  0.6508444  3
    770    773    775    776     1  180.0000771  9.6232000  2
    771    770    773    774     1  0.0000000  3.3472000  1
    771    770    773    774     1  0.0000000  0.0000000  2
    771    770    773    774     1  180.0000771  0.3347200  3
    771    770    773    775     1  180.0000771  0.0000000  2
    772    770    773    774     1  0.0000000  3.3472000  1
    772    770    773    774     1  0.0000000  0.0000000  2
    772    770    773    774     1  180.0000771  0.3347200  3
    772    770    773    775     1  180.0000771  0.0000000  2
    774    773    775    776     1  0.0000000  7.9496000  1
    774    773    775    776     1  180.0000771  9.6232000  2
    778    781    784    785     1  0.0000000  0.6508444  3
    778    781    784    786     1  0.0000000  0.6508444  3
    779    778    781    784     1  0.0000000  0.6508444  3
    779    778    781    782     1  0.0000000  0.6508444  3
    779    778    781    783     1  0.0000000  0.6508444  3
    780    778    781    784     1  0.0000000  0.6508444  3
    780    778    781    782     1  0.0000000  0.6508444  3
    780    778    781    783     1  0.0000000  0.6508444  3
    782    781    778    808     1  0.0000000  1.0460000  1
    782    781    778    808     1  0.0000000  0.0000000  3
    782    781    784    787     1  0.0000000  0.6508444  3
    782    781    784    785     1  0.0000000  0.6508444  3
    782    781    784    786     1  0.0000000  0.6508444  3
    783    781    778    808     1  0.0000000  1.0460000  1
    783    781    778    808     1  0.0000000  0.0000000  3
    783    781    784    787     1  0.0000000  0.6508444  3
    783    781    784    785     1  0.0000000  0.6508444  3
    783    781    784    786     1  0.0000000  0.6508444  3
    784    787    788    789     1  0.0000000  1.2552000  3
    784    787    788    790     1  0.0000000  1.2552000  3
    784    787    798    799     1  0.0000000  1.2552000  3
    784    787    798    800     1  0.0000000  1.2552000  3
    785    784    787    788     1  0.0000000  1.2552000  3
    785    784    787    798     1  0.0000000  1.2552000  3
    786    784    787    788     1  0.0000000  1.2552000  3
    786    784    787    798     1  0.0000000  1.2552000  3
    787    788    791    792     1  0.0000000  0.6508444  3
    787    788    791    793     1  0.0000000  0.6508444  3
    787    798    801    802     1  0.0000000  0.6508444  3
    787    798    801    803     1  0.0000000  0.6508444  3
    788    787    798    799     1  0.0000000  1.2552000  3
    788    787    798    800     1  0.0000000  1.2552000  3
    789    788    787    798     1  0.0000000  1.2552000  3
    789    788    791    794     1  0.0000000  0.6508444  3
    789    788    791    792     1  0.0000000  0.6508444  3
    789    788    791    793     1  0.0000000  0.6508444  3
    790    788    787    798     1  0.0000000  1.2552000  3
    790    788    791    794     1  0.0000000  0.6508444  3
    790    788    791    792     1  0.0000000  0.6508444  3
    790    788    791    793     1  0.0000000  0.6508444  3
    791    794    796    797     1  180.0000771  9.6232000  2
    792    791    794    795     1  0.0000000  3.3472000  1
    792    791    794    795     1  0.0000000  0.0000000  2
    792    791    794    795     1  180.0000771  0.3347200  3
    792    791    794    796     1  180.0000771  0.0000000  2
    793    791    794    795     1  0.0000000  3.3472000  1
    793    791    794    795     1  0.0000000  0.0000000  2
    793    791    794    795     1  180.0000771  0.3347200  3
    793    791    794    796     1  180.0000771  0.0000000  2
    795    794    796    797     1  0.0000000  7.9496000  1
    795    794    796    797     1  180.0000771  9.6232000  2
    799    798    801    804     1  0.0000000  0.6508444  3
    799    798    801    802     1  0.0000000  0.6508444  3
    799    798    801    803     1  0.0000000  0.6508444  3
    800    798    801    804     1  0.0000000  0.6508444  3
    800    798    801    802     1  0.0000000  0.6508444  3
    800    798    801    803     1  0.0000000  0.6508444  3
    801    804    806    807     1  180.0000771  9.6232000  2
    802    801    804    805     1  0.0000000  3.3472000  1
    802    801    804    805     1  0.0000000  0.0000000  2
    802    801    804    805     1  180.0000771  0.3347200  3
    802    801    804    806     1  180.0000771  0.0000000  2
    803    801    804    805     1  0.0000000  3.3472000  1
    803    801    804    805     1  0.0000000  0.0000000  2
    803    801    804    805     1  180.0000771  0.3347200  3
    803    801    804    806     1  180.0000771  0.0000000  2
    805    804    806    807     1  0.0000000  7.9496000  1
    805    804    806    807     1  180.0000771  9.6232000  2
    809    812    815    816     1  0.0000000  0.6508444  3
    809    812    815    817     1  0.0000000  0.6508444  3
    810    809    812    815     1  0.0000000  0.6508444  3
    810    809    812    813     1  0.0000000  0.6508444  3
    810    809    812    814     1  0.0000000  0.6508444  3
    811    809    812    815     1  0.0000000  0.6508444  3
    811    809    812    813     1  0.0000000  0.6508444  3
    811    809    812    814     1  0.0000000  0.6508444  3
    813    812    815    818     1  0.0000000  0.6508444  3
    813    812    815    816     1  0.0000000  0.6508444  3
    813    812    815    817     1  0.0000000  0.6508444  3
    813    812    809    839     1  0.0000000  1.0460000  1
    813    812    809    839     1  0.0000000  0.0000000  3
    814    812    815    818     1  0.0000000  0.6508444  3
    814    812    815    816     1  0.0000000  0.6508444  3
    814    812    815    817     1  0.0000000  0.6508444  3
    814    812    809    839     1  0.0000000  1.0460000  1
    814    812    809    839     1  0.0000000  0.0000000  3
    815    818    819    820     1  0.0000000  1.2552000  3
    815    818    819    821     1  0.0000000  1.2552000  3
    815    818    829    830     1  0.0000000  1.2552000  3
    815    818    829    831     1  0.0000000  1.2552000  3
    816    815    818    819     1  0.0000000  1.2552000  3
    816    815    818    829     1  0.0000000  1.2552000  3
    817    815    818    819     1  0.0000000  1.2552000  3
    817    815    818    829     1  0.0000000  1.2552000  3
    818    819    822    823     1  0.0000000  0.6508444  3
    818    819    822    824     1  0.0000000  0.6508444  3
    818    829    832    833     1  0.0000000  0.6508444  3
    818    829    832    834     1  0.0000000  0.6508444  3
    819    818    829    830     1  0.0000000  1.2552000  3
    819    818    829    831     1  0.0000000  1.2552000  3
    820    819    822    825     1  0.0000000  0.6508444  3
    820    819    822    823     1  0.0000000  0.6508444  3
    820    819    822    824     1  0.0000000  0.6508444  3
    820    819    818    829     1  0.0000000  1.2552000  3
    821    819    822    825     1  0.0000000  0.6508444  3
    821    819    822    823     1  0.0000000  0.6508444  3
    821    819    822    824     1  0.0000000  0.6508444  3
    821    819    818    829     1  0.0000000  1.2552000  3
    822    825    827    828     1  180.0000771  9.6232000  2
    823    822    825    826     1  0.0000000  3.3472000  1
    823    822    825    826     1  0.0000000  0.0000000  2
    823    822    825    826     1  180.0000771  0.3347200  3
    823    822    825    827     1  180.0000771  0.0000000  2
    824    822    825    826     1  0.0000000  3.3472000  1
    824    822    825    826     1  0.0000000  0.0000000  2
    824    822    825    826     1  180.0000771  0.3347200  3
    824    822    825    827     1  180.0000771  0.0000000  2
    826    825    827    828     1  0.0000000  7.9496000  1
    826    825    827    828     1  180.0000771  9.6232000  2
    830    829    832    835     1  0.0000000  0.6508444  3
    830    829    832    833     1  0.0000000  0.6508444  3
    830    829    832    834     1  0.0000000  0.6508444  3
    831    829    832    835     1  0.0000000  0.6508444  3
    831    829    832    833     1  0.0000000  0.6508444  3
    831    829    832    834     1  0.0000000  0.6508444  3
    832    835    837    838     1  180.0000771  9.6232000  2
    833    832    835    836     1  0.0000000  3.3472000  1
    833    832    835    836     1  0.0000000  0.0000000  2
    833    832    835    836     1  180.0000771  0.3347200  3
    833    832    835    837     1  180.0000771  0.0000000  2
    834    832    835    836     1  0.0000000  3.3472000  1
    834    832    835    836     1  0.0000000  0.0000000  2
    834    832    835    836     1  180.0000771  0.3347200  3
    834    832    835    837     1  180.0000771  0.0000000  2
    836    835    837    838     1  0.0000000  7.9496000  1
    836    835    837    838     1  180.0000771  9.6232000  2
    840    843    846    847     1  0.0000000  0.6508444  3
    840    843    846    848     1  0.0000000  0.6508444  3
    841    840    843    846     1  0.0000000  0.6508444  3
    841    840    843    844     1  0.0000000  0.6508444  3
    841    840    843    845     1  0.0000000  0.6508444  3
    842    840    843    846     1  0.0000000  0.6508444  3
    842    840    843    844     1  0.0000000  0.6508444  3
    842    840    843    845     1  0.0000000  0.6508444  3
    844    843    840    870     1  0.0000000  1.0460000  1
    844    843    840    870     1  0.0000000  0.0000000  3
    844    843    846    849     1  0.0000000  0.6508444  3
    844    843    846    847     1  0.0000000  0.6508444  3
    844    843    846    848     1  0.0000000  0.6508444  3
    845    843    840    870     1  0.0000000  1.0460000  1
    845    843    840    870     1  0.0000000  0.0000000  3
    845    843    846    849     1  0.0000000  0.6508444  3
    845    843    846    847     1  0.0000000  0.6508444  3
    845    843    846    848     1  0.0000000  0.6508444  3
    846    849    850    851     1  0.0000000  1.2552000  3
    846    849    850    852     1  0.0000000  1.2552000  3
    846    849    860    861     1  0.0000000  1.2552000  3
    846    849    860    862     1  0.0000000  1.2552000  3
    847    846    849    850     1  0.0000000  1.2552000  3
    847    846    849    860     1  0.0000000  1.2552000  3
    848    846    849    850     1  0.0000000  1.2552000  3
    848    846    849    860     1  0.0000000  1.2552000  3
    849    850    853    854     1  0.0000000  0.6508444  3
    849    850    853    855     1  0.0000000  0.6508444  3
    849    860    863    864     1  0.0000000  0.6508444  3
    849    860    863    865     1  0.0000000  0.6508444  3
    850    849    860    861     1  0.0000000  1.2552000  3
    850    849    860    862     1  0.0000000  1.2552000  3
    851    850    849    860     1  0.0000000  1.2552000  3
    851    850    853    856     1  0.0000000  0.6508444  3
    851    850    853    854     1  0.0000000  0.6508444  3
    851    850    853    855     1  0.0000000  0.6508444  3
    852    850    849    860     1  0.0000000  1.2552000  3
    852    850    853    856     1  0.0000000  0.6508444  3
    852    850    853    854     1  0.0000000  0.6508444  3
    852    850    853    855     1  0.0000000  0.6508444  3
    853    856    858    859     1  180.0000771  9.6232000  2
    854    853    856    857     1  0.0000000  3.3472000  1
    854    853    856    857     1  0.0000000  0.0000000  2
    854    853    856    857     1  180.0000771  0.3347200  3
    854    853    856    858     1  180.0000771  0.0000000  2
    855    853    856    857     1  0.0000000  3.3472000  1
    855    853    856    857     1  0.0000000  0.0000000  2
    855    853    856    857     1  180.0000771  0.3347200  3
    855    853    856    858     1  180.0000771  0.0000000  2
    857    856    858    859     1  0.0000000  7.9496000  1
    857    856    858    859     1  180.0000771  9.6232000  2
    861    860    863    866     1  0.0000000  0.6508444  3
    861    860    863    864     1  0.0000000  0.6508444  3
    861    860    863    865     1  0.0000000  0.6508444  3
    862    860    863    866     1  0.0000000  0.6508444  3
    862    860    863    864     1  0.0000000  0.6508444  3
    862    860    863    865     1  0.0000000  0.6508444  3
    863    866    868    869     1  180.0000771  9.6232000  2
    864    863    866    867     1  0.0000000  3.3472000  1
    864    863    866    867     1  0.0000000  0.0000000  2
    864    863    866    867     1  180.0000771  0.3347200  3
    864    863    866    868     1  180.0000771  0.0000000  2
    865    863    866    867     1  0.0000000  3.3472000  1
    865    863    866    867     1  0.0000000  0.0000000  2
    865    863    866    867     1  180.0000771  0.3347200  3
    865    863    866    868     1  180.0000771  0.0000000  2
    867    866    868    869     1  0.0000000  7.9496000  1
    867    866    868    869     1  180.0000771  9.6232000  2
    871    874    877    878     1  0.0000000  0.6508444  3
    871    874    877    879     1  0.0000000  0.6508444  3
    872    871    874    877     1  0.0000000  0.6508444  3
    872    871    874    875     1  0.0000000  0.6508444  3
    872    871    874    876     1  0.0000000  0.6508444  3
    873    871    874    877     1  0.0000000  0.6508444  3
    873    871    874    875     1  0.0000000  0.6508444  3
    873    871    874    876     1  0.0000000  0.6508444  3
    875    874    877    880     1  0.0000000  0.6508444  3
    875    874    877    878     1  0.0000000  0.6508444  3
    875    874    877    879     1  0.0000000  0.6508444  3
    875    874    871    901     1  0.0000000  1.0460000  1
    875    874    871    901     1  0.0000000  0.0000000  3
    876    874    877    880     1  0.0000000  0.6508444  3
    876    874    877    878     1  0.0000000  0.6508444  3
    876    874    877    879     1  0.0000000  0.6508444  3
    876    874    871    901     1  0.0000000  1.0460000  1
    876    874    871    901     1  0.0000000  0.0000000  3
    877    880    881    882     1  0.0000000  1.2552000  3
    877    880    881    883     1  0.0000000  1.2552000  3
    877    880    891    892     1  0.0000000  1.2552000  3
    877    880    891    893     1  0.0000000  1.2552000  3
    878    877    880    881     1  0.0000000  1.2552000  3
    878    877    880    891     1  0.0000000  1.2552000  3
    879    877    880    881     1  0.0000000  1.2552000  3
    879    877    880    891     1  0.0000000  1.2552000  3
    880    881    884    885     1  0.0000000  0.6508444  3
    880    881    884    886     1  0.0000000  0.6508444  3
    880    891    894    895     1  0.0000000  0.6508444  3
    880    891    894    896     1  0.0000000  0.6508444  3
    881    880    891    892     1  0.0000000  1.2552000  3
    881    880    891    893     1  0.0000000  1.2552000  3
    882    881    884    887     1  0.0000000  0.6508444  3
    882    881    884    885     1  0.0000000  0.6508444  3
    882    881    884    886     1  0.0000000  0.6508444  3
    882    881    880    891     1  0.0000000  1.2552000  3
    883    881    884    887     1  0.0000000  0.6508444  3
    883    881    884    885     1  0.0000000  0.6508444  3
    883    881    884    886     1  0.0000000  0.6508444  3
    883    881    880    891     1  0.0000000  1.2552000  3
    884    887    889    890     1  180.0000771  9.6232000  2
    885    884    887    888     1  0.0000000  3.3472000  1
    885    884    887    888     1  0.0000000  0.0000000  2
    885    884    887    888     1  180.0000771  0.3347200  3
    885    884    887    889     1  180.0000771  0.0000000  2
    886    884    887    888     1  0.0000000  3.3472000  1
    886    884    887    888     1  0.0000000  0.0000000  2
    886    884    887    888     1  180.0000771  0.3347200  3
    886    884    887    889     1  180.0000771  0.0000000  2
    888    887    889    890     1  0.0000000  7.9496000  1
    888    887    889    890     1  180.0000771  9.6232000  2
    892    891    894    897     1  0.0000000  0.6508444  3
    892    891    894    895     1  0.0000000  0.6508444  3
    892    891    894    896     1  0.0000000  0.6508444  3
    893    891    894    897     1  0.0000000  0.6508444  3
    893    891    894    895     1  0.0000000  0.6508444  3
    893    891    894    896     1  0.0000000  0.6508444  3
    894    897    899    900     1  180.0000771  9.6232000  2
    895    894    897    898     1  0.0000000  3.3472000  1
    895    894    897    898     1  0.0000000  0.0000000  2
    895    894    897    898     1  180.0000771  0.3347200  3
    895    894    897    899     1  180.0000771  0.0000000  2
    896    894    897    898     1  0.0000000  3.3472000  1
    896    894    897    898     1  0.0000000  0.0000000  2
    896    894    897    898     1  180.0000771  0.3347200  3
    896    894    897    899     1  180.0000771  0.0000000  2
    898    897    899    900     1  0.0000000  7.9496000  1
    898    897    899    900     1  180.0000771  9.6232000  2

;[ system ]
;; Name
;Generic title
;
;[ molecules ]
;; Compound       #mols
;system1              1
